ITEM: TIMESTEP
177200000
ITEM: NUMBER OF ATOMS
1000
ITEM: BOX BOUNDS pp pp pp
0.0000000000000000e+00 9.4000000000000004e+00
0.0000000000000000e+00 9.4000000000000004e+00
0.0000000000000000e+00 9.4000000000000004e+00
ITEM: ATOMS id type x y z vx vy vz
1 1 4.27968 2.42009 5.72478 0.343213 0.0620947 0.913144
2 1 6.2338 4.87643 8.56002 0.476518 0.0291313 1.0324
3 1 6.90851 2.24989 5.90811 -0.571755 1.06315 0.2159
4 1 4.07257 3.97339 5.69822 0.398266 0.290264 1.39647
5 1 3.17888 5.62231 9.33421 -0.65911 1.5581 -0.822661
6 1 2.74962 0.731376 7.29926 -0.789449 0.562314 0.724267
7 1 6.60449 5.71454 8.8114 -0.0727082 0.367723 -0.792455
8 1 8.63981 6.34907 7.7756 -0.383054 -1.57115 0.402645
9 1 6.57036 0.840727 1.43389 0.132237 0.291744 0.802541
10 1 3.38776 3.42232 8.88661 0.485283 0.360647 0.023356
11 1 2.79207 0.233498 3.6316 0.173923 0.057152 -0.388264
12 1 8.65775 2.04138 0.165677 1.01363 -1.29577 -0.415177
13 1 8.46072 0.165018 7.44823 0.172008 0.863038 -1.11402
14 1 5.63492 0.685708 1.55672 1.42219 0.395169 0.747898
15 1 4.90039 1.67205 1.99298 0.157213 -0.563509 0.83996
16 1 2.48519 5.87326 0.577354 0.449151 0.139673 0.303899
17 1 5.23038 5.46541 2.73473 0.0178196 0.0655925 -0.621451
18 1 7.41734 5.60337 0.94454 -1.36219 -0.496675 0.204737
19 1 0.993027 2.53746 6.50386 -0.861381 0.969066 0.789427
20 1 8.07853 8.28812 4.70776 0.532184 -0.399958 -1.40695
21 1 7.03923 9.18946 8.79827 0.319296 1.30907 0.46442
22 1 4.76189 0.471525 0.675561 -0.218733 -0.0383089 1.27913
23 1 0.291387 7.28049 2.88935 0.0867186 0.445516 -0.0175139
24 1 2.3635 7.59005 1.39872 -0.395736 -0.405011 -1.29462
25 1 7.92524 8.41575 0.50139 -0.77457 2.09968 0.249767
26 1 8.27901 6.9356 2.07275 0.0834706 -0.181865 -0.381956
27 1 5.06304 0.641006 5.81222 -2.36979 -0.685421 0.44953
28 1 4.05483 0.422762 7.66857 0.713565 1.49213 1.39642
29 1 3.73383 3.1943 1.46065 1.01329 0.98225 -0.821204
30 1 6.06355 3.50082 0.640215 -0.405311 0.811248 0.0831436
31 1 2.33573 2.29398 3.4255 0.662311 0.362342 -0.33418
32 1 0.358185 4.69549 7.15605 -0.179911 0.828099 -0.353058
33 1 4.66909 7.4639 5.25243 -0.620536 0.0511276 -1.05981
34 1 8.75387 8.22792 1.91473 -0.799973 -0.240027 -0.492675
35 1 7.90317 5.93274 4.55301 0.464198 -0.116044 0.784753
36 1 8.73223 3.57696 8.52663 1.46631 0.00886476 -0.0428095
37 1 1.00934 6.74361 5.7452 -0.0640991 0.497059 -0.960855
38 1 4.02567 3.89051 6.93958 -1.4703 -1.85709 -0.0888733
39 1 4.88233 5.09462 9.01995 -1.66564 0.301514 0.185967
40 1 5.09622 7.24806 1.67324 0.77687 -0.526869 0.0114354
41 1 4.47142 2.94702 3.42017 -1.01283 0.109122 0.247941
42 1 0.668669 8.0985 6.17013 -0.405113 -0.830084 -0.149914
43 1 6.85441 1.52501 9.0113 0.886654 1.77289 0.0499944
44 1 6.21343 4.44328 2.36978 0.2102 0.663691 -0.478149
45 1 6.67515 8.51101 3.51745 0.743233 -0.996617 -1.16113
46 1 8.44175 2.66002 7.70928 -0.0572155 -1.07438 0.695747
47 1 6.65503 0.0987938 8.05069 -0.0689473 0.685701 0.978988
48 1 9.33759 0.748608 5.54124 -1.52779 -0.179671 -0.347475
49 1 6.71134 2.09005 4.86276 0.180636 0.901589 -0.298915
50 1 0.310113 0.2467 5.0382 -0.399945 0.123621 0.350504
51 1 8.33861 1.99076 2.95113 -0.96854 -1.04856 -0.901934
52 1 0.0329991 3.98282 8.98559 0.586335 -1.01221 -0.2738
53 1 7.80714 3.25107 8.10269 0.923208 0.789103 -0.967415
54 1 0.206373 8.79302 0.75162 -0.822388 -0.934746 0.38539
55 1 0.687794 6.78732 3.69337 -0.202915 0.248258 0.201096
56 1 8.8396 8.08168 5.68379 -1.63866 -0.917015 0.490276
57 1 0.703937 8.42362 2.00417 0.860673 -0.143845 -0.962415
58 1 4.24311 6.95732 7.58675 -0.125306 -0.317053 2.40124
59 1 5.8801 5.79625 6.46234 -0.750828 -0.104646 0.437688
60 1 8.72695 5.34083 4.99993 0.363579 -0.436883 -0.396546
61 1 5.45718 0.775772 8.97293 -0.654545 0.33276 0.568828
62 1 0.504679 7.08256 1.99513 -0.894481 -0.444415 0.139686
63 1 7.24469 7.59518 3.24182 -0.835711 0.413134 -0.753617
64 1 1.63621 2.00904 8.04317 -0.482106 -0.0132272 0.0771526
65 1 2.32709 1.43566 7.48407 -0.762665 0.357378 0.297688
66 1 8.34994 7.66362 0.236333 -1.71534 0.0351984 -0.126541
67 1 4.95155 1.26691 0.207063 0.65675 -0.492675 2.57584
68 1 3.73483 4.8209 2.28632 -0.930822 -0.523861 0.129346
69 1 6.04123 2.09304 5.64868 1.30593 1.07966 0.0722946
70 1 0.607925 1.77987 5.927 0.209012 0.423359 -1.91388
71 1 4.27062 5.37219 3.55524 -0.835642 -0.20753 -0.979713
72 1 6.26838 2.31646 2.73496 -0.809718 0.691293 -0.336506
73 1 2.04818 7.85788 5.09705 -1.06194 0.535858 -0.582922
74 1 1.44053 8.50471 4.38119 -0.499796 -0.0514888 -1.39924
75 1 5.67463 8.71617 6.72213 0.107816 -0.878068 0.250133
76 1 6.72824 8.39947 8.53621 -1.27274 -0.275708 -1.07663
77 1 4.43173 7.336 3.49146 -1.02876 -0.176961 -0.708973
78 1 8.15401 6.13428 2.77383 -0.665013 -1.1832 -0.285667
79 1 3.35502 0.28173 1.69347 0.116695 1.54127 0.483879
80 1 6.64562 3.72416 4.88314 0.539924 -0.46404 -0.401687
81 1 3.79843 3.49548 4.98755 -0.113957 -0.124245 -0.297565
82 1 3.79812 2.21226 6.99694 -0.367285 0.640263 0.417866
83 1 2.36709 3.38053 5.69824 0.634125 0.616817 0.124318
84 1 0.724745 7.86484 0.798802 -1.17965 0.436219 0.243566
85 1 9.2077 3.06368 2.68556 0.675658 -1.06612 -0.410664
86 1 4.20521 5.66657 6.08711 0.76404 -0.896265 -1.48697
87 1 4.62212 3.37771 1.12323 -0.261392 0.069968 0.314119
88 1 1.1038 8.1099 2.82914 -0.998193 0.0283305 0.582216
89 1 1.62344 3.57959 7.87444 -0.049636 -0.535524 -0.384746
90 1 2.58795 3.43375 8.26151 0.893471 -1.22576 0.640663
91 1 2.10031 2.8194 7.94607 -0.120018 -0.0676065 -0.211859
92 1 0.700145 1.04148 4.20604 0.629954 -0.630947 -0.223245
93 1 7.26538 6.53748 3.06648 -0.369025 1.36067 -1.27691
94 1 7.80336 6.32845 7.86394 -0.230093 0.308102 -0.293014
95 1 0.0744241 3.91495 7.96536 -0.302599 0.0820914 0.747946
96 1 1.05466 7.25316 5.08334 -0.640098 0.416648 0.236901
97 1 2.59521 8.93703 8.19875 -1.19355 0.229677 -0.0838921
98 1 2.36237 8.39489 8.98302 0.96022 -0.155991 -1.09503
99 1 7.46011 7.57609 9.19709 0.731172 -0.860715 0.734918
100 1 2.30434 8.30796 4.0839 -0.738124 -0.822595 -0.795984
101 1 4.22121 1.05635 1.76878 0.0990616 1.75171 1.36536
102 1 5.12651 6.1341 6.7821 -0.575663 -1.35102 -0.430179
103 1 6.93355 6.15575 1.64942 -0.928987 -0.0323242 0.353331
104 1 5.26454 7.63638 8.83663 0.712898 0.830156 0.408482
105 1 5.37613 3.90596 1.09843 -0.0731985 0.462856 0.272224
106 1 3.09755 4.26771 8.22974 1.00499 -0.76817 -1.11614
107 1 2.47567 6.87923 4.93332 -0.639724 -0.328344 -0.237649
108 1 9.292 7.55759 7.80055 0.119956 -0.678147 -0.858233
109 1 3.93927 7.87193 0.936149 -1.10664 -0.882122 0.144579
110 1 6.56442 9.17925 4.05207 0.360071 0.00704319 0.202853
111 1 0.140883 0.647377 7.31253 0.853911 0.102449 0.127041
112 1 4.21387 1.3669 7.40024 -1.66356 0.694908 -0.496782
113 1 8.32722 3.23897 2.56002 -1.0306 0.901089 0.278103
114 1 2.23085 2.77488 1.36855 0.760019 0.508105 0.484802
115 1 0.175725 6.34109 0.750067 0.20547 -0.686671 -0.219944
116 1 6.15984 4.29474 5.63143 0.562127 -0.99652 -0.300585
117 1 3.2388 1.02733 3.63405 -1.33958 -1.57103 1.72608
118 1 8.89873 3.15471 6.62312 -0.208057 -1.44049 -0.648167
119 1 4.33055 2.16414 7.99069 0.782272 -0.875477 -0.308085
120 1 1.07788 3.49728 6.90878 -1.07817 0.859029 -0.746453
121 1 2.19731 4.04858 8.91485 -0.0553624 -0.460978 -1.57639
122 1 1.16074 7.15839 6.6792 -0.960403 -0.102876 -0.595694
123 1 1.73712 8.59195 6.32484 1.28724 -0.0507158 -0.434616
124 1 6.9623 2.45071 6.92269 0.260372 0.805356 0.434623
125 1 1.06129 4.68829 4.01621 -1.4479 0.925282 0.0874748
126 1 5.96229 1.9892 8.89662 -0.925135 -0.528092 -0.94294
127 1 5.79233 0.558146 2.75875 -0.986411 -0.177523 0.405486
128 1 8.96796 1.91723 7.90253 0.208592 -0.984113 0.233559
129 1 7.60926 1.60563 5.92846 -0.191996 0.522746 -1.05203
130 1 4.81422 4.10675 2.12003 0.529801 0.94314 1.49585
131 1 5.5752 5.70992 3.55723 1.50479 -0.801721 -0.820401
132 1 3.43164 6.39947 5.84167 -0.350393 -0.229506 0.454917
133 1 7.87003 6.7242 5.82377 -0.753039 -0.0521002 0.507469
134 1 6.62849 2.21839 0.276061 -0.602008 -0.241095 -0.111301
135 1 0.499681 7.93806 8.4586 -0.721005 -0.265239 -0.662438
136 1 2.80826 7.40762 6.84835 0.520411 -1.64956 0.268731
137 1 1.91779 0.211286 3.25558 1.04392 0.0269088 -0.61729
138 1 8.56784 7.15039 7.06886 0.334989 -0.162756 -0.512937
139 1 5.02982 8.3282 0.170226 0.268718 -0.201593 -0.800649
140 1 2.98064 4.4168 4.03622 0.14858 0.775702 0.801442
141 1 7.03179 5.30239 5.79982 1.3606 0.366091 1.21101
142 1 7.41734 2.34336 3.65117 0.288502 -1.23606 0.644725
143 1 8.03619 0.518811 6.13073 -0.84997 -0.867629 1.28493
144 1 1.27962 1.55094 6.58929 0.131883 -0.401406 -0.268206
145 1 5.91828 1.28815 5.09249 0.416786 -0.39017 0.630993
146 1 7.66061 0.735061 7.22409 -0.578592 -1.23413 -0.663367
147 1 8.32771 0.663357 9.08369 -1.16442 0.545881 0.29537
148 1 6.19975 5.2724 2.71338 -0.814415 0.294309 -0.286906
149 1 7.57332 6.823 4.83446 0.855882 0.804 -1.10042
150 1 6.64585 3.59989 2.73157 0.55645 -0.750169 -0.779793
151 1 4.26457 1.25731 2.91723 -0.72834 -0.0283256 0.00705986
152 1 3.25668 2.20484 6.21698 0.456394 -1.07138 1.80072
153 1 3.46176 4.51587 6.40563 -0.128086 0.412042 0.374249
154 1 7.81115 8.27585 3.58779 0.925486 -0.529158 -0.869711
155 1 1.69683 3.35194 8.80577 0.0857763 -0.00536826 -0.584884
156 1 0.926608 6.07839 0.306249 -0.540983 -0.042269 -0.211217
157 1 2.91798 5.50649 6.86496 0.251698 1.4272 -1.29172
158 1 2.38293 5.01091 8.58084 -0.525964 -0.0583024 0.893304
159 1 6.62577 1.38111 5.80155 0.947499 0.0375272 0.544849
160 1 2.44127 4.41049 3.27048 -0.0280834 -0.857888 0.885473
161 1 5.16461 1.69947 2.85354 -0.742195 -0.414311 0.870524
162 1 0.224898 5.39791 6.57213 1.12891 0.760848 -0.0910292
163 1 4.6138 2.48787 6.64659 0.159141 0.501308 0.836729
164 1 7.27728 3.20748 6.22865 0.205185 -0.233392 1.64784
165 1 1.21926 5.99857 8.85135 0.211558 -0.583033 0.466022
166 1 2.53089 7.45126 0.542706 -0.86439 -0.185612 -0.232027
167 1 8.83062 8.7818 5.03198 0.0656742 -0.972765 0.655271
168 1 5.88133 1.28849 2.1998 -0.518198 1.00186 -0.379537
169 1 1.95672 5.53078 5.55076 1.11917 -0.673189 0.443577
170 1 7.41296 0.864808 9.09449 -0.0882022 -0.153304 -1.09767
171 1 2.01822 4.81135 5.09485 -0.544061 1.36528 0.526443
172 1 7.86979 6.80033 8.81627 1.51315 -0.293144 -0.769805
173 1 8.20162 1.52704 7.83291 -0.885162 2.46261 -0.875642
174 1 1.09123 8.88039 1.26165 1.4886 0.591068 1.43835
175 1 4.24361 2.9808 7.39215 0.5906 -0.39759 -0.204201
176 1 1.39694 1.96969 5.57893 -0.116533 0.800059 -1.63486
177 1 3.03056 6.78851 2.52254 0.523153 0.383589 0.248362
178 1 0.309152 0.17863 0.149561 -1.60106 -0.299017 -1.15952
179 1 6.24169 1.33866 4.14219 -0.286706 1.40539 -1.11347
180 1 5.3428 1.43695 4.02782 -0.209836 -0.0968308 0.552957
181 1 4.35425 5.93247 7.32634 1.07881 0.623648 0.0679454
182 1 5.70255 0.123176 6.2912 -0.135224 -0.865929 0.0561729
183 1 1.05125 5.1123 6.88512 -0.267876 -0.684736 -0.384541
184 1 4.9288 3.57415 0.197463 -1.32413 -0.385181 0.32731
185 1 2.49 5.45138 4.5212 1.17941 -0.534491 0.744044
186 1 2.54715 3.74385 2.38816 1.28761 0.756898 -0.341497
187 1 3.32942 3.94289 1.98843 0.0408183 0.330499 -0.334854
188 1 0.798668 5.5807 1.1688 -0.437364 -0.189034 1.07696
189 1 6.52939 7.41461 8.56608 0.847202 -0.993353 0.918425
190 1 0.0739037 8.07004 1.42648 -0.172463 0.937777 0.0499703
191 1 1.56305 6.38604 6.59226 -0.948789 0.469526 -0.63221
192 1 5.17729 6.40214 7.77198 -0.600635 1.00108 0.991509
193 1 4.34295 8.64304 0.744264 -0.329699 0.659335 -1.30191
194 1 3.35133 5.72891 0.794393 0.158041 -0.654739 0.718103
195 1 9.30935 1.58132 5.20951 -0.139617 -0.713693 -0.797973
196 1 5.17288 8.69113 7.6565 0.233726 -0.558505 0.763339
197 1 4.6353 5.06971 2.07208 -0.787455 -0.450018 0.236497
198 1 6.12959 5.29924 5.75813 -0.614917 -0.215286 -0.112658
199 1 4.09687 1.6685 4.70046 -0.386106 -0.939714 0.453235
200 1 3.85593 4.63431 3.82665 -0.435884 -1.14825 -0.529076
201 1 2.04824 8.20907 2.27421 1.29553 0.868933 0.351308
202 1 4.40277 6.55312 9.20223 0.455447 -0.287936 -0.820583
203 1 7.58192 8.65806 1.8813 -1.33635 0.47002 0.795725
204 1 8.29164 6.15482 0.301746 0.798566 -0.878712 -0.38181
205 1 3.5216 6.4289 0.0370619 0.241933 1.72126 -0.457188
206 1 6.28063 2.88504 7.24091 -0.24023 0.997541 -0.174386
207 1 1.69398 1.63334 3.05521 -0.417034 0.747641 0.757487
208 1 9.2643 5.91513 1.53369 -0.57734 -1.10588 1.09283
209 1 9.34403 6.71359 8.27215 0.478334 0.632038 0.455349
210 1 3.24226 1.9071 2.11245 -1.15451 1.53511 -0.212611
211 1 0.835887 9.34015 7.19209 -0.986606 -0.5219 1.00101
212 1 3.2697 0.478434 0.395738 -0.842489 -0.361308 -0.692244
213 1 0.875036 6.41046 1.19523 -0.31891 1.15405 0.452138
214 1 8.16948 8.47498 6.53883 -0.0715473 0.246308 -0.409214
215 1 0.802303 2.01257 0.200049 -0.415587 -0.327968 0.320918
216 1 9.13045 2.03363 2.61706 1.33142 0.817204 0.299807
217 1 4.37706 1.06369 4.00356 2.15834 0.944514 -0.754079
218 1 3.38863 5.04666 8.54036 0.329698 1.98631 0.419263
219 1 0.18589 7.61019 5.51074 0.978049 -0.47412 -0.867294
220 1 4.67195 7.38746 2.6082 0.00884102 -0.200937 -0.156742
221 1 7.21304 0.735354 6.36841 -0.229138 0.18387 -0.144228
222 1 5.20468 5.16206 6.87461 -0.185607 -1.09622 -0.192698
223 1 2.43797 2.34264 5.35733 -0.36013 0.803253 -1.02855
224 1 3.98198 0.0705948 1.05029 -0.336883 -0.484814 0.391358
225 1 5.14072 7.58166 4.55537 -1.34682 -0.416457 0.0455808
226 1 8.68158 8.66222 3.77903 -0.117661 0.369065 0.747507
227 1 4.78283 3.95111 8.78439 0.667193 1.65437 0.0983594
228 1 1.18779 6.08098 5.17284 0.287316 -1.56923 -0.346869
229 1 5.92393 1.81918 1.50671 -1.55276 -0.499268 -1.11137
230 1 7.86523 7.88702 7.25886 -0.100671 -0.86423 -1.20965
231 1 1.55295 7.86515 1.53903 1.0845 -1.96051 1.10138
232 1 6.00418 1.625 0.553469 1.04501 1.07828 -0.634553
233 1 1.50468 8.05104 8.39568 0.0519857 0.207562 -0.0612187
234 1 2.08239 2.61463 2.53765 0.568307 0.562781 -0.484666
235 1 2.88383 7.80867 2.10156 0.960807 -0.423828 -0.17161
236 1 0.0616263 1.93412 9.03128 0.402646 0.498847 -0.854098
237 1 4.94986 9.11738 3.8681 0.0244287 0.72465 0.271638
238 1 9.32017 7.37213 6.43288 -0.337651 1.33519 0.442525
239 1 6.02687 6.49931 1.50725 -0.208087 0.994299 0.584243
240 1 8.44723 3.98789 0.0641548 -0.54973 0.563512 0.851992
241 1 8.73575 6.77714 6.19273 2.40347 -0.455642 -0.57801
242 1 3.22951 2.57995 8.41745 0.349199 -0.977056 1.92175
243 1 3.56597 8.11509 6.59903 0.171095 0.318481 0.298433
244 1 1.33277 2.30361 4.76978 -0.691407 0.0150657 -0.497727
245 1 2.07934 2.67692 6.15031 0.538907 0.19288 -0.132641
246 1 4.18565 1.94252 1.2334 0.512979 -0.852724 1.41008
247 1 7.62292 3.12348 1.72847 -0.686544 0.670764 0.639469
248 1 7.1804 4.85669 8.90457 -0.878836 1.5145 1.00699
249 1 6.69766 5.21314 1.86703 -0.973671 0.495286 0.702983
250 1 3.39461 9.21145 7.93437 -0.29251 0.11697 -0.145231
251 1 2.10095 8.48846 1.29505 1.11403 -0.305399 -0.746813
252 1 1.53641 0.116603 7.89448 -2.63831 0.689295 0.144735
253 1 5.61055 8.59666 3.22559 -0.511493 1.21436 0.318946
254 1 4.97526 0.576506 4.8282 -0.205591 0.0214887 -0.220613
255 1 3.10306 1.57787 6.81347 0.102794 -1.30934 -0.12099
256 1 6.5154 9.13744 6.81046 -1.04397 -1.02583 -0.0188194
257 1 8.38374 7.63406 4.05681 -1.85046 -1.7944 -0.897236
258 1 2.20059 0.329936 2.37837 -1.44478 -0.911317 -0.0557986
259 1 8.30199 5.87867 8.66372 0.217178 -0.918696 -1.18388
260 1 9.14899 1.07098 9.1495 0.224471 -0.337746 0.432592
261 1 5.55434 3.14164 3.17023 0.16402 0.278062 0.714814
262 1 1.20526 7.22376 1.02092 0.328053 -1.29292 -0.630948
263 1 0.140238 1.67628 3.57502 -0.815477 0.385124 -1.10272
264 1 3.80971 3.82916 0.360013 0.584221 0.202998 -1.1508
265 1 2.27733 4.76356 6.99214 -0.180784 1.10222 -0.296718
266 1 6.68472 7.10692 1.40698 1.2743 0.77726 -0.873663
267 1 7.98916 5.39985 6.41039 -0.291338 -0.0716577 -0.677024
268 1 3.95792 2.49256 8.91817 0.670902 -0.943546 -0.37523
269 1 8.13728 0.692604 2.87822 -0.62486 -0.24094 -0.968557
270 1 6.24555 7.16906 3.81826 -0.518542 0.382703 -0.509768
271 1 0.330894 6.56806 6.4267 -0.795786 -0.24293 0.510853
272 1 3.2278 7.52985 7.61538 0.281481 0.923551 0.674424
273 1 0.0315494 2.62139 1.94364 1.27985 0.395393 0.176583
274 1 1.91748 1.53567 0.506829 -0.522892 0.863072 -0.275797
275 1 5.41381 4.75482 5.27608 0.0105567 0.344621 0.15469
276 1 0.0377565 0.62413 3.64447 0.146478 0.90526 -0.494522
277 1 0.0600261 1.58749 1.54013 0.198857 0.551485 0.793931
278 1 9.01447 6.94539 5.25491 -1.99155 -0.576804 -0.776712
279 1 1.20789 3.86663 1.67712 -0.10445 -1.15426 0.2974
280 1 2.69356 5.03214 0.899515 -0.184016 -0.226864 -1.37583
281 1 7.59992 2.68701 2.71462 -0.992784 -0.817373 0.159773
282 1 1.89427 3.08366 4.969 0.350964 1.2328 1.44798
283 1 3.06645 1.11225 9.1751 -0.199065 0.715378 0.228533
284 1 1.87886 6.46904 5.66224 -0.404954 -0.142603 -0.653577
285 1 3.34107 3.4798 7.43496 1.71319 0.22496 -0.571339
286 1 3.31408 2.34549 1.26738 -0.556756 -1.66093 0.268486
287 1 8.46412 5.52018 1.58405 0.354595 0.331648 -0.642937
288 1 8.19226 3.62225 4.35423 1.24674 -0.472366 -0.537843
289 1 1.21359 2.30979 2.70617 0.112944 0.650358 -0.163477
290 1 4.20562 4.54996 1.51727 0.218616 0.146678 0.352247
291 1 0.983548 5.7193 6.02285 -0.863505 -0.564137 -1.06456
292 1 9.10445 0.656746 0.694069 -1.21869 0.498737 0.400016
293 1 4.78549 8.31307 3.0187 1.14448 0.0152327 0.201023
294 1 6.84137 4.16483 8.52625 0.432605 -0.794628 -0.266555
295 1 8.35804 6.39548 1.28799 1.06375 -0.533273 -0.105846
296 1 6.13007 7.78068 6.94368 -0.476669 0.211973 -0.140434
297 1 4.18016 5.88804 0.496832 0.392574 0.264094 -0.736793
298 1 7.27766 6.23834 0.0844881 0.91079 -0.260709 0.725719
299 1 5.44891 2.9398 6.98904 -1.12808 -0.773423 -1.04908
300 1 7.26329 2.8934 0.17638 0.51582 1.90094 0.549069
301 1 0.0369559 0.214168 6.38746 -0.634963 0.624688 -0.716734
302 1 5.89094 0.0720731 7.29448 -0.963953 0.150158 -1.30442
303 1 7.77377 8.56063 9.06214 -0.215251 -0.614302 -0.672209
304 1 9.34521 0.123772 8.60927 1.58404 -0.537039 0.994941
305 1 7.51269 2.33217 7.67827 1.12862 -0.33743 0.337202
306 1 0.780862 1.39649 4.99787 0.620022 -1.04842 0.574659
307 1 2.10236 7.42063 9.0016 -0.823227 0.999487 -1.31259
308 1 6.36542 8.55531 1.58011 -0.723735 0.498416 1.18221
309 1 4.1468 5.73119 9.01493 0.359042 -1.05033 -0.36789
310 1 5.01036 9.10244 5.59977 -0.00265768 -0.0666544 -1.04232
311 1 2.31495 8.19535 7.11141 -0.499662 -0.273968 0.24615
312 1 5.16667 5.64822 5.79328 -0.051269 0.63715 1.43356
313 1 8.11773 2.87331 3.39477 0.6634 -1.78168 0.670504
314 1 6.25918 9.38395 0.0219549 -0.493374 -1.20449 -0.975967
315 1 8.41669 7.54728 1.23619 0.463345 1.03123 -0.367373
316 1 6.23937 6.93265 9.3909 1.54486 -0.813346 -0.29573
317 1 5.26098 6.75333 8.94374 0.0661952 0.438222 0.385572
318 1 2.90553 3.00299 6.35823 0.233631 0.0835465 -0.202037
319 1 1.37714 6.95976 9.26755 -0.2516 -0.634502 -0.309875
320 1 2.64722 1.13672 2.1115 0.167341 0.660515 -0.625164
321 1 9.33298 0.950378 2.33913 -0.9204 -0.264166 0.402123
322 1 0.428941 3.46271 1.15894 -0.186349 0.0431748 -1.02603
323 1 9.28007 4.19841 1.41752 -0.123667 -0.98113 -0.771662
324 1 1.84115 6.25519 2.43323 -0.307003 -0.202977 1.28123
325 1 6.32698 2.82963 5.20781 1.47709 0.727993 -0.751195
326 1 1.41064 1.00235 8.237 -0.613612 -1.48203 -0.697799
327 1 0.32887 8.82781 9.10553 -0.51897 1.15821 0.504478
328 1 1.09303 2.55829 8.43354 -0.237528 -0.100363 0.618885
329 1 8.28995 1.09885 0.473594 -2.02479 -0.824804 -0.217794
330 1 4.04313 0.663222 5.15503 -0.0927881 -0.235748 -0.177767
331 1 2.83166 4.52855 4.903 -0.451431 -0.0589572 -0.0990892
332 1 6.31642 7.35255 6.06731 1.041 0.745368 1.44597
333 1 7.55955 6.97218 7.26512 0.271409 0.613693 0.285211
334 1 0.913698 4.01036 6.20373 0.233216 0.281995 -0.271057
335 1 7.76602 0.849263 4.59333 0.509983 -1.27505 0.185867
336 1 3.36021 4.97215 5.61298 -1.15952 -0.581243 0.288595
337 1 8.81877 5.84673 6.25105 -0.80285 -0.211222 -0.62463
338 1 6.85103 2.82938 1.0733 0.597397 -0.724208 0.348501
339 1 1.26308 1.15567 0.933004 0.0730477 0.870949 0.151424
340 1 5.62213 6.85468 5.18836 -0.574769 0.125406 0.117851
341 1 6.9471 5.72386 2.53632 0.332028 -0.460912 0.870568
342 1 9.23822 5.89758 4.50573 0.781644 -0.546804 1.21335
343 1 1.52132 5.75446 7.2738 0.574521 -0.0658429 0.733568
344 1 2.67495 3.84039 0.427422 1.5267 1.03748 -0.485393
345 1 6.58979 1.21021 7.66989 -1.04858 1.13873 -0.429644
346 1 8.78082 0.100335 5.74356 0.43865 1.05863 0.497541
347 1 6.98069 0.766597 2.33477 0.934834 0.4375 0.5457
348 1 6.63683 6.44444 0.721572 -1.54051 0.947198 -0.843828
349 1 6.53348 6.96408 7.60361 0.122548 0.120245 -0.668698
350 1 7.73274 3.71593 7.06681 -0.545563 -0.599108 0.0126211
351 1 7.97056 2.34117 6.19094 1.40473 0.692657 -0.947634
352 1 3.77317 4.35618 4.75708 -0.445834 -0.833418 0.241988
353 1 5.76882 1.2299 7.22022 -0.126608 0.580695 -0.816622
354 1 2.75195 3.48565 1.45928 -1.01613 1.13598 0.283587
355 1 6.99547 8.3452 0.203143 -1.18188 1.37118 0.0886463
356 1 8.64937 0.296747 4.87782 1.63336 0.548659 -0.296719
357 1 6.91552 0.385849 7.24894 0.815749 0.552039 -1.20274
358 1 2.55882 7.68505 5.81367 -1.28181 1.03971 0.269846
359 1 1.8957 5.35306 9.29086 -0.19734 0.723937 0.315748
360 1 6.00543 6.57005 3.10205 1.3872 -0.278084 0.678253
361 1 1.52227 2.70593 4.06031 0.742237 -1.31393 0.383968
362 1 5.37043 4.30153 6.35376 -0.224838 0.243846 0.65225
363 1 3.75884 7.40509 2.34552 -0.709736 -0.0410157 -1.4528
364 1 8.60669 1.66053 6.21805 0.105114 0.113537 0.0960442
365 1 1.17518 4.84821 3.12398 1.35641 0.234847 0.864261
366 1 7.68195 3.27915 5.3812 1.12848 -1.05311 0.490855
367 1 1.72238 3.22634 1.98162 -0.24211 -0.890335 -0.16141
368 1 7.51913 4.29226 0.213618 -0.621241 0.618509 -0.11533
369 1 0.660602 6.00442 1.93521 0.667931 -0.851387 0.286241
370 1 9.13335 9.34518 4.15159 1.38749 0.614801 0.368508
371 1 2.67601 6.5587 3.45179 0.268065 0.00839317 0.459991
372 1 3.67301 8.45729 0.138905 0.289968 0.436753 -0.334743
373 1 2.77347 8.40799 0.382092 0.382225 0.463189 0.127746
374 1 4.26216 5.38615 8.20423 0.622208 -0.614054 -0.205721
375 1 0.548771 2.33522 5.08359 0.395805 -0.291028 -1.39269
376 1 3.34317 4.28256 0.983221 -0.645099 0.384975 -0.734947
377 1 1.31904 1.69681 1.95151 -0.443202 -0.143075 0.423101
378 1 4.04095 7.80377 7.32009 0.612915 -1.27852 0.0526469
379 1 0.500386 8.77953 4.28031 1.17202 -1.62602 -0.419674
380 1 8.05391 2.4622 8.527 0.23381 -0.254553 1.56545
381 1 4.37347 7.97474 9.00007 0.557702 -0.320231 -0.455321
382 1 8.47213 6.13755 5.41318 -0.373684 -0.445473 0.282895
383 1 7.55319 4.63757 6.86894 -0.0234481 -0.714499 0.397308
384 1 7.62185 2.22656 1.06867 0.6478 1.78524 0.765231
385 1 4.65771 8.30065 5.79895 0.532609 0.231608 0.612808
386 1 8.17007 4.6623 8.5203 0.950494 0.400583 0.00840455
387 1 0.12739 7.20165 0.940729 0.0877883 0.663321 0.128187
388 1 8.91329 5.71645 2.36131 0.286358 -0.487971 -0.557549
389 1 6.99007 4.246 5.92804 0.00240022 0.335247 1.06718
390 1 4.57198 0.305991 8.48215 0.909076 1.70651 0.675075
391 1 4.12208 0.239072 6.22486 0.474632 -1.08957 1.70405
392 1 3.7537 4.96735 0.468139 0.207912 -0.510343 -0.154278
393 1 3.27178 4.69112 7.32802 0.137616 0.355646 -0.0608724
394 1 1.71364 6.45423 0.606637 -1.20562 1.06568 -0.478866
395 1 8.17304 9.32132 8.52886 1.02279 -0.710074 0.0774727
396 1 3.00658 6.09124 4.96304 -0.385443 -1.11843 -0.032869
397 1 5.09947 4.35522 7.27165 -0.0590098 -0.251711 -0.698295
398 1 5.7704 1.33861 8.19689 0.0924004 -0.626183 -0.0199925
399 1 2.22492 4.17868 1.26745 -0.10517 -1.19365 0.821748
400 1 3.90688 6.94413 5.08898 -0.0184907 -0.524088 0.587484
401 1 7.40146 0.265601 4.0665 0.809979 -0.820333 -0.807181
402 1 4.58808 1.74762 3.50545 1.12218 -0.952511 -0.970566
403 1 9.10697 4.39702 0.517446 -0.10722 0.923686 -0.537203
404 1 3.19327 3.82838 5.49424 -0.369839 -0.162446 0.760713
405 1 1.64288 7.87602 0.391973 -0.334468 -0.527743 -1.3616
406 1 6.71873 1.91983 1.33571 -0.439249 0.251907 -0.017517
407 1 3.16878 7.62949 9.328 0.626616 -0.623898 -1.19701
408 1 4.74766 3.18218 4.838 -1.1114 0.486684 0.516481
409 1 8.77813 6.67984 8.96535 -0.7101 2.25895 -0.168185
410 1 9.18279 6.34829 7.10002 -0.458666 0.158323 1.15535
411 1 3.88808 3.1615 6.34664 -0.228951 0.106204 0.719207
412 1 6.92757 7.81077 4.20009 -0.513337 0.197899 0.540521
413 1 2.38811 3.41104 3.18791 -0.161271 0.181489 0.219432
414 1 6.88027 4.01016 6.85554 0.351905 0.357003 0.241423
415 1 5.08749 9.08845 0.752221 0.462284 0.222681 -0.42262
416 1 2.7837 1.27513 0.56512 0.114148 -1.09041 0.65673
417 1 2.33698 5.5599 7.60369 0.482987 0.145009 -0.740744
418 1 6.36188 0.841856 8.63245 -2.23834 -1.49913 -0.508496
419 1 2.73366 1.13872 5.69055 -0.350201 0.221562 -0.468877
420 1 5.3124 7.73868 6.39133 0.529631 0.155168 -0.119135
421 1 2.68381 8.61382 6.43406 0.575347 -0.206141 -0.334319
422 1 8.74752 1.14475 7.12476 -0.036314 0.603115 -0.557244
423 1 3.45207 6.31335 1.57302 0.541287 -0.219768 -0.313872
424 1 5.94918 5.16737 -0.00513483 0.521985 -1.08723 -1.36335
425 1 4.02703 6.20565 4.36948 -0.00430402 -0.779957 -0.768798
426 1 3.37506 5.07374 4.41256 -0.694771 0.370674 -0.0678911
427 1 7.93071 8.32376 5.7195 0.00702391 1.44452 0.907437
428 1 0.987287 0.68537 6.66647 1.37532 -0.214172 -0.403584
429 1 7.74887 5.75844 2.02377 0.923088 -0.00225929 -0.32108
430 1 7.74734 1.91716 0.242513 -0.784471 -0.54653 -0.3847
431 1 1.49591 7.63619 4.07605 0.967026 -0.863299 -1.08522
432 1 0.0126353 5.68736 3.19989 -2.47697 -0.184933 -0.516015
433 1 4.72279 3.47984 6.71872 0.781283 0.296648 1.08963
434 1 6.45703 9.08342 4.98579 -0.926481 -1.20734 0.314955
435 1 4.40557 4.56026 6.36529 0.98325 0.498445 -0.0240163
436 1 2.54321 9.37561 9.0553 -0.0267242 -0.40709 0.320577
437 1 0.165715 3.52083 0.318234 1.21907 -0.725345 0.800573
438 1 1.43212 6.63787 7.74193 0.700347 -0.784371 -1.54644
439 1 4.88599 7.96201 0.994298 -0.0496614 -0.212498 1.44329
440 1 8.45466 4.2396 5.19691 -0.422456 -0.927267 -2.07513
441 1 7.72651 6.94299 0.412806 -0.684917 1.01916 0.742763
442 1 6.9406 5.05911 3.7827 0.502376 2.06079 -0.991118
443 1 5.80695 5.65014 8.30327 0.530964 -0.393274 -0.0478224
444 1 2.27663 5.8506 3.10655 -0.463217 -0.641089 0.793605
445 1 9.29172 8.01516 4.68889 0.167525 1.01829 0.848723
446 1 2.05383 3.2625 6.88494 0.22898 0.555632 -0.821381
447 1 1.19028 7.47262 7.72133 -1.40211 0.622119 -0.726581
448 1 4.15677 8.86383 8.75626 -0.623404 0.279286 1.09775
449 1 7.62855 0.855642 5.4704 0.261706 0.835894 -1.23693
450 1 9.41291 3.14034 5.53227 1.62432 0.404042 0.45587
451 1 2.62417 6.05019 8.5771 0.314054 -1.03353 0.36847
452 1 4.29423 7.8788 1.74743 1.63017 0.136217 1.36062
453 1 2.48619 3.19593 9.10554 -0.911687 -1.65461 0.234017
454 1 6.95804 4.73523 7.63252 -0.207212 -0.853344 0.00977595
455 1 2.35213 3.57672 4.06613 -0.581654 0.100052 0.156803
456 1 9.08297 3.99473 5.99681 0.530439 -0.136989 2.10637
457 1 8.98368 4.84999 5.75793 -0.885562 0.792574 -0.523948
458 1 5.81966 0.462546 5.44528 0.998548 -1.60141 -0.33866
459 1 3.96217 7.12808 0.37749 -0.011083 0.655529 1.41403
460 1 1.63574 4.02314 4.49944 0.395261 -0.183953 0.952931
461 1 8.47541 2.14543 5.47143 -0.423361 -0.768023 1.79496
462 1 6.80113 7.66806 2.17051 1.01597 0.920842 0.567083
463 1 2.11189 5.62873 6.43525 1.21769 -0.578712 0.145884
464 1 5.84001 7.80321 1.6704 -0.634938 0.30217 0.9222
465 1 5.77191 9.3116 2.08329 -0.817367 -0.778457 -0.615718
466 1 6.13057 8.67835 7.52238 1.10989 0.879653 -0.720822
467 1 5.73476 0.288183 3.76624 -0.061201 0.57269 0.2798
468 1 5.4483 2.35034 3.47402 0.823835 0.353705 0.0945062
469 1 7.35855 6.19447 3.93544 0.464404 0.296279 0.42562
470 1 9.19172 3.82539 5.0139 -1.12462 -0.354349 -0.0250976
471 1 5.09695 5.49208 7.68301 -0.0190461 0.633098 -0.721864
472 1 4.88376 8.02906 7.11139 -0.384984 -0.317554 0.96716
473 1 1.53805 0.95314 7.40304 0.386386 -1.23241 0.306119
474 1 8.65649 1.61228 3.86606 -0.267111 -0.239279 1.50778
475 1 4.83896 1.59445 6.82607 0.590738 -0.794464 1.01257
476 1 0.934651 4.77275 4.98759 0.0267637 0.261893 -0.410316
477 1 8.80505 3.33657 1.8145 -1.54878 0.90263 0.223308
478 1 6.22572 9.24303 3.01027 0.64735 1.02368 0.858206
479 1 1.34455 4.33775 8.69912 0.141558 -0.458215 -0.00383205
480 1 0.3069 1.91938 6.86465 -0.0194284 0.245132 1.6195
481 1 1.49936 4.69318 6.09716 0.261329 -0.131828 -0.842273
482 1 5.07907 8.55084 8.59773 0.782013 0.129007 -0.292213
483 1 0.652172 5.32073 2.64894 0.638953 0.127249 -0.87431
484 1 8.80697 0.137789 3.20789 -0.451929 -0.0452425 -0.541529
485 1 5.41072 4.90267 0.748315 -0.280537 -0.257595 0.043435
486 1 1.71417 9.1891 8.72509 -1.17893 -0.269254 -1.16041
487 1 8.97084 8.19397 7.06795 0.118791 -0.510206 0.313525
488 1 3.64463 8.08747 3.17311 -0.166969 -0.0158988 0.152217
489 1 2.98873 3.03237 0.668423 0.380511 0.222086 -0.145361
490 1 3.50564 6.88573 4.12222 0.40728 0.0604343 0.68953
491 1 7.29107 5.06439 4.70456 0.466983 -0.337524 0.843017
492 1 6.94156 2.95382 3.22563 1.75564 -0.458496 0.587723
493 1 3.4214 4.44818 3.02922 0.279397 0.584398 0.900847
494 1 2.49548 6.62285 9.37072 0.559353 -1.59238 -0.549311
495 1 7.38984 4.62389 2.87964 -0.311145 -0.310795 -0.75009
496 1 0.658786 3.38779 8.38303 0.0403118 0.363924 0.582416
497 1 5.05654 0.823138 2.30867 1.29662 0.837381 0.860617
498 1 5.76137 6.00214 9.1545 -0.790641 -0.797622 -0.188381
499 1 9.29758 2.77549 9.01275 -0.653619 1.17165 -0.193951
500 1 6.92218 4.89567 0.931048 0.927321 0.347152 1.90797
501 1 4.1647 6.32822 3.38567 0.701845 -0.564249 0.57505
502 1 7.82832 5.51824 3.40317 -0.725757 0.620584 -0.17291
503 1 3.00852 2.53892 7.27622 0.247811 0.251725 -0.367019
504 1 0.572104 1.77195 2.45905 -2.19738 0.847471 -0.917472
505 1 0.80811 0.277736 8.37184 -0.392646 -0.751626 -0.476814
506 1 1.32758 0.112936 3.95739 0.0971485 -0.171045 -1.05058
507 1 4.75164 3.20455 2.63903 -0.240612 -0.643324 1.6762
508 1 6.98729 3.76531 0.802955 -1.92465 1.15042 -0.0777051
509 1 1.80452 0.296664 5.77533 0.617943 -0.256295 0.106337
510 1 5.893 6.06881 7.44414 1.00609 1.64417 1.34654
511 1 7.47689 2.90536 4.36884 -0.589784 -0.698174 0.396946
512 1 0.513889 6.99958 7.40818 -0.577609 -1.21765 0.14799
513 1 3.51644 8.44227 4.43127 0.254997 -1.75824 -0.931532
514 1 7.86236 7.75939 1.91094 -0.582698 0.468492 0.172082
515 1 2.4137 1.1622 4.81508 -0.0392011 0.00982644 -0.871489