ITEM: TIMESTEP
266850000
ITEM: NUMBER OF ATOMS
1000
ITEM: BOX BOUNDS pp pp pp
0.0000000000000000e+00 9.4000000000000004e+00
0.0000000000000000e+00 9.4000000000000004e+00
0.0000000000000000e+00 9.4000000000000004e+00
ITEM: ATOMS id type x y z vx vy vz
1 1 8.75524 0.817233 5.40177 0.586045 0.111866 -0.924788
2 1 1.60978 7.44769 3.88803 -0.318467 -0.344683 0.913081
3 1 6.55231 6.26851 3.55623 0.282453 -0.46878 0.411087
4 1 9.37235 5.76996 5.57757 -0.382229 0.766102 0.864377
5 1 2.81435 3.81299 8.59703 1.11042 0.494288 -0.434137
6 1 7.33768 8.98247 3.5707 0.30772 -0.350884 1.06021
7 1 6.59283 3.74 2.2054 1.15578 0.473628 -0.593532
8 1 9.15459 5.19172 2.13642 -0.42453 -0.198528 -0.218907
9 1 1.19502 5.39286 2.64591 0.889044 -0.031495 0.616437
10 1 6.30358 6.43811 4.57239 0.17643 0.255611 -0.418127
11 1 9.16977 3.29966 8.14015 0.920778 0.501646 -1.89836
12 1 4.94204 0.0364859 5.60551 0.946394 0.00124569 -0.015182
13 1 4.9975 7.83256 7.61123 0.535612 -0.911289 -0.596106
14 1 0.481662 4.76699 3.65232 -0.382924 -1.68791 0.480959
15 1 1.57211 4.83293 7.97581 0.387744 -0.0762156 -0.249307
16 1 2.92074 2.15242 6.1288 -0.00436708 -0.429213 1.3713
17 1 2.48391 6.84396 6.41811 0.290879 0.523692 -1.13626
18 1 3.45337 6.50229 1.25643 -0.065151 0.0922225 -1.58829
19 1 0.606072 1.60077 1.30214 0.0476753 -1.64131 -0.0306898
20 1 3.22461 3.78521 6.52879 0.971919 1.10628 0.348723
21 1 0.381994 2.66269 8.36729 -0.353008 -0.997211 1.69742
22 1 1.13814 5.32066 3.65161 0.188696 -0.584286 -0.169936
23 1 4.50995 7.74446 0.399284 -0.749181 -0.591669 -1.46268
24 1 5.4086 5.28874 2.33037 -0.686736 0.434646 -0.36871
25 1 6.95336 7.94404 5.06845 1.28873 0.223416 1.64814
26 1 9.08689 8.0605 2.92363 -0.0626623 -0.419985 0.598979
27 1 6.83626 1.06894 8.93548 -0.779651 0.375543 -0.830827
28 1 4.04297 7.83104 8.48524 1.21641 1.116 0.43803
29 1 3.6217 2.64864 9.38142 -1.52652 -0.387136 0.0728098
30 1 4.40719 2.21876 5.23914 -1.05231 0.126352 -1.59148
31 1 2.34198 8.44516 9.02428 -0.526855 0.29699 0.423618
32 1 5.3979 6.74564 2.80925 0.467448 1.19264 0.845788
33 1 8.97272 8.22136 0.771407 -0.203098 0.47379 0.696766
34 1 4.375 7.6399 6.72522 0.0771379 1.33094 0.31316
35 1 4.03866 3.31925 7.0876 0.142495 0.625613 -1.76347
36 1 6.94083 5.12372 0.189043 -1.50932 -0.158878 1.40517
37 1 7.45332 8.06543 3.98156 -1.29171 -0.568063 -0.236886
38 1 6.28236 4.7386 2.81806 1.39526 -0.116797 -0.371008
39 1 0.0384253 5.8916 7.6997 -0.0931722 1.44306 0.601204
40 1 5.96438 9.16984 0.823391 0.415694 0.138529 3.15087e-06
41 1 7.04971 0.433857 7.72195 -0.608742 -0.0430698 0.138913
42 1 7.07841 3.23967 0.0430215 0.48851 0.968323 -0.296048
43 1 7.40339 0.641888 2.11127 -2.01829 0.208255 0.403698
44 1 3.91903 6.97875 4.09199 0.209911 4.34014e-05 -0.594358
45 1 2.77003 5.6398 4.68107 -0.17257 -0.0165009 0.87035
46 1 7.36278 4.48036 6.76334 0.0590741 0.520356 -0.759521
47 1 1.85403 6.82546 5.68273 0.174309 -0.332848 0.604555
48 1 1.16963 3.91676 6.18262 -1.10471 -0.17347 -1.38003
49 1 3.68445 2.98641 6.28163 -0.702002 0.40263 0.377843
50 1 9.21115 1.15601 0.978136 -1.07136 1.57373 0.196312
51 1 8.78214 8.69754 6.87971 -0.468851 0.592976 0.0957813
52 1 4.22523 2.13136 4.11579 0.955168 -0.153261 -0.41797
53 1 8.07677 4.15844 6.00458 1.43963 0.908488 0.0853366
54 1 7.21192 7.58517 2.53221 0.439934 -0.933908 0.558558
55 1 6.12384 7.27387 4.98727 0.149984 0.550303 -0.492483
56 1 3.54434 3.28666 1.87735 0.462599 -0.0102729 -0.0360716
57 1 6.43776 0.280922 6.24696 0.496337 -1.07866 0.155682
58 1 3.73257 4.86678 3.13989 -0.186331 -0.355132 -0.256982
59 1 2.23587 7.93824 2.37783 -0.646293 -0.665013 0.125672
60 1 7.03456 4.01661 1.47776 0.674802 -1.5217 0.242435
61 1 1.13606 0.295599 4.57756 -0.311118 0.345097 -0.508555
62 1 8.67715 7.30356 1.21396 -0.530428 -1.03097 0.290313
63 1 2.75363 2.58508 4.31797 -1.20489 0.283357 -0.0816967
64 1 0.528407 3.50242 1.44134 -1.32094 0.0269941 -0.475031
65 1 6.051 0.55328 0.29917 -0.325341 -0.672337 0.854194
66 1 7.18283 8.92642 4.92099 -0.00600039 -0.0762627 0.45941
67 1 8.09667 1.65323 3.82401 0.72236 -0.387271 0.502802
68 1 0.910539 3.77675 0.532653 1.5222 -1.22064 0.081864
69 1 8.70295 4.97019 3.92227 0.178728 -1.07173 -0.619747
70 1 0.592963 9.29031 3.72041 0.595806 -1.4119 -0.578914
71 1 9.17622 4.78524 4.85392 0.106252 -1.7373 -0.193213
72 1 8.38242 1.06584 1.48724 -1.4515 0.154088 -0.608431
73 1 6.92553 4.09685 0.587792 -0.63558 -0.730294 -0.122891
74 1 6.10851 3.65607 9.39796 0.893977 1.25652 0.703637
75 1 3.79587 1.99674 6.01261 -0.287199 -0.106955 0.159973
76 1 5.77326 3.97031 4.40277 0.773401 -0.198316 1.10875
77 1 2.00546 0.618086 8.28061 1.02027 0.241018 1.06492
78 1 1.37598 5.87468 6.08729 -1.3759 -0.212589 0.380453
79 1 1.28834 2.85405 7.97076 -0.215146 -0.221708 0.591751
80 1 2.12967 4.37715 1.61581 0.341286 0.587727 0.0432652
81 1 4.27531 8.74964 0.782142 0.51208 0.683959 0.779737
82 1 5.48986 6.45546 3.79044 0.606929 -0.191301 0.0731763
83 1 4.58795 4.58909 6.91135 -1.67295 -0.659998 1.29315
84 1 8.48068 6.43125 5.52649 -0.900455 0.156943 -0.932708
85 1 9.21732 8.09124 9.25462 -0.295303 -1.05131 -0.334178
86 1 1.69831 2.93432 7.11219 -0.164506 0.313361 -1.44418
87 1 5.89492 0.985065 1.31694 -0.594015 0.570683 -1.12292
88 1 4.69097 5.95235 5.27608 0.491786 -0.983534 0.125616
89 1 3.93293 2.00012 0.673458 -0.853392 -0.801053 -0.30959
90 1 9.25458 2.72244 1.53986 0.766729 -0.963309 -1.08645
91 1 2.12866 3.92097 5.92282 -0.0330669 0.508893 0.0711786
92 1 0.11195 8.26987 2.18157 0.0975202 0.131701 -0.311911
93 1 2.02957 5.86731 3.33254 0.970716 -0.845222 0.499226
94 1 7.6573 5.31916 9.02996 -0.658673 1.76335 0.617963
95 1 8.0961 2.43947 5.32262 -0.974105 0.343951 -0.519949
96 1 6.31649 7.12019 3.90053 0.141155 0.936262 0.818109
97 1 2.38381 2.74488 1.93059 0.0940121 1.37928 1.29114
98 1 8.70633 7.0416 8.70223 0.0632143 -0.378265 -0.416754
99 1 7.49563 7.07628 7.34355 0.433507 1.04822 -1.07488
100 1 8.58479 3.96542 2.96577 -1.32992 -0.462244 0.0981934
101 1 7.05883 8.6884 7.72035 0.740089 -0.454693 1.13836
102 1 6.31725 5.35342 3.50048 0.0219646 0.539568 0.636606
103 1 3.22074 2.15964 3.68344 0.477179 -0.000116377 -0.786271
104 1 5.8579 3.20564 7.27256 0.223715 -0.717213 0.308778
105 1 8.738 4.97915 1.28995 0.239306 -0.0632648 -0.641383
106 1 0.0220614 3.51769 4.97637 0.292806 0.398199 1.07209
107 1 2.90348 5.64691 1.76214 -0.218842 -0.333444 1.33834
108 1 9.16 1.56317 8.30663 -1.85004 -0.264096 1.69485
109 1 7.80538 5.71096 5.30839 -0.512697 0.346854 0.123564
110 1 1.91739 0.0707556 2.34022 0.0494958 0.361626 0.269624
111 1 0.631703 5.07135 6.84123 -1.48308 -0.397524 -0.797726
112 1 8.66951 5.71018 4.84522 -0.350495 -0.404379 0.673144
113 1 4.53827 3.82047 8.55414 -0.433951 0.910407 -0.733591
114 1 1.66003 1.14792 4.73609 -0.0738889 0.504582 0.280158
115 1 5.70155 1.42948 3.34116 -0.578869 0.805578 -1.01756
116 1 5.1966 7.43199 3.4209 0.287762 1.25313 0.722584
117 1 5.31111 4.43591 2.70314 -0.0280546 -0.546627 0.857986
118 1 9.3699 6.29759 8.48698 0.95543 -0.276807 -0.221989
119 1 7.06246 1.12996 6.12684 0.94784 -0.879911 -0.777519
120 1 9.03264 2.49065 5.08602 -0.0394742 -2.56042 0.0721401
121 1 1.96897 7.66492 1.11757 0.945243 -0.0754204 -0.00398624
122 1 5.06086 6.84204 8.25833 0.968955 0.38228 0.635956
123 1 7.49656 3.51334 2.49018 0.932863 0.908257 0.141504
124 1 0.386678 6.06783 4.78164 -0.585908 1.45471 -1.64636
125 1 5.97892 2.49464 5.67493 -0.063008 1.84083 -1.7018
126 1 6.26567 2.24165 1.68876 1.36217 -0.789919 0.0284408
127 1 0.134008 9.10076 4.51986 -0.289307 -0.301805 -0.470755
128 1 7.98647 8.21652 8.09909 -0.486122 -0.303986 0.746327
129 1 8.85453 5.35917 0.483563 0.749533 1.93326 -0.271575
130 1 4.6817 0.258375 2.44136 0.642273 1.1533 -0.188378
131 1 9.2379 1.30917 4.7273 -0.350145 -0.172518 -0.613119
132 1 6.80142 4.83428 1.02223 -1.67421 0.00159385 -1.20448
133 1 6.62325 1.85096 5.87978 1.01219 0.588639 0.585828
134 1 7.10017 5.00815 8.40378 -0.056953 0.642521 0.711664
135 1 1.8698 2.11975 4.72218 0.0360196 -0.252939 -1.27802
136 1 1.66223 2.74508 3.7667 -0.961505 0.431987 -0.801253
137 1 0.751169 0.38126 6.37602 0.0576329 0.316542 0.787516
138 1 4.91445 4.5517 1.59594 0.837281 0.289242 0.391496
139 1 3.85831 8.62891 4.72475 1.34499 0.49471 0.495105
140 1 5.05408 5.33438 5.97844 -1.54988 -0.918788 -0.424665
141 1 6.18621 2.42735 6.57733 -0.686271 0.255386 1.16737
142 1 3.2641 3.03423 8.74373 0.580252 -0.162589 -1.30399
143 1 1.77573 7.03784 8.36938 -0.509526 0.303455 0.771825
144 1 1.85085 7.7379 0.196704 -0.862893 0.501147 0.981269
145 1 2.59043 2.26901 0.890601 -0.0149678 0.102227 0.566579
146 1 5.92643 0.123085 7.09297 -0.84118 0.210598 0.227475
147 1 7.39514 6.45485 3.76685 -0.435632 -1.334 -0.719809
148 1 3.51136 6.53112 7.80885 -1.83254 1.11138 1.77255
149 1 3.52499 6.20531 5.06256 0.398043 -1.11787 -0.308042
150 1 7.70096 7.17263 9.39072 0.426083 0.293456 -0.350694
151 1 6.46804 4.64178 4.11934 -0.763854 1.60945 0.829505
152 1 3.55127 1.2225 8.13707 -0.437002 -0.14766 1.56271
153 1 6.69523 3.61448 4.44056 0.0625847 0.126201 -0.0158186
154 1 5.28011 3.39397 2.78727 0.212668 1.07917 -0.912457
155 1 7.48732 8.57122 0.779791 0.0861743 0.661251 1.9853
156 1 2.21345 5.91105 7.65453 -0.931987 -0.365296 -0.649284
157 1 3.20896 8.12904 9.06877 0.358379 0.074853 -0.130612
158 1 4.93348 3.455 1.90361 -0.494003 -0.0123818 1.20805
159 1 1.91355 8.59622 0.432505 -0.401196 -0.849164 -0.532161
160 1 3.1673 5.67722 8.34394 -0.158036 -0.0415595 -0.646061
161 1 8.10104 7.94279 0.544868 -0.274032 -0.369045 0.0547383
162 1 4.11856 5.92055 4.31537 -0.372333 -0.71544 -0.879232
163 1 5.2354 0.518229 0.781431 0.400655 0.671795 0.378515
164 1 3.69619 1.5091 5.25425 0.693153 1.4376 -0.587116
165 1 7.81311 9.37604 8.45139 0.0210723 0.809913 -0.718078
166 1 4.19412 1.28559 1.77232 0.185024 -0.957923 0.219145
167 1 7.39748 6.97626 6.30345 0.233035 -0.336504 0.655477
168 1 5.80583 0.817413 2.25685 -0.603872 -0.0311273 0.0452755
169 1 8.73663 7.40299 2.10049 -0.770887 -0.0636296 0.861993
170 1 2.68936 1.18784 8.75932 -0.314745 0.704285 0.44818
171 1 2.46819 8.76099 6.69023 -0.0171224 -1.14192 -0.478734
172 1 8.13469 2.69632 1.76673 0.958899 -0.633721 -1.43914
173 1 2.46244 2.92477 9.17082 0.169527 0.32599 0.0354032
174 1 1.6925 5.49321 5.35313 0.672307 -0.180811 -0.606937
175 1 8.41627 3.2053 2.54701 1.04467 -0.401648 0.603819
176 1 2.91117 0.2587 8.17914 -0.893776 0.274099 0.618557
177 1 5.2401 0.768206 5.21864 -0.516806 -0.655828 -0.348061
178 1 3.56883 5.30607 4.98851 -0.643901 0.339699 -0.44748
179 1 4.84625 9.32655 6.54012 0.973229 0.413604 0.370368
180 1 2.86241 6.82657 8.82836 0.423126 -0.225451 -0.470733
181 1 4.61506 3.44458 6.21393 0.385446 -0.790882 -0.88914
182 1 6.10624 0.182715 8.18081 1.60288 0.11669 -1.70085
183 1 5.74394 9.22635 9.21431 0.658403 -0.843041 1.64213
184 1 6.4058 1.40283 7.37837 0.883557 -0.489042 0.946879
185 1 9.01758 0.510368 4.50539 0.0435488 -0.77307 -0.746463
186 1 5.6168 0.968056 7.38328 -0.441284 -0.626019 -0.610675
187 1 5.63448 9.38527 6.12957 0.226501 0.630818 0.279106
188 1 3.48301 7.07074 1.9532 -1.11815 0.00420796 0.217405
189 1 7.63599 8.7407 9.29829 0.314488 -1.34498 0.117484
190 1 8.54821 4.03311 0.395725 1.22654 -1.08764 -1.24445
191 1 7.50794 1.33882 7.82756 0.192917 1.1284 0.719411
192 1 2.81827 4.81769 2.83794 -0.644985 0.506072 1.00473
193 1 3.17001 4.7297 1.73737 0.718712 -0.0672431 -0.854837
194 1 1.95317 6.87669 3.15012 1.1957 -0.927668 -0.54122
195 1 5.9685 6.04096 2.86309 0.236185 0.210151 -0.498841
196 1 1.53532 2.40122 8.7796 0.101879 -0.184826 -0.0934971
197 1 0.886742 7.89844 8.2277 -0.454226 1.94751 -1.29934
198 1 6.61404 2.8711 2.96181 0.0126787 1.205 -0.582172
199 1 8.29732 7.03869 7.68547 -0.342065 -0.608597 -0.748829
200 1 6.49067 5.67254 0.965926 0.844461 -0.976502 -0.825727
201 1 5.85055 8.02471 5.75001 0.179159 0.487104 0.396346
202 1 4.37678 7.60159 4.80006 0.239883 0.762951 -0.259708
203 1 3.42606 4.89089 6.61589 1.89911 0.759682 -0.13624
204 1 3.85779 5.07365 7.44479 0.918722 -0.0763429 -0.451137
205 1 3.20328 5.44117 0.864716 -0.0894269 -0.836541 -0.40689
206 1 2.76211 6.97143 5.46381 1.12383 -1.011 0.419456
207 1 5.86522 7.67536 7.3343 1.18175 0.258745 -0.0153763
208 1 6.96589 6.8546 5.28552 -0.426371 -0.954213 -0.701751
209 1 1.24158 8.45447 5.50838 0.208467 0.632772 0.333184
210 1 6.79962 3.77316 3.44228 -0.79387 0.82264 -0.297578
211 1 0.942974 3.56039 5.00263 0.53777 1.08094 1.63289
212 1 0.0416546 4.15093 0.712627 -0.641556 -0.420773 -0.649734
213 1 6.78462 8.90352 0.333353 0.0713782 -1.0504 -1.28002
214 1 4.03746 1.11206 0.821381 0.264914 0.0371311 -0.45502
215 1 2.82726 4.06897 1.13732 0.874533 0.203748 0.266449
216 1 5.32593 5.4678 3.29434 -0.317447 -0.767604 -1.66661
217 1 4.39026 6.62378 6.86901 -0.12692 0.715896 -0.829818
218 1 4.29832 5.02715 0.830727 -0.91854 0.383022 1.23457
219 1 8.51492 3.31339 5.359 -0.0780397 0.305268 0.0197336
220 1 6.70428 6.76587 2.01754 1.11362 0.409497 0.190647
221 1 3.44549 6.8819 6.95719 -0.0435894 -0.64289 -0.834642
222 1 4.81011 5.5778 3.98937 0.173691 0.778859 -0.627852
223 1 4.96125 8.40635 3.30001 0.0591459 -0.0354205 0.066011
224 1 5.196 2.88651 8.86273 -0.197821 -1.28023 -0.615921
225 1 4.11354 1.89622 8.41259 -0.447606 -0.128883 -0.659293
226 1 5.71205 8.62725 2.85347 -0.515819 -1.12208 0.143451
227 1 2.8081 7.98077 7.75928 0.36725 -1.88096 0.239669
228 1 8.35088 6.26353 0.0720594 -0.469944 -0.597455 -0.32488
229 1 2.7573 1.46743 4.1698 -0.530392 1.38263 0.594996
230 1 8.81395 5.65894 3.06761 -0.407931 0.374645 -0.429048
231 1 6.44101 4.58842 5.18318 -1.08327 -1.85207 0.0326629
232 1 8.6366 8.11186 6.15913 -0.0514176 0.218127 -0.439828
233 1 3.3666 9.08347 6.35262 -1.31053 0.241605 -0.0393606
234 1 8.5657 8.97386 8.74474 1.97301 -0.585869 -1.15526
235 1 4.12062 0.855853 9.03508 1.49541 1.35438 -0.0361878
236 1 2.43307 3.24156 7.61847 -0.0757366 0.159087 0.646919
237 1 7.45659 1.65639 5.52169 1.13153 -1.30513 0.422593
238 1 1.34641 2.8021 4.65177 -0.467047 -0.860151 -0.567244
239 1 6.61001 1.30277 2.00226 -0.95024 -1.04227 -1.49362
240 1 4.83654 2.99026 3.40028 -0.383469 -1.13466 0.661346
241 1 1.64325 3.08605 6.11764 -0.217332 0.222662 0.17284
242 1 1.84761 6.1348 6.87461 -0.655057 -0.580345 0.0120927
243 1 7.37223 4.53021 2.30891 0.246483 0.42298 0.569956
244 1 1.40572 4.59457 5.3527 -1.87037 -0.40413 0.160564
245 1 1.91281 8.03601 8.06481 -0.105903 -0.536205 -0.31304
246 1 8.25973 4.4708 2.18652 -0.303736 -1.80086 1.18341
247 1 4.71744 4.58551 3.63093 -0.150234 0.615365 -0.491675
248 1 8.99809 1.19101 6.50326 -0.807015 -0.0200509 1.29853
249 1 7.90278 3.11979 5.97248 0.331929 0.217524 -0.491325
250 1 6.41432 8.71164 5.38173 1.29481 -0.462932 -1.00367
251 1 1.28263 8.69934 4.59484 0.0690111 0.94295 -0.672841
252 1 2.79546 3.95291 2.14867 -0.653554 1.99108 -0.140509
253 1 6.09 4.72815 0.24364 -0.509844 1.83989 -0.221247
254 1 7.64301 2.40622 3.3852 -0.351184 0.771667 -0.291131
255 1 5.0022 2.24705 8.32282 0.643055 0.746301 0.461138
256 1 9.06839 8.92134 0.127397 -0.667744 -0.325399 -0.720553
257 1 8.17089 6.82428 3.93023 0.781446 -0.635979 0.142852
258 1 3.26237 2.03162 8.78999 -0.400163 -1.81475 -1.0169
259 1 2.98909 5.46271 3.70008 0.746404 -2.56048 0.589775
260 1 1.71486 7.85282 6.06056 -0.561086 0.43794 0.00182682
261 1 2.13593 2.50309 6.44152 -0.838063 0.184903 0.466982
262 1 6.98117 2.91146 3.75851 -0.11635 1.02337 0.897558
263 1 5.9728 8.30531 6.59092 1.2235 0.683704 -0.539102
264 1 3.21935 2.9094 7.09428 -1.35356 0.284866 0.0767567
265 1 1.17486 0.578188 9.36169 -0.0517982 0.177041 -0.669648
266 1 4.06211 8.41796 3.40365 -0.153662 -0.375688 0.482273
267 1 4.17179 5.78816 8.61755 0.229436 0.377061 -1.50526
268 1 0.334747 1.74093 6.5994 -0.881969 -0.134636 0.392106
269 1 4.96421 7.46272 2.03597 0.969936 -1.10735 -0.313771
270 1 4.87928 6.44849 1.69712 0.758292 0.952414 0.0979184
271 1 9.00241 1.67356 5.83371 -0.0366553 -0.921358 0.255509
272 1 7.7321 7.11209 1.80291 -0.733737 0.570863 -0.546465
273 1 2.78947 8.73419 8.33181 0.055267 0.573732 -0.635125
274 1 2.65743 7.23758 3.69766 -0.0326291 1.36729 0.723361
275 1 2.61264 8.6991 2.18961 -0.321371 -0.0246545 -0.458362
276 1 6.84468 0.204852 8.93471 -1.00806 1.0818 -0.385277
277 1 4.4333 0.17781 0.71745 -0.804041 0.188006 0.749193
278 1 2.562 3.26232 4.82474 0.805908 -0.394671 -0.189493
279 1 1.32884 4.04538 1.27672 0.271131 0.261592 -1.57266
280 1 2.34147 3.27832 3.5966 -0.408587 -0.762567 1.29321
281 1 0.181211 3.0468 2.95329 -0.000314602 1.20597 1.30555
282 1 7.10834 4.77284 5.73131 -0.480589 0.0121673 -1.15245
283 1 0.43072 3.72061 9.07241 -0.380977 -0.0301413 -0.361181
284 1 4.21712 7.02468 1.47543 0.00182717 0.758831 0.736285
285 1 8.338 8.19389 9.11896 -0.191838 1.09164 -0.359276
286 1 1.95363 5.36111 8.7181 1.37906 -1.39157 -0.637992
287 1 7.85597 5.33098 4.52054 -0.075557 -0.440827 0.304007
288 1 5.43871 6.35845 4.78512 -0.403035 -0.528889 -0.640974
289 1 7.07739 8.80452 6.08926 -0.24486 -0.423181 -0.167951
290 1 5.69568 3.02128 1.68796 1.91553 -0.728916 1.12021
291 1 1.57651 4.53278 0.131849 -0.482759 0.933747 -0.134035
292 1 7.11495 3.12627 1.52214 -0.559637 -0.481018 -0.336272
293 1 4.6459 5.03039 2.85155 0.244001 0.496816 0.331133
294 1 1.88251 9.22231 8.72953 0.863492 -0.278362 0.471157
295 1 5.92576 2.97271 8.23188 -0.284498 0.335064 0.645135
296 1 5.99093 5.20135 8.81616 1.67074 0.283619 -0.319775
297 1 1.82179 2.14967 7.80407 -1.06271 -0.859472 0.0475283
298 1 2.32035 1.98144 8.96655 0.294114 0.947559 -0.501227
299 1 4.98853 3.20569 7.91207 0.516074 -0.124987 0.276478
300 1 4.74777 1.44285 3.38938 2.32475 0.3573 -1.15697
301 1 6.98946 6.22099 7.03563 0.354759 -0.233875 0.0206902
302 1 8.44702 2.4082 4.31383 0.231219 -0.361332 0.169161
303 1 3.66879 0.891129 4.43253 0.468449 0.088511 -0.47052
304 1 2.23779 4.97035 4.81003 0.442046 1.36402 0.280504
305 1 7.42289 6.34579 4.63641 -0.209616 -0.066172 0.0727663
306 1 3.34504 5.94957 7.09041 -0.783175 0.569971 0.576505
307 1 2.28682 9.13485 4.04295 -1.21696 0.665822 -0.138305
308 1 1.24657 8.98716 0.0974164 0.599996 0.138334 0.681608
309 1 3.26548 0.492975 8.89084 0.273191 0.946899 0.326864
310 1 6.31451 1.12788 8.24883 1.18767 -0.447549 0.448567
311 1 5.04941 2.25372 2.9717 -1.30174 -1.5926 -0.674205
312 1 8.97155 8.78493 1.61093 0.336082 0.526298 -0.75714
313 1 1.18317 8.40748 1.10412 1.85647 -0.154403 1.40463
314 1 7.63003 3.52939 3.70253 -0.312977 0.0242038 0.0135424
315 1 5.81395 5.62566 1.47531 0.229521 -0.562835 -1.02134
316 1 1.6619 0.411425 6.30627 1.0308 -1.40201 -0.00110562
317 1 3.26089 8.27703 1.5281 0.430652 -0.559088 -1.53574
318 1 5.34408 1.90787 5.06492 -0.854892 0.200639 -0.0992723
319 1 1.19476 0.656005 3.64406 0.983399 0.2319 -0.673861
320 1 5.28051 2.48825 6.19775 -0.723575 0.150776 -0.209873
321 1 6.31788 7.56166 2.16772 -0.0976197 1.98978 -0.169476
322 1 0.773151 2.86814 2.15381 -0.039002 -0.0942091 0.232605
323 1 7.82658 8.56891 6.57523 0.0964796 -0.467127 -0.433392
324 1 1.9847 0.853922 2.95435 -1.77831 -0.750071 0.23174
325 1 3.16615 5.69422 6.25403 -0.778334 0.621654 0.227474
326 1 3.02226 6.87428 0.486655 0.269572 -0.647303 -1.742
327 1 2.06486 7.87194 3.25826 0.443618 -1.45121 0.216577
328 1 3.15686 8.64007 4.17183 -0.297933 0.169928 -1.3646
329 1 3.69755 7.85323 4.32666 -0.0512871 -1.74525 -0.495533
330 1 5.96717 1.66261 0.314528 0.0565381 -0.184994 -2.23045
331 1 7.1201 3.04728 8.32981 -1.41849 0.284246 1.38127
332 1 0.542304 1.05861 4.26031 0.141449 -1.18387 -0.255838
333 1 8.45927 3.83775 4.63893 -0.576777 -0.422087 0.15854
334 1 3.67641 5.2602 9.2639 -0.251825 -0.312597 0.388141
335 1 8.02547 4.4347 3.8492 0.402432 1.26847 0.139205
336 1 4.16227 5.07507 1.99958 0.0691887 0.0269929 1.63419
337 1 7.82239 6.06613 7.41657 1.21118 0.0029593 1.32081
338 1 0.940205 2.52927 1.28665 0.810806 -1.07358 0.0224515
339 1 7.91127 6.77853 0.920443 -0.188098 -0.108017 -0.108645
340 1 6.78496 0.419396 4.45529 0.19978 1.25445 1.24632
341 1 2.74613 5.69482 9.37025 -0.394428 0.0685482 0.536915
342 1 4.94855 5.42855 1.45347 -0.871139 1.5368 0.510321
343 1 8.34968 3.97036 7.30132 -1.43892 0.278347 1.29479
344 1 7.88158 2.17572 0.12643 0.801166 0.631343 -1.76494
345 1 2.49323 4.73859 6.43939 -0.42296 -0.219104 -0.986287
346 1 8.21503 5.88978 1.10429 -0.161303 -0.0152507 -0.176898
347 1 3.64529 9.20662 2.37121 -0.919179 -0.131441 -1.38564
348 1 0.329018 3.92641 6.70618 0.714296 -0.0416653 -1.57418
349 1 7.71491 5.36412 3.66673 -0.0700349 -0.187844 -0.377532
350 1 6.1512 0.124811 5.17034 -0.582763 -0.507781 -0.72857
351 1 6.50463 5.93934 1.85463 -0.0471929 -0.930785 -0.0373135
352 1 7.37635 1.06725 1.18367 -1.18849 -1.17387 0.875788
353 1 8.22358 8.55909 3.83244 0.379484 -1.54144 0.220531
354 1 5.13216 0.845244 6.26883 0.478614 0.896628 0.430775
355 1 5.16772 6.98787 7.22685 1.17733 -0.913313 0.303624
356 1 3.32249 8.42193 5.74319 -1.85261 0.894155 0.500836
357 1 0.0908001 6.97144 9.17899 -0.727769 -0.517406 1.47255
358 1 5.15204 8.55481 6.07568 -0.526938 -0.399099 0.229198
359 1 5.47194 7.4893 0.304377 0.0124155 0.646268 -0.246048
360 1 9.34358 7.15706 6.72093 -1.14825 0.0198556 -0.906925
361 1 0.0852765 7.14405 1.80751 0.315523 0.0640866 0.61623
362 1 5.96485 2.56242 9.38036 -0.79959 0.401735 -0.0966599
363 1 8.67933 3.60373 6.48842 0.951694 0.251967 -0.733061
364 1 8.63827 2.20833 3.43413 -0.0359899 -0.712633 -1.28177
365 1 8.55011 9.00545 4.62567 -0.842419 0.316716 0.720188
366 1 5.15171 3.86842 1.06604 0.774231 -0.314936 -0.513768
367 1 7.65315 8.28367 2.99332 0.768357 -1.08481 -0.688886
368 1 6.24668 6.96915 3.06759 -0.785616 0.541061 -0.283244
369 1 6.28329 1.78949 5.12105 0.480419 0.801624 1.33996
370 1 4.99161 6.08763 0.722707 -0.197206 -0.601001 -0.98083
371 1 5.96331 5.6389 4.31318 -0.26489 -0.00944624 0.95673
372 1 8.52357 5.98589 8.02994 1.48556 0.0832431 0.611034
373 1 0.574469 1.28115 0.194635 -0.461128 0.00869183 -1.29324
374 1 7.85005 2.56901 6.83026 0.338977 0.000667112 -0.205004
375 1 7.43032 4.36132 4.7621 -0.37262 0.593935 -0.0796683
376 1 6.55602 8.9095 3.10088 1.2103 -1.08103 0.952979
377 1 3.99575 5.28001 5.99755 0.504952 0.12594 0.275645
378 1 2.50984 4.16056 4.02143 0.845957 0.701448 0.675766
379 1 7.71636 3.60187 0.780729 -0.353303 1.28901 0.497777
380 1 3.48987 1.66286 2.19798 -0.117183 0.0997385 0.997955
381 1 0.36153 8.85971 0.888132 -0.876139 -0.872112 0.039823
382 1 7.07786 0.251545 3.06539 -0.107075 -1.43896 -0.319946
383 1 7.36329 5.98195 2.15315 -0.278254 -0.287612 0.924497
384 1 6.03924 6.50294 0.877815 -1.55399 1.20642 -0.324979
385 1 0.206993 4.82365 1.46183 -0.310049 1.28474 -1.1879
386 1 6.21229 5.11241 5.96136 0.877472 0.119624 0.0623821
387 1 4.23817 1.71407 7.35238 0.310626 -0.473023 -0.0886541
388 1 0.5161 4.30422 4.75536 -0.252883 0.763693 0.508033
389 1 4.74006 9.2351 3.43085 2.17003 -0.813836 0.12362
390 1 6.69163 4.98123 1.96529 0.480435 0.0936362 0.335293
391 1 4.47801 6.00733 7.71493 -1.26278 -1.33039 1.21754
392 1 6.3972 5.38841 7.74298 0.626358 -0.276949 -0.351792
393 1 8.39938 1.71593 4.92121 -0.433285 0.870304 0.292458
394 1 5.99856 3.32648 3.71332 -0.204382 -0.502957 -0.555288
395 1 6.8689 5.46528 5.29178 0.00152797 -0.322137 0.184753
396 1 5.6979 3.8612 8.30941 0.0777047 -0.331728 1.76056
397 1 6.70613 3.75126 6.9637 -0.736665 0.313143 -0.815288
398 1 1.86908 8.36035 1.71874 0.721052 -0.0514324 -1.1454
399 1 3.44026 7.86127 6.78299 -1.18703 -0.903259 -0.572613
400 1 3.50975 0.134047 4.80548 -0.812749 0.901051 -0.74244
401 1 0.929259 3.63782 2.83173 0.428261 1.05049 0.809275
402 1 5.25833 2.56503 4.20324 1.05333 -0.899317 0.0536215
403 1 0.883588 8.72487 1.92819 -0.0871858 0.330169 -0.224072
404 1 6.58201 7.47845 8.85706 -0.679772 0.909331 -0.287976
405 1 0.548916 1.41412 3.3273 -1.13407 0.356541 -0.266267
406 1 3.45899 7.31126 6.01579 -1.55252 0.894034 0.00596015
407 1 5.7112 2.5843 2.49359 -0.058462 -1.41174 1.10921
408 1 0.610195 4.71375 8.64751 0.410265 -1.68857 -0.424164
409 1 0.988361 5.87112 1.89404 1.07103 -1.29402 0.597692
410 1 4.78607 5.22639 8.24569 -0.335576 1.11123 0.131798
411 1 0.764284 8.76955 2.91041 -0.040261 -0.0268052 -0.347842
412 1 1.71127 7.46743 5.06273 0.403724 1.40716 -0.307643
413 1 4.32474 0.722758 5.64386 0.19931 -0.185242 1.64481
414 1 4.29338 7.31158 7.57343 -1.40655 0.025934 -0.530187
415 1 4.60704 6.62058 3.41621 0.162407 0.11299 0.711916
416 1 1.4318 1.79195 0.0805715 0.102844 -0.443763 -0.404967
417 1 2.99898 0.0937049 1.6288 0.607706 1.246 -1.11629
418 1 9.23709 1.73293 0.127471 0.840653 0.788015 0.75364
419 1 7.50108 3.69268 5.27997 -0.395571 0.587046 0.509782
420 1 3.5877 4.10402 2.52843 -0.0333717 0.995953 0.702496
421 1 3.27153 7.85624 2.49621 0.967913 -0.68399 -1.03326
422 1 7.23143 1.48262 3.38385 1.12841 -0.797911 0.375891
423 1 9.11707 8.26552 4.05916 0.194441 -0.996155 -0.0696258
424 1 8.33432 6.99052 6.27667 0.179898 -0.120885 1.38412
425 1 3.74621 2.83511 4.52487 -1.18992 -0.568828 0.196652
426 1 6.60216 2.18461 4.35213 -1.27085 0.64603 0.260268
427 1 1.60634 7.10973 6.55897 1.26513 0.618662 0.122066
428 1 1.88788 5.70052 4.26623 -0.637765 0.137889 0.983275
429 1 7.72723 7.26949 5.453 -1.34019 -0.423352 -0.73252
430 1 7.9599 0.180782 5.20227 0.0692555 0.385079 0.267583
431 1 3.56503 7.21111 9.23745 0.677945 -0.441393 1.12877
432 1 3.37679 1.32655 0.143985 -0.0733286 0.879232 0.637959
433 1 2.41425 1.56544 7.96551 1.12705 1.68752 -0.159338
434 1 0.0667342 3.37512 5.92187 -0.888154 0.804089 -0.0559798
435 1 2.78878 7.08253 2.7112 0.203169 0.391006 0.577728
436 1 5.54473 8.55553 8.66239 0.56791 1.48552 0.988681
437 1 9.32372 4.34133 2.46915 -0.832855 0.228739 -0.90824
438 1 5.13801 7.02449 1.08191 0.32135 0.640706 -0.159923
439 1 1.10608 8.21794 6.84906 -1.50062 -2.14729 0.0469397
440 1 4.94516 3.61219 7.03523 -2.28477 0.729291 -0.53902
441 1 2.90494 1.14517 5.06578 -1.3318 1.42553 0.185838
442 1 9.36118 0.516494 3.73403 0.0827749 0.630901 -1.903
443 1 3.79993 6.21401 2.01094 -0.428837 0.651898 0.00589425
444 1 2.28816 7.446 7.21354 -0.0466295 -0.336942 0.0813324
445 1 3.35762 2.81439 0.858754 1.05249 0.709574 0.114371
446 1 3.70424 4.35818 0.877908 -1.61291 -0.406737 0.402689
447 1 5.87686 0.0374006 1.98271 0.584999 0.981671 -0.170543
448 1 1.78422 1.34616 8.71389 0.612926 -0.925088 0.673374
449 1 2.19725 3.97028 3.02289 0.44055 -0.865633 -0.964074
450 1 6.94306 2.36556 7.21201 0.292483 0.375421 0.331718
451 1 0.555315 8.40825 3.91105 -0.120661 0.148241 0.0633742
452 1 9.34791 9.21617 8.48348 -0.194738 -0.0905019 0.816305
453 1 0.942456 7.81943 2.14838 -0.359358 0.117671 1.25956
454 1 0.600269 3.85219 8.27408 1.46459 1.28779 -0.17781
455 1 6.12259 4.00001 1.15048 1.00382 0.222064 -0.181144
456 1 4.58878 6.88161 2.65575 1.10304 0.370633 -0.108648
457 1 0.0289719 5.31919 9.23202 0.659187 -0.30694 1.66301
458 1 3.61835 3.904 5.32899 -0.488039 0.657712 -0.747122
459 1 5.01373 2.88825 1.12644 -0.580762 -0.688228 0.701672
460 1 4.50473 4.19794 2.67541 0.325616 -0.390209 0.772476
461 1 7.52245 1.29595 0.204935 0.365949 -0.844683 0.883901
462 1 5.72705 4.51072 3.54765 0.158842 0.574761 0.988426
463 1 5.73052 0.113508 2.85196 -0.455783 0.443286 0.222207
464 1 1.69478 1.85641 2.82087 0.792888 0.0313668 -0.662028
465 1 7.45401 1.70575 6.57853 -0.0399003 -0.680192 0.189114
466 1 4.39429 7.64398 3.06458 2.19918 -0.462574 -0.764702
467 1 7.22755 0.318367 5.92079 -0.317871 0.889163 -0.100906
468 1 2.48586 3.22237 0.783413 -1.11188 0.791548 0.249657
469 1 5.52961 8.02623 4.52753 0.0829092 -1.28312 -0.448044
470 1 0.0722189 7.5742 5.65937 -0.577635 -0.64057 0.631192
471 1 0.884613 3.59789 3.69694 0.304468 -0.962432 0.959781
472 1 4.41052 6.71078 4.91714 0.692865 -1.27201 1.21356
473 1 2.39836 1.9067 5.43095 0.26569 0.0640993 0.362988
474 1 0.133569 6.34433 3.12108 -1.46687 0.53856 -0.529309
475 1 6.56946 8.36826 1.0319 -0.432183 -0.139405 1.49946
476 1 5.12458 8.56283 2.11043 -0.643299 -1.61069 -0.178096
477 1 5.27272 8.57419 0.758887 0.938711 0.796082 0.56813
478 1 3.33719 8.82184 7.27007 -0.905729 0.4983 -0.0673496
479 1 6.3679 1.26109 3.8902 0.650997 -0.0684061 1.32255
480 1 0.53362 1.89444 8.89805 0.676013 -0.708546 2.15253
481 1 3.72917 6.64161 2.76721 -0.741721 0.406558 -0.702058
482 1 1.39102 1.28522 7.91928 -0.429723 0.154947 -0.00293733
483 1 5.32663 9.09477 7.86008 1.70638 0.99817 -1.92518
484 1 1.94206 6.5113 3.93111 0.389633 0.118581 -0.619477
485 1 4.42842 9.04299 7.5249 0.59448 1.77594 1.05837
486 1 2.9015 3.23222 5.83513 0.0430797 -0.567521 0.42503
487 1 9.03623 1.34945 3.84925 0.641376 0.826178 -2.0829
488 1 6.54002 0.393004 1.37022 -1.87421 -1.70074 -0.963024
489 1 6.22078 1.13576 6.53335 0.599877 -1.793 0.364342
490 1 7.91255 8.14053 4.78283 -1.45196 0.650486 0.604564
491 1 0.63449 6.11399 0.501885 0.151935 -0.105556 0.11692
492 1 9.23886 5.04794 6.18025 0.689877 -0.423575 -0.0393303
493 1 1.06919 7.51633 1.13966 -0.272059 0.642785 0.798294
494 1 3.71973 2.22178 6.8468 -0.741861 -1.30069 0.8891
495 1 8.41266 7.68939 4.15936 0.4417 -0.285134 0.754587
496 1 2.59364 1.66404 1.99616 -0.228395 0.15241 0.313808
497 1 7.28356 4.27942 7.62976 -0.836703 -1.19385 0.831197
498 1 8.52647 1.99966 8.95637 0.584143 -0.160057 -0.888409
499 1 1.50418 6.90142 0.578458 0.395823 1.44561 -0.498134
500 1 0.119478 2.66899 6.48015 -0.21664 0.524219 0.167214
501 1 1.65864 3.85369 6.94606 0.801183 -0.318929 -0.744291
502 1 0.496932 2.76814 4.7305 -0.906181 -0.595722 -0.0883296
503 1 7.17929 1.37093 4.36381 -0.619968 -0.611959 -0.15441
504 1 8.20268 2.22523 2.6376 0.485573 -0.961404 -0.590324
505 1 1.75523 3.81494 5.04278 -0.688392 1.13995 -0.343045
506 1 0.736065 2.88655 5.55594 0.221178 0.76845 1.21594
507 1 1.72912 9.26438 1.451 -0.908092 -0.448759 1.24382
508 1 0.805693 6.90265 8.19441 0.592294 0.555213 1.13387
509 1 7.75339 0.806013 6.74211 -0.0357153 -0.0960482 -0.906388
510 1 9.02381 3.07225 4.17468 -0.549155 -1.93668 0.610445
511 1 0.344173 1.04637 1.99679 0.204993 0.782541 -0.590912
512 1 6.59119 1.91124 2.8536 -0.354953 -0.444957 0.126591
513 1 8.47768 2.61969 0.975862 -0.597381 -0.0858657 1.06831
514 1 9.21434 2.53098 8.92463 1.94121 1.19174 0.159878
515 1 2.69406 2.3493 2.69606 0.190662 1.0402 -0.327207