ITEM: TIMESTEP
143050000
ITEM: NUMBER OF ATOMS
1000
ITEM: BOX BOUNDS pp pp pp
0.0000000000000000e+00 9.4000000000000004e+00
0.0000000000000000e+00 9.4000000000000004e+00
0.0000000000000000e+00 9.4000000000000004e+00
ITEM: ATOMS id type x y z vx vy vz
1 1 0.210911 4.77266 4.72905 -0.153091 0.436612 1.20034
2 1 6.76055 8.64613 5.04934 0.136715 -0.256339 -0.213024
3 1 0.565555 2.07157 8.72062 -0.294387 0.443656 -0.563263
4 1 0.711188 6.61189 8.38176 -0.821284 -0.443666 0.958299
5 1 1.83822 1.17338 4.5001 0.293048 1.33221 -0.950189
6 1 4.73469 3.88847 6.24176 -0.660821 -0.8261 0.229737
7 1 3.77451 5.6679 4.73906 0.0198598 -0.771607 -1.13354
8 1 3.16841 2.66693 4.33857 1.77241 -1.49694 0.308423
9 1 6.52639 7.75296 7.26787 0.310983 -0.0488055 -0.190723
10 1 6.10042 3.98877 0.924488 0.437597 1.04509 -0.499403
11 1 7.14607 6.69353 3.23288 0.219587 -0.0875591 -0.666563
12 1 7.08624 6.88386 9.13896 -0.708618 -1.96271 -1.29477
13 1 9.15457 6.91701 6.64731 -0.360249 0.0783945 -0.833439
14 1 7.60939 0.594759 7.69553 0.648572 0.50207 0.896731
15 1 6.37971 0.783211 7.74052 -0.782653 -0.0689868 1.20003
16 1 2.34943 4.2895 5.22158 0.776932 0.240161 -0.151878
17 1 6.90252 9.32503 4.06322 0.648026 0.151283 -0.703958
18 1 8.17973 6.90557 0.647877 1.1188 0.984204 -0.0313875
19 1 6.24848 5.83634 0.366772 -0.318429 1.04896 -0.956884
20 1 0.667658 4.73358 3.52266 -0.840414 -0.499867 -0.105134
21 1 0.198975 8.5885 4.50198 -1.0488 -0.0233456 -0.431933
22 1 8.78934 5.3234 2.49229 -1.80656 -0.602375 -0.0757784
23 1 3.51258 2.84 5.97387 -0.125519 -0.36443 -0.246906
24 1 6.40215 5.9605 7.97254 -0.293844 0.676703 -0.153055
25 1 2.1462 7.50392 8.67757 0.783461 -0.649136 -1.5684
26 1 0.343746 0.186994 5.8539 0.859202 0.341734 0.583208
27 1 2.61555 6.40586 6.47411 -0.696218 -0.497434 -0.96645
28 1 6.56528 8.7972 6.62283 0.826453 0.61486 -1.44243
29 1 4.86821 7.49971 4.08401 0.361429 -0.326151 -0.203909
30 1 5.63283 1.59965 1.6983 -0.0843088 0.689919 -0.481781
31 1 5.78304 1.11333 0.924279 -1.47499 1.37408 1.08115
32 1 8.54106 9.32588 2.28415 -1.03232 1.6196 -0.118467
33 1 8.99561 3.98764 4.784 -0.423411 1.44262 -0.247829
34 1 5.04187 7.62216 4.92428 1.42897 -0.363096 0.107869
35 1 7.45561 6.18253 0.569759 0.14284 -0.983744 0.69497
36 1 2.39674 3.66447 1.86204 -0.235953 -1.4966 0.221665
37 1 3.49777 7.111 5.53162 0.937759 0.0330879 -0.0465321
38 1 8.75006 0.627297 6.00423 0.384599 -0.285057 0.206805
39 1 2.3252 7.23142 6.18884 0.701934 0.328849 0.0389216
40 1 4.98798 1.53514 5.50926 -0.908911 1.1449 -0.861475
41 1 5.72764 1.4978 7.31218 0.778411 0.638486 -0.489179
42 1 3.85824 3.86806 5.9877 1.14385 -1.5911 -0.194132
43 1 5.41232 6.25877 -0.00206492 0.0263733 1.36669 0.081235
44 1 4.74916 6.80817 5.55134 0.450459 1.43158 0.928815
45 1 7.18615 1.1243 2.48584 0.103713 1.08085 1.2769
46 1 1.54891 8.13329 1.51111 -0.498527 0.861023 1.69236
47 1 9.36677 2.2047 1.10747 0.794451 -0.0331588 0.767458
48 1 4.60124 6.97295 0.880969 -0.789986 0.436018 -1.83043
49 1 9.15398 7.23456 1.76369 0.187802 0.230218 -0.426438
50 1 1.21117 3.23715 2.11081 -0.156207 0.064085 -2.08318
51 1 -0.0112901 1.42934 7.9928 -1.60086 0.352014 -0.196276
52 1 1.76423 2.21246 2.29506 0.697683 0.299981 -0.474589
53 1 1.26513 4.13112 5.35693 -0.417018 0.178538 -0.393044
54 1 0.829292 4.79066 1.75069 -0.135526 1.92881 -0.611362
55 1 6.00207 8.11801 4.96227 0.639529 -0.305529 -0.824601
56 1 1.14835 5.28153 0.347271 -0.436561 0.404863 -0.0673414
57 1 4.6364 9.37181 6.29609 -0.395803 0.761254 0.15384
58 1 9.31762 5.67879 8.30185 -0.211122 0.18848 -0.0182498
59 1 7.66666 8.6262 3.99808 0.19682 1.57924 0.716853
60 1 0.54423 5.59869 8.93984 -0.937767 -1.18048 -0.541322
61 1 8.08587 3.41609 4.29684 -1.44489 -1.14003 0.166609
62 1 8.41273 4.29478 6.14364 -0.338776 0.477827 -0.164734
63 1 3.26527 3.60357 2.18989 1.05125 0.202113 -0.2288
64 1 9.13065 3.02352 6.36623 -1.61965 -0.730228 0.712346
65 1 2.57453 1.11259 3.06584 -0.711098 1.05316 -0.244324
66 1 9.11938 1.65796 2.55803 0.120847 -0.345404 0.525787
67 1 2.66181 8.73441 5.29514 1.42245 0.0247946 -0.926502
68 1 5.24423 0.4899 0.361293 0.956053 -0.494969 0.486326
69 1 1.74032 1.71797 6.62942 -0.703847 0.912346 -0.641098
70 1 2.00174 8.26671 9.13864 1.09784 -1.35963 -0.867912
71 1 4.59415 4.69559 1.71525 0.345572 -0.0143981 0.94017
72 1 8.97701 6.28548 4.93459 0.868206 1.21438 -0.398994
73 1 8.93439 8.0391 2.68426 -0.420756 0.275259 0.996617
74 1 8.80033 5.9371 3.93841 -0.78725 -0.407253 0.275678
75 1 0.808271 8.91918 5.35422 0.131604 0.983874 0.48406
76 1 4.73364 2.30835 7.79057 -0.405429 0.0931271 0.7206
77 1 4.55345 3.63482 1.084 -0.815349 0.661673 0.513955
78 1 8.2805 5.90478 8.07035 -0.103505 0.00697223 0.497454
79 1 8.59733 1.2149 5.29924 0.919374 0.765446 0.564927
80 1 6.22588 1.0927 2.31534 -0.274983 0.299061 -0.207929
81 1 1.4357 6.22377 1.8971 -0.67628 2.37264 0.359762
82 1 2.71867 8.87338 3.28793 -0.297089 1.30691 -0.526396
83 1 6.39449 7.11543 4.58974 -1.21751 -0.327283 0.149073
84 1 5.40481 8.31721 5.6964 1.04553 -1.12198 1.75553
85 1 4.26309 5.87601 2.36456 -0.721927 -0.934641 0.112175
86 1 2.85567 9.23746 7.79146 0.245677 -0.473532 -1.46791
87 1 9.13418 8.65411 8.16253 -2.27496 1.69165 0.599029
88 1 8.08188 2.43104 4.49474 0.925742 -0.774619 -0.498549
89 1 0.679071 8.3592 2.48282 -1.49763 -0.130623 0.368054
90 1 4.45345 9.14883 8.8999 0.284874 -1.27898 1.35486
91 1 6.48588 2.0134 7.92287 0.0115518 -1.30402 0.628629
92 1 6.4912 0.00501492 5.86764 0.470027 0.0509472 0.0219619
93 1 2.31745 7.13731 4.12843 -1.1948 0.905649 0.547459
94 1 8.86161 5.09293 4.31812 0.240797 -0.950014 -0.33562
95 1 2.42786 4.75146 3.83378 -0.9987 -0.764641 -0.579779
96 1 1.94475 4.88262 4.58022 0.871136 0.426467 -0.25337
97 1 7.2712 8.93815 8.18722 -0.574158 0.0853332 -0.0697584
98 1 4.12082 7.57646 3.33156 0.678154 -2.14398 1.25699
99 1 6.83926 0.793344 4.23086 -0.0486099 -0.703171 0.516723
100 1 7.03936 4.73967 7.79391 1.0553 -0.424349 -0.894149
101 1 8.57366 9.3637 3.17183 -0.269077 0.0820201 -0.734656
102 1 4.52885 2.36134 0.275669 0.86406 -0.22436 0.663464
103 1 1.90662 8.86501 3.56672 -0.737171 -0.791592 -0.902998
104 1 5.81874 2.96055 3.04073 -0.457185 0.337758 -0.223581
105 1 0.357444 0.993376 1.18429 1.13846 0.829688 -0.164874
106 1 2.96427 8.86585 4.28266 0.167332 0.685416 -0.600052
107 1 0.761942 2.55705 2.45002 0.636835 0.303156 -0.276744
108 1 8.86421 7.78207 7.61487 -1.49651 -0.618509 -0.396449
109 1 4.85982 5.23818 8.32305 2.55613 -0.193266 -0.748802
110 1 3.41267 8.03134 7.31333 0.777943 -0.425913 -0.618273
111 1 0.855861 5.65763 1.23347 -0.461391 1.78552 1.4399
112 1 8.89056 4.82755 5.37292 -0.254951 0.374071 0.38398
113 1 8.59157 8.73807 4.65286 0.998649 1.05889 -2.32647
114 1 3.24669 1.17496 6.27679 -0.0996986 -1.26205 -0.765895
115 1 9.12353 6.19996 1.86154 -0.955437 -0.554906 -0.133171
116 1 4.08536 5.80483 7.66479 -0.381625 -0.0249439 -0.512814
117 1 7.98494 1.52877 4.56042 -0.000428719 -0.496221 -0.287834
118 1 0.818338 4.12183 6.26277 -0.309481 -0.797167 -0.65581
119 1 5.42186 6.7874 4.53723 1.25411 -0.0899159 0.0871627
120 1 8.04864 0.522468 6.95175 -0.269523 -1.04363 0.0199659
121 1 4.65494 8.25693 2.85312 1.90007 -0.228385 0.799573
122 1 2.74063 3.49489 8.21873 0.618762 0.317535 0.0810204
123 1 4.4479 1.54883 9.29036 0.295786 0.161332 0.619656
124 1 1.82613 2.91263 4.79873 -0.265475 -0.300469 0.629934
125 1 4.88402 5.54301 1.63063 0.0684927 0.00345551 1.18397
126 1 8.4331 3.13834 8.3264 0.424333 -0.758262 -1.20048
127 1 2.62135 8.97091 0.591761 -0.677676 -1.47258 -0.902354
128 1 7.15071 1.3148 8.03258 0.110981 0.595266 -1.04526
129 1 7.57439 7.178 4.90916 0.688866 -0.274815 -0.204668
130 1 5.76931 3.92147 6.06163 -1.25525 -1.20892 0.929232
131 1 5.31424 1.98696 0.593324 1.39309 -0.844522 1.31672
132 1 7.7425 8.9661 6.77268 -0.69832 0.186498 0.262764
133 1 6.02715 4.59872 3.93702 -0.187355 0.20204 -0.198269
134 1 3.42592 8.45861 1.7393 0.303356 0.123216 0.23997
135 1 4.61153 4.52403 2.61472 0.945514 1.02227 -0.333775
136 1 4.66701 6.06911 0.866208 -0.220138 0.521858 -0.0929289
137 1 8.7186 6.4133 7.2767 -0.398 1.05998 -0.657104
138 1 3.68229 9.07266 0.50209 -0.598804 0.0291684 0.993564
139 1 8.71278 5.6439 -0.0188822 0.833442 -0.229779 -0.865761
140 1 6.6411 0.825749 5.59021 -0.183903 -1.26518 -0.416828
141 1 7.26697 6.8872 1.50537 -0.000981626 0.137514 0.880908
142 1 8.03307 1.77281 2.60108 -0.438643 0.116751 -0.891185
143 1 7.77616 0.466728 8.75606 -0.135756 -0.0869649 0.570276
144 1 2.49592 1.51228 2.05068 -0.929286 -0.719417 -1.05644
145 1 7.69559 0.627957 0.835079 0.0832265 -1.33674 -0.361661
146 1 7.05642 0.0823299 7.17907 -1.37313 1.19639 -0.39529
147 1 3.10757 4.40226 1.83533 -0.919271 -0.160026 0.887571
148 1 1.40281 3.38546 6.71439 1.72084 0.740515 1.89445
149 1 1.66619 6.54797 7.64151 0.225508 -1.11011 1.21382
150 1 4.61434 6.07641 6.94018 -0.0145522 0.42278 0.635319
151 1 0.743061 0.418629 2.95915 -0.204501 0.0624101 0.524862
152 1 5.92821 0.114455 0.659728 -0.179082 0.873099 -0.793537
153 1 5.6553 5.20195 1.87106 -0.0604548 -0.253833 0.399741
154 1 0.491328 0.842439 2.10397 0.983495 0.839503 -0.193366
155 1 1.52186 3.80246 1.46984 -0.907976 -0.00839009 1.1929
156 1 1.49431 4.74349 1.19326 1.75406 0.236913 -0.105512
157 1 3.50214 3.49411 4.35284 -0.474743 0.592602 -0.995681
158 1 6.06641 1.5544 5.78229 -0.0105042 -0.87038 0.083686
159 1 4.25452 0.926217 3.94871 -0.3425 0.114644 -0.1936
160 1 5.15168 8.11306 7.70181 -0.304158 1.50594 0.62731
161 1 4.95078 3.38379 8.87563 0.213841 -0.918185 0.466302
162 1 2.81271 4.09521 8.91147 -0.122239 0.754099 -0.128011
163 1 4.70336 2.2343 6.80147 0.52657 0.820982 -0.0724033
164 1 7.08519 8.14988 8.96969 0.0211565 0.382572 0.205295
165 1 6.96404 9.21732 9.13725 0.576832 0.350027 -0.483542
166 1 5.20768 7.57923 6.16551 1.17101 -0.533962 -0.205229
167 1 1.08461 7.02185 4.34017 -0.53115 0.330421 0.235654
168 1 3.17331 0.546786 0.623546 -0.276841 0.708508 0.182333
169 1 8.75521 9.28514 6.58653 0.596324 1.34136 0.0555737
170 1 4.09038 5.28388 1.32851 -0.0488935 -0.542916 0.191757
171 1 6.69924 4.97775 8.7887 -0.000210721 -1.19052 0.836187
172 1 4.90269 2.95528 1.99512 0.733327 -0.240572 -0.131759
173 1 9.16105 8.39659 6.32543 1.00658 -0.672834 0.534583
174 1 3.30984 1.17827 3.5322 0.197994 0.780847 0.83269
175 1 3.52617 6.08124 9.09775 -0.283569 -0.00823015 -0.561836
176 1 1.44945 1.40399 2.00624 0.111844 0.104812 -1.81385
177 1 7.78999 4.71304 8.65814 -1.46778 -0.351621 0.260988
178 1 7.91229 7.60812 8.23375 0.190024 0.0917717 0.895842
179 1 8.49464 0.743827 7.61202 -0.476238 -1.10095 -0.977797
180 1 1.69058 5.12183 5.42688 -1.23413 1.92157 0.260482
181 1 2.85775 1.30887 9.20749 0.367607 -0.697415 -0.992838
182 1 0.583835 0.747117 6.66452 0.607024 0.88485 0.165744
183 1 1.26806 3.31352 4.16807 0.42014 -0.893974 -1.65577
184 1 5.72512 7.66101 4.32829 -0.0494554 -0.163681 -1.11
185 1 6.56677 2.06267 3.60447 -0.315537 -0.20535 -0.758525
186 1 7.85103 7.71865 3.90276 0.130613 0.800546 0.00245394
187 1 0.941717 5.16672 2.78128 0.563444 1.64383 -1.07324
188 1 7.9844 6.7889 3.84158 0.690313 -0.493823 0.972419
189 1 4.38316 8.2866 5.27921 -1.15069 1.2131 -1.01169
190 1 8.66402 4.49126 1.61068 1.37805 -0.369937 -0.908787
191 1 0.245738 4.60112 2.63086 0.851423 -0.333586 1.11644
192 1 0.280193 2.18431 3.19603 -1.6807 -0.304802 0.492879
193 1 5.58444 5.68362 6.31987 0.672207 0.389277 0.835932
194 1 8.92799 0.836983 2.3166 0.297686 0.674263 -0.497803
195 1 5.76096 8.13519 9.3367 -1.09383 0.454006 -0.537026
196 1 8.68864 6.94767 5.56053 -0.978303 -0.0586114 -0.715819
197 1 1.66811 3.20587 2.9236 -0.211216 -0.13244 1.33049
198 1 0.862751 2.17356 1.38989 0.977689 -0.0499876 -0.386982
199 1 2.80986 5.60801 6.00249 -0.271333 -0.219173 -0.30202
200 1 0.162082 0.629009 8.25251 -0.483826 0.72524 0.337944
201 1 1.56038 7.66226 4.0873 -0.59212 1.15727 0.00614943
202 1 3.62417 7.26696 8.86873 -1.19599 0.314555 0.485483
203 1 6.73575 1.93344 5.09182 0.477896 0.158567 -1.492
204 1 0.156516 7.24303 8.73342 -0.470645 0.681932 -0.038788
205 1 7.33707 2.78972 4.11453 1.12663 -0.529165 -0.243143
206 1 6.36086 0.0870865 1.48928 1.21641 0.898507 -0.855992
207 1 0.178165 7.36668 3.89675 -0.340971 1.56019 -0.0643385
208 1 0.104668 7.12376 7.60154 0.216339 -1.5238 0.403069
209 1 6.87173 0.633547 3.1842 0.471177 0.404263 0.300143
210 1 9.07225 2.41404 8.50608 -1.53682 0.0658856 0.394327
211 1 1.75846 5.12851 7.70801 0.285657 -0.713331 1.0222
212 1 1.86675 1.9716 8.34405 0.930126 -0.295147 -0.245943
213 1 5.62394 5.61186 7.68742 0.479712 -0.123231 0.378888
214 1 4.61072 7.18776 8.28683 -0.0855217 0.220814 0.546408
215 1 1.61051 0.0510653 -0.00953386 -0.17681 -0.13095 -0.187314
216 1 5.78947 2.73054 8.56958 0.648461 -0.985592 1.0603
217 1 7.88965 0.10471 5.95679 0.56207 -0.529651 0.406087
218 1 6.95666 3.68909 8.97207 0.00127335 -0.54787 1.0877
219 1 5.5598 1.36734 9.32038 0.875079 0.580133 -0.184008
220 1 0.464808 6.49672 4.65041 -0.451663 0.0830176 -0.554833
221 1 4.70543 1.95424 2.08661 -1.48126 -1.01891 -0.968703
222 1 8.9184 9.17443 5.6481 1.13154 0.365252 -0.171676
223 1 2.07188 2.47511 5.55765 0.852712 -1.22416 -0.840716
224 1 1.95589 6.63273 2.94549 -0.217805 0.798449 0.339418
225 1 1.08225 2.83905 8.55816 -0.996092 0.812423 0.817994
226 1 7.17053 7.78526 1.98459 -0.464515 -0.835716 -0.439231
227 1 3.30882 7.93167 6.1009 0.588642 -0.111618 0.922455
228 1 3.68532 6.91394 3.81224 -1.07901 1.22513 -0.879985
229 1 3.08824 8.9809 6.10259 0.0204345 -0.494695 -0.633136
230 1 8.41547 2.31058 1.20609 0.0882109 -1.71067 -0.30885
231 1 3.87721 2.34338 2.00929 -0.400637 -0.930749 0.24885
232 1 2.97551 4.61682 0.296485 0.0626278 0.736132 0.765202
233 1 8.52917 1.45789 6.63808 -0.219479 -0.938304 -0.0417552
234 1 8.05846 3.01562 2.81148 -0.514833 -0.957739 0.256923
235 1 4.38874 8.66013 7.75243 -1.74352 -0.689045 -0.363186
236 1 3.06045 4.84059 6.46326 0.91396 -0.852284 0.735088
237 1 2.79943 6.36213 1.16107 1.282 -0.443246 1.16861
238 1 6.32931 4.61865 6.52917 0.625751 0.611845 -0.0118585
239 1 2.40939 2.66225 8.5532 1.05339 -0.114175 0.0909715
240 1 8.71915 7.80393 3.84755 0.163253 -0.714074 -0.677495
241 1 8.21572 2.23134 8.6639 0.159143 -0.528869 0.678095
242 1 3.86089 3.85971 5.09668 0.48899 0.525046 -0.155953
243 1 6.25128 8.95872 7.68737 0.368915 -0.326293 -1.39756
244 1 7.00666 6.14266 6.32043 0.0135887 0.307986 -0.623504
245 1 8.90133 2.21835 4.16182 0.273323 -1.12036 -0.168921
246 1 0.606102 5.65896 2.13724 -0.203156 0.278552 -0.519823
247 1 0.682173 3.84505 0.573481 -0.460082 -0.427072 0.607895
248 1 3.89946 5.28958 6.89061 0.156867 -0.963096 0.943355
249 1 1.24487 4.21754 2.21833 0.335014 1.03256 -1.00629
250 1 3.15869 5.1275 1.10174 -1.66873 -0.536449 0.836684
251 1 2.23071 0.892326 1.46052 0.313244 1.0725 -0.1669
252 1 8.49726 8.50855 1.87539 -0.00909462 -0.559097 -0.268732
253 1 0.466236 6.70024 2.37833 -1.41081 0.37842 -0.527487
254 1 6.39923 6.60705 1.80696 -0.345118 -0.0158396 -0.633182
255 1 2.93925 5.8875 0.379555 1.47547 -0.133767 -0.980641
256 1 8.39546 0.184176 4.79302 -0.617184 1.424 -0.213847
257 1 8.33792 8.90124 8.40438 0.568419 -0.276125 -1.22088
258 1 7.13561 6.63873 4.17124 1.9159 0.433695 -1.16711
259 1 6.03973 1.95563 0.952339 0.738762 -1.41969 -0.111191
260 1 8.29774 0.111814 1.41186 -0.0171959 0.850625 1.17041
261 1 8.82054 7.82612 8.51352 -0.275605 0.920441 1.08585
262 1 4.99053 1.66634 4.52433 -0.445778 0.661109 -0.625947
263 1 7.11003 2.84918 5.96696 0.371015 0.586348 0.127869
264 1 3.25892 1.46654 2.64405 0.497243 -1.15635 0.759737
265 1 5.62721 7.2419 7.85304 -0.234939 -0.484759 0.451011
266 1 5.0735 6.25902 7.76918 1.09696 0.66436 0.726097
267 1 1.10378 3.31755 5.12488 -0.439753 1.07647 0.189726
268 1 5.22855 5.08781 4.77853 -1.04498 0.111381 1.15433
269 1 2.42051 2.22479 2.87964 -1.41929 0.0143347 0.0164786
270 1 1.8065 2.81138 1.59286 -0.513941 -0.253729 0.0598192
271 1 1.763 2.50471 0.655321 0.190309 0.404956 -0.533372
272 1 8.40722 4.0499 8.67446 -0.821272 -1.09316 0.716987
273 1 1.44016 5.31343 1.98339 0.379651 -0.263085 -1.1096
274 1 5.7033 5.45198 4.08411 0.775935 0.774784 -0.123763
275 1 7.90017 8.04927 4.80387 0.194454 -0.200722 -1.49407
276 1 4.58359 0.445668 7.56036 0.380004 0.482597 0.349943
277 1 1.27185 6.58087 0.510749 1.03752 -0.301698 -2.24706
278 1 0.464413 7.0596 0.542887 1.18565 0.924874 -0.894742
279 1 3.95109 6.68662 3.02761 0.168715 -0.0869192 -1.46195
280 1 4.97379 9.0464 5.36768 -0.303104 0.159709 -0.0703338
281 1 1.89662 3.40159 0.623178 0.141858 -2.10887 0.107441
282 1 2.29419 5.81396 7.12418 0.0933284 -0.487241 -0.625758
283 1 3.09014 5.22712 8.48863 0.129407 0.81439 0.0394527
284 1 2.07242 4.59501 1.86834 0.112762 -0.0349559 0.815914
285 1 0.129828 3.41067 1.36676 1.2429 0.412647 -0.964867
286 1 7.46951 3.41631 8.16499 1.03598 -0.845195 -0.696928
287 1 5.66137 6.02388 2.16988 0.0266112 0.172777 1.08156
288 1 5.65374 0.363454 5.89081 0.614592 0.256764 -0.767858
289 1 4.8265 5.15187 7.21735 -0.153961 -0.503806 -0.775798
290 1 1.25277 3.72732 9.38557 0.506584 -0.769167 -0.113497
291 1 0.293222 2.14272 5.33344 0.114304 -0.462627 -0.366501
292 1 4.31578 0.579366 0.410022 -0.390103 -0.0407399 0.588974
293 1 0.334291 2.52533 3.98092 0.389994 -0.192608 0.889022
294 1 5.51897 4.28396 2.7416 1.16981 -0.130377 0.801746
295 1 3.86022 7.71299 4.27201 1.40471 0.799625 0.59258
296 1 2.40034 5.61222 1.57374 0.294203 -0.460664 0.651829
297 1 8.02403 6.20133 3.02704 -0.107129 0.456681 0.191215
298 1 0.554942 8.16386 5.64274 0.522235 0.508298 0.664288
299 1 2.88885 2.24432 6.15352 0.502606 -0.551968 -0.898687
300 1 2.03098 8.09318 6.02867 -1.78472 -0.630246 0.250701
301 1 9.18875 3.22456 0.488123 0.46588 0.987762 -0.326391
302 1 8.67442 2.33537 2.94431 -0.316916 -0.102805 1.62019
303 1 7.00623 0.618418 6.4581 1.37801 0.056881 -0.0629798
304 1 5.66365 4.63468 5.49156 0.505436 2.61502 -0.85336
305 1 5.02529 2.34818 8.73741 1.38303 -0.58321 -0.583445
306 1 2.25225 3.16494 7.33373 0.681148 -0.963897 -0.183803
307 1 6.12178 0.952021 6.37737 0.598969 0.373099 0.229741
308 1 6.46871 8.63419 8.64501 0.178106 0.111398 0.514838
309 1 4.22581 0.714191 6.71059 0.270198 0.320948 0.761178
310 1 7.86664 7.40151 2.97943 0.175109 -0.176003 -1.55704
311 1 7.99921 3.05137 7.53044 0.972919 -1.03567 -0.656994
312 1 8.79842 8.6362 9.11228 0.374671 0.678965 -0.563257
313 1 8.38101 5.17155 3.26981 -0.640994 -0.00780069 -0.473083
314 1 8.39381 4.7969 -0.0201859 -1.00939 -0.144482 -1.77268
315 1 9.12401 0.891311 0.161498 -0.414699 0.176717 -0.0315886
316 1 5.44577 1.34406 2.57453 -0.275409 0.524948 0.216268
317 1 8.87364 6.92789 4.32912 -0.967305 1.42223 1.18545
318 1 2.60055 3.71338 0.354881 0.905639 0.678205 0.20947
319 1 2.98952 9.34721 1.46189 0.410993 0.0202878 -0.474182
320 1 1.69176 0.957778 2.72314 0.0788725 0.164342 -0.382716
321 1 3.33941 1.53576 5.52889 -0.35118 0.948329 -0.496418
322 1 5.10472 1.54016 3.61581 -0.541595 -0.710249 0.733507
323 1 2.63806 3.00674 3.30479 -0.664926 1.11589 -0.249378
324 1 2.81529 0.550901 8.48439 1.01238 -0.981128 -0.742346
325 1 8.95164 6.15918 2.95961 0.742323 -0.986199 -1.50759
326 1 1.23166 8.46745 4.65221 0.5795 -0.313706 -0.221297
327 1 4.26088 2.82478 2.80373 0.825457 1.19984 -0.255571
328 1 0.21078 1.0708 5.46105 -0.238006 -0.424531 0.363328
329 1 2.49516 0.636647 4.04479 0.273035 0.21054 -1.23747
330 1 6.66003 3.36789 2.71141 0.283085 -0.0517671 -0.0402723
331 1 4.01882 8.9085 5.91758 -0.535539 0.056491 -0.462927
332 1 2.53888 6.70262 8.18947 -0.428037 1.62484 -0.635358
333 1 4.35742 0.20369 5.08915 0.168354 -1.04024 -0.927262
334 1 3.3574 7.21193 6.52563 0.448998 1.11608 -0.409849
335 1 4.42013 5.22573 5.16912 0.0495457 -0.0681939 1.23655
336 1 6.93778 0.370518 8.29991 1.00879 -1.45872 -0.403958
337 1 3.74897 0.415626 6.03883 0.961315 -0.861957 0.962457
338 1 4.80037 0.158418 1.19098 1.34202 0.231168 -0.0887098
339 1 1.04627 7.03085 9.06557 -0.713276 1.13075 1.00343
340 1 5.76845 3.39353 7.93081 0.685462 -0.339045 -0.161665
341 1 5.92519 7.18067 6.44847 1.26409 -1.40449 -0.394291
342 1 6.50612 2.40289 2.71616 0.204653 -0.790475 0.874226
343 1 5.44986 0.74126 1.74988 -0.816827 -1.95538 0.530644
344 1 6.65095 4.40774 5.59233 0.308285 0.341566 0.465967
345 1 0.593126 7.81924 1.77281 -0.21919 0.281923 0.0957746
346 1 8.20694 5.8417 1.99633 0.165119 -0.242302 1.12396
347 1 5.67301 2.20973 3.9577 -0.146496 0.617743 -0.129963
348 1 3.37827 2.21682 3.46359 -0.756308 1.55314 0.648476
349 1 2.09359 0.758103 7.8934 -0.602253 -1.76678 0.0987994
350 1 6.06712 4.98068 7.34739 -0.2209 -0.552633 0.0219211
351 1 3.45061 9.26665 8.94435 0.318023 0.337313 0.114286
352 1 9.29947 9.31414 4.89387 1.17003 -0.588023 1.11698
353 1 2.02216 3.6009 8.76714 1.9773 -0.0423064 -0.540207
354 1 5.17416 4.3289 7.13105 -0.152069 0.948335 -0.094204
355 1 8.92157 6.89717 -0.0105225 -1.32373 0.588263 -0.520264
356 1 2.78175 1.08563 4.82853 -0.342281 0.20017 0.265743
357 1 4.97615 4.71462 3.45903 -1.75741 0.0276565 -0.470887
358 1 2.85384 1.36588 7.37074 -1.32928 1.22854 0.0355586
359 1 2.41115 1.06667 6.45224 0.137321 -1.20751 0.484626
360 1 5.8779 8.00731 2.09703 -0.11827 -1.4278 1.10318
361 1 2.85812 8.65607 6.93025 -0.479763 0.674416 0.333617
362 1 6.72404 0.412786 0.475726 -0.0637689 0.746516 -0.721827
363 1 4.58767 9.12562 0.385585 1.62347 -0.839864 0.272199
364 1 0.711079 4.57786 0.0722266 -0.0769641 0.779768 0.532912
365 1 9.33233 2.5751 1.9788 1.26652 0.1412 -1.28999
366 1 8.06089 4.08579 3.18031 -2.50268 -0.453689 -0.555374
367 1 1.67889 6.62279 8.52988 0.497892 -0.482144 0.128753
368 1 4.34487 6.72536 7.54225 0.960589 0.211583 -0.657124
369 1 1.91019 0.777519 8.89083 0.138283 -0.0959284 -0.457176
370 1 0.569217 5.82368 6.55338 -0.346183 -0.958919 -0.483879
371 1 6.88194 7.73403 3.21334 0.278835 -0.375546 0.535767
372 1 1.9742 1.27404 0.286322 -0.720946 0.142613 0.771519
373 1 5.60472 2.47927 7.33782 -0.117511 -1.002 -0.298739
374 1 5.09231 7.17573 7.12581 0.53981 0.102789 -1.26413
375 1 1.29833 5.02644 8.84363 1.05006 -2.20762 -0.19043
376 1 6.31802 2.98213 7.04088 -0.126287 -0.425366 0.199303
377 1 0.174953 6.19202 7.5861 0.450156 -0.753771 0.544287
378 1 0.481374 7.91252 7.92047 0.582943 -0.886249 1.52304
379 1 8.68058 0.506248 8.5707 -1.25584 0.725044 -0.782727
380 1 5.58904 2.32325 6.43035 0.628199 0.58479 1.3692
381 1 6.42529 4.5909 4.7657 -0.0131088 -0.256892 1.1673
382 1 2.8537 0.477844 5.67933 -0.764027 -1.27441 0.310764
383 1 2.12579 7.28544 5.22757 -1.68654 -0.0886545 0.384044
384 1 1.88887 4.68908 2.9165 -0.766195 -0.343637 0.243308
385 1 9.1897 6.23206 8.89896 -0.268612 -0.354022 0.487028
386 1 0.950244 4.67017 4.36746 0.834836 -0.823723 -0.768111
387 1 8.47246 6.03416 0.845902 -1.66284 -0.444707 1.25668
388 1 0.159215 8.14991 3.52714 0.521135 0.118616 -1.22155
389 1 3.94499 2.91655 3.68997 0.604476 0.29368 0.136942
390 1 7.40662 5.76393 2.39759 -0.492829 1.3122 0.694229
391 1 7.61102 5.8242 9.15047 0.289558 0.978873 0.88177
392 1 7.6742 9.05958 2.30496 0.465728 -0.0519977 0.187273
393 1 6.52063 5.36055 6.01787 -0.00258395 0.0721825 0.293726
394 1 8.58927 6.89651 8.02787 0.267327 0.796192 0.36937
395 1 7.33219 3.79485 5.83438 0.2869 -0.555115 -0.305336
396 1 1.01949 7.519 2.51925 -0.189425 -0.278029 0.191605
397 1 5.14892 6.45009 6.26023 0.315397 -0.518332 -0.293302
398 1 7.30162 1.58627 3.30088 0.151909 1.13033 0.647702
399 1 3.55891 7.2503 7.75936 0.484065 0.65312 0.659374
400 1 7.9501 8.75905 5.2856 -0.633948 -0.0326022 -0.210299
401 1 4.32889 8.55942 4.4218 -0.577198 -0.463608 -0.338337
402 1 7.57041 1.47725 6.91094 -0.323019 -0.221371 -0.662396
403 1 6.70827 2.41404 0.704518 -0.0932307 -1.10975 -0.0654969
404 1 6.15755 4.14145 1.73613 0.49282 -0.786636 0.982043
405 1 6.45497 1.74814 0.0937791 1.68604 1.38536 1.62907
406 1 5.56901 3.35445 6.88819 0.528127 0.716661 -0.510868
407 1 3.72509 6.76665 2.04047 0.0726572 -0.299734 0.434167
408 1 4.17725 7.29791 5.05626 0.0540158 -0.155904 0.802644
409 1 0.731194 7.82569 4.39681 1.26005 0.194459 0.162525
410 1 6.4948 8.11795 5.79885 1.88439 0.430545 0.340421
411 1 9.3487 7.48644 5.94908 0.503997 -0.401519 0.64317
412 1 2.31267 5.75467 5.11196 0.5941 0.21129 -0.339099
413 1 7.66611 0.967471 3.74672 0.532254 1.57928 0.666958
414 1 2.84938 3.40809 4.96126 -1.12365 1.08356 -0.735445
415 1 1.75638 2.79021 9.23641 -0.278299 -0.760141 0.103147
416 1 8.62228 8.41693 7.03904 1.65818 0.850946 1.32164
417 1 8.14919 8.41005 3.3098 -0.0938156 0.361241 -0.00472286
418 1 6.53756 1.49787 6.92457 -0.329839 1.22515 -0.894126
419 1 9.26431 8.90057 2.8493 0.680693 -0.258627 0.370494
420 1 8.0838 6.79028 1.74582 0.734127 -0.501063 -0.32493
421 1 3.1483 5.77219 6.89441 -1.04538 -0.64138 -0.42983
422 1 3.68269 5.17979 2.29497 -1.20289 -0.263877 -0.0503836
423 1 6.06982 6.32417 4.79153 1.60486 -1.12315 -0.722103
424 1 5.85614 7.34357 5.41121 1.1155 0.448263 -0.0514969
425 1 3.72403 4.27204 8.21752 -0.755956 0.553917 0.729494
426 1 5.54689 7.22216 1.99795 -0.335335 -0.810742 0.482665
427 1 5.1509 0.458108 6.8428 -1.23702 0.373479 0.173741
428 1 0.727776 8.13185 0.92278 1.48745 -0.751002 -0.116629
429 1 5.61731 6.36236 7.08491 1.71054 -0.438802 -1.01654
430 1 2.4272 4.49049 1.04436 -1.54504 -0.0796575 -0.261746
431 1 5.469 4.75938 6.35375 -0.750397 -0.646278 0.586708
432 1 4.90534 1.2189 1.01327 -0.605954 -0.785431 -0.0988901
433 1 3.35579 2.75228 8.2659 -0.46313 -0.154642 0.409059
434 1 -0.006521 1.38686 4.5996 -0.57698 0.957297 -0.526439
435 1 7.30568 2.00597 9.40473 -0.31985 0.23636 1.07218
436 1 9.03868 6.71619 1.00971 0.519089 0.495716 0.36235
437 1 0.655982 8.44005 6.53975 -0.37278 -0.338171 0.749796
438 1 3.23136 0.266408 3.53722 -0.186814 0.335337 0.789874
439 1 4.10178 7.9301 8.16262 0.803968 0.387749 -1.12656
440 1 0.139522 4.39272 7.6842 -0.349479 0.172361 -0.367459
441 1 9.19792 4.90249 8.90562 0.355627 -0.536678 -1.25523
442 1 7.54731 1.72146 1.7917 0.0940121 1.62011 -0.74205
443 1 8.00187 3.0826 0.572753 0.472675 -1.11957 -0.472362
444 1 8.26561 7.15834 7.23967 0.481325 -0.735567 -0.691708
445 1 4.35495 2.56121 5.97225 1.14668 0.922364 0.141632
446 1 6.13903 6.23009 5.97671 -0.987415 0.104042 0.100078
447 1 0.803388 0.807353 9.20944 -0.850486 0.432378 -1.44473
448 1 2.17385 5.31018 0.608627 0.0531687 0.978423 0.517241
449 1 3.32692 7.59354 2.18277 -0.444892 -0.931978 -0.258418
450 1 8.81094 2.23091 6.02141 1.39086 0.505267 0.935613
451 1 7.43394 4.87156 0.0418117 0.721312 0.89426 -0.257448
452 1 0.4804 3.05932 6.8088 -0.0195699 -1.4105 0.374422
453 1 7.64316 3.33801 6.73323 0.399326 0.195798 -1.2472
454 1 0.101507 3.6056 7.21875 -0.45759 0.463722 0.0102209
455 1 4.83422 0.183308 2.14442 -0.627664 -0.647937 1.06938
456 1 8.13639 4.20634 5.25928 1.88972 0.202295 -0.375218
457 1 7.00299 5.35816 0.743017 1.4012 -0.220061 -0.102999
458 1 3.21697 7.81144 3.60184 -0.286235 1.19248 0.198332
459 1 3.23197 9.27546 2.47986 0.786308 -1.12186 0.0350804
460 1 6.98289 5.99816 4.99481 -1.32681 0.957755 1.00235
461 1 5.39021 3.74599 0.408546 0.561938 0.241934 0.197453
462 1 0.80538 5.62552 3.77021 0.208686 0.135979 0.224847
463 1 2.0333 9.23037 1.55185 0.805901 -0.956954 -0.830221
464 1 5.98019 3.56952 8.88527 -0.307089 -1.10108 0.41474
465 1 8.7396 7.61305 4.85472 0.171717 0.957591 1.06281
466 1 8.33431 7.90176 5.6245 0.304567 0.20386 -0.0329677
467 1 3.40199 9.37157 5.17319 -0.506954 -0.356371 1.08479
468 1 7.8432 4.18301 0.581306 -0.669065 -0.987397 0.0280387
469 1 6.38019 2.71454 4.49576 0.168496 1.31178 -0.0785403
470 1 4.99023 3.03401 6.35599 -0.292199 -0.563785 0.324833
471 1 6.48116 5.53866 1.95741 1.1967 0.108961 0.20366
472 1 3.86706 0.290698 2.97785 -1.14809 0.627678 0.0725876
473 1 1.75444 1.42376 3.55422 1.77109 0.348229 0.593996
474 1 0.467013 4.26517 8.63818 -2.17787 -0.222812 0.177472
475 1 1.05212 1.74407 4.08679 1.33699 -1.10873 -0.857844
476 1 6.4437 3.15191 3.70255 -0.0570484 0.181884 0.242879
477 1 0.720402 0.972125 7.64684 -0.378864 0.179416 -0.789139
478 1 2.71694 6.32913 4.4541 1.08746 -0.0501655 0.353289
479 1 2.27955 2.87064 6.41988 -0.835302 -0.787551 0.183267
480 1 4.86033 8.45122 6.50818 0.688456 1.01854 -0.779632
481 1 1.20112 1.35787 8.37763 -0.0251713 1.43709 -1.52223
482 1 7.45324 9.44812 4.8098 -0.554652 1.81105 0.664217
483 1 1.38735 3.00276 7.69822 -0.101231 -0.00888463 -0.583029
484 1 4.07642 6.44356 4.51314 -0.182975 1.31483 0.704698
485 1 1.09167 1.77919 2.81129 -1.36577 1.14914 0.776612
486 1 8.18741 7.58139 2.14257 0.0505088 -0.786066 -0.481497
487 1 1.20089 5.1016 6.33761 -1.08265 0.440062 -0.140774
488 1 3.63324 0.793381 9.11054 1.5475 1.02024 0.706125
489 1 1.32108 4.02589 8.28279 0.207698 0.113264 -0.0267111
490 1 7.71874 5.04789 1.26759 -0.798616 1.0259 0.242037
491 1 3.70012 6.41763 1.17279 2.12907 -0.883889 0.732648
492 1 1.38806 5.82431 7.09468 0.703809 -1.32071 -0.259733
493 1 7.63771 2.14852 7.74187 -0.00835857 2.18044 -0.459618
494 1 7.5733 8.07755 6.43362 -1.29139 -0.395523 0.838699
495 1 3.58391 0.593071 7.63934 -1.90732 0.701649 -0.364504
496 1 3.19907 5.9401 7.80457 -0.66538 0.379353 -0.7906
497 1 2.07627 1.79973 1.30953 0.424768 0.096905 0.218519
498 1 0.283657 8.16082 8.76479 0.733924 0.814582 -0.329928
499 1 0.432644 1.57031 0.158695 -0.635628 0.150819 -0.300085
500 1 3.90684 5.82883 0.413614 0.411961 -2.91308 1.06193
501 1 4.27942 4.33148 7.36892 -1.30746 -1.80072 -1.2409
502 1 8.75879 4.90839 8.11713 -0.038592 0.0785979 -0.737519
503 1 7.01048 1.63272 6.04433 -1.06239 0.242406 -1.2952
504 1 5.77384 6.83348 2.7778 -0.834454 -0.225841 -0.597471
505 1 5.06855 3.42065 5.25577 -0.167311 0.940067 -0.572182
506 1 7.62187 2.36657 6.57366 -1.24659 -0.163255 0.796798
507 1 6.05423 8.09592 3.16682 -0.846558 -0.690294 0.090973
508 1 2.01727 7.53783 7.80615 0.269733 -0.0958186 0.719401
509 1 2.1462 1.27684 5.41137 -0.569894 -0.790791 0.217021
510 1 0.374882 9.24322 6.67547 0.0540698 -0.311501 0.492696
511 1 1.29982 0.136343 6.29188 1.97461 0.562608 -0.699283
512 1 2.56582 3.88818 6.48562 0.572231 -0.55895 0.409694
513 1 4.22662 7.62377 2.21732 -0.528649 0.448008 0.571554
514 1 3.74921 5.63623 6.18184 1.04785 -0.821036 -0.356991
515 1 7.37693 0.0616892 1.39902 0.42617 -0.563304 -0.279878