ITEM: TIMESTEP
233900000
ITEM: NUMBER OF ATOMS
1000
ITEM: BOX BOUNDS pp pp pp
0.0000000000000000e+00 9.4000000000000004e+00
0.0000000000000000e+00 9.4000000000000004e+00
0.0000000000000000e+00 9.4000000000000004e+00
ITEM: ATOMS id type x y z vx vy vz
1 1 1.14849 6.69445 6.8978 0.350594 0.599279 -0.19882
2 1 8.25112 3.95373 1.4315 -1.13867 -0.0893435 -0.877991
3 1 3.61723 4.55669 4.03916 0.369422 -0.232591 -0.555315
4 1 1.64584 6.41949 1.07602 1.29409 0.847167 0.712507
5 1 6.88394 5.47969 9.16639 0.531798 -0.572835 0.216301
6 1 1.8054 7.77935 9.30466 0.621317 -1.14546 -1.46122
7 1 3.77999 9.37404 7.31839 0.922284 -0.250505 -0.487421
8 1 3.36563 3.61474 6.33463 -0.607371 1.59779 -1.39591
9 1 0.599275 5.44451 4.88781 -0.786696 -0.278425 -1.44303
10 1 3.60456 9.32304 2.35938 -0.704702 -0.964922 0.285281
11 1 0.614813 4.90284 1.23912 -0.582094 0.606143 0.164304
12 1 0.746543 8.43844 8.83451 -1.83456 -0.428602 -0.430376
13 1 7.84366 2.19726 4.66282 -0.388296 -0.0523592 -0.514496
14 1 0.0993382 3.34007 7.66776 0.966989 -1.62001 0.357558
15 1 7.1481 1.70547 5.44134 0.260287 0.488975 1.01913
16 1 4.14881 3.2775 4.84272 0.643852 -1.11985 1.06726
17 1 2.17075 5.64032 7.51338 -0.454377 -0.673347 0.62467
18 1 1.79845 3.207 1.34421 -1.06492 -1.17818 0.240836
19 1 0.435372 3.2758 1.189 -1.11085 0.869168 -0.0796979
20 1 5.02532 1.30393 9.25476 0.404974 0.162606 0.712265
21 1 9.06101 4.52604 5.58536 0.996395 1.07094 0.719439
22 1 8.65011 6.76318 5.36452 0.0732146 1.03861 0.0783233
23 1 0.0508026 8.43168 2.38262 0.715408 0.497488 0.0931597
24 1 7.8966 7.37234 1.05202 -1.54146 -0.91238 -0.921405
25 1 3.78899 5.47762 8.27936 -0.395197 0.148746 0.389892
26 1 6.97065 1.25721 2.92219 -0.884525 0.569172 0.354838
27 1 2.64783 5.69622 6.6713 0.380839 -0.169399 -0.920959
28 1 6.75539 2.31114 8.0096 -1.16066 -0.348596 0.509368
29 1 3.02483 8.80871 5.71283 -0.167513 1.4428 -0.204934
30 1 5.98033 7.06731 0.73007 -0.154552 -0.84455 0.41631
31 1 0.830135 5.28732 2.31031 -1.04182 0.89335 -0.382837
32 1 0.239175 0.413825 3.01736 -0.342225 -0.701019 0.922856
33 1 7.12444 0.238164 0.871724 -1.01895 0.727278 0.0807212
34 1 3.37734 6.94267 1.50517 0.792583 -0.227344 0.0444589
35 1 2.31201 6.23013 5.34335 -0.0954213 1.78588 -0.699173
36 1 0.267809 0.411562 4.96198 0.325387 0.0424695 0.0549443
37 1 1.32768 3.79186 2.97182 -0.889662 -0.44421 -0.629502
38 1 9.3082 2.05555 0.0718796 -0.0529066 -0.541333 -0.549801
39 1 0.835344 3.10381 4.32986 0.239048 0.24103 0.299488
40 1 6.64166 0.331147 4.3986 1.29894 0.960963 -0.063732
41 1 9.3542 3.60339 6.65983 0.575308 0.502208 0.208779
42 1 5.99741 7.69793 9.30843 -1.45845 0.246039 -0.745958
43 1 4.85373 5.57647 7.30429 -0.185359 -1.11599 0.941219
44 1 5.24431 2.45718 9.21781 -0.208515 -1.08693 -0.436367
45 1 1.58338 0.351975 0.145229 -1.36828 1.31408 0.397461
46 1 3.80157 3.96985 1.42511 -0.441785 -0.204683 0.862494
47 1 6.89002 8.99407 6.15995 0.77951 0.839333 0.489838
48 1 2.32383 2.54251 1.71674 -0.936847 -1.2144 0.47723
49 1 8.80549 9.35444 1.1915 0.318939 1.12622 -0.387958
50 1 7.92941 4.59977 2.60706 0.324087 0.644188 -0.123258
51 1 7.5632 0.193115 6.94955 -0.397189 -0.190709 -0.655039
52 1 4.33468 4.12561 2.24557 -1.0634 0.523134 -1.40436
53 1 1.319 6.42233 0.0899055 0.372506 -0.339359 0.605269
54 1 5.17059 9.11654 5.83642 -0.104261 0.0787116 -0.679648
55 1 3.17765 9.34313 6.51644 0.231225 -0.511233 -0.831942
56 1 4.28512 0.946634 6.86452 -1.16231 0.695587 -0.546584
57 1 3.90683 0.948354 4.70835 -0.649964 0.417973 -0.18393
58 1 5.13018 8.11126 0.557463 -0.685515 0.240224 -1.40575
59 1 8.74022 2.10971 0.92687 0.256164 -0.275488 0.400687
60 1 1.36428 7.31556 2.94751 2.14113 1.12248 -1.22244
61 1 3.32497 8.38303 8.91013 0.714531 0.56324 -0.993143
62 1 5.02141 2.41231 3.17345 -0.391853 -0.45741 0.511338
63 1 4.09491 3.83318 7.23142 -0.781144 1.4325 1.07169
64 1 0.977876 8.94035 1.24883 -0.057542 0.354334 -1.07065
65 1 6.78558 7.0966 2.83738 -1.33714 -0.939789 -0.572268
66 1 9.10723 6.20364 8.90173 -1.64647 -0.145172 -1.30044
67 1 4.56641 4.97966 5.94751 0.895283 1.74913 0.860788
68 1 3.27033 3.79022 2.45769 0.0507695 -0.232769 0.966478
69 1 3.25159 2.91937 3.78776 0.234352 -0.0638998 1.22838
70 1 2.88858 7.56959 1.07843 -0.0210565 1.89655 0.019945
71 1 4.10364 0.868636 5.57006 -2.25754 -0.523461 -0.0532586
72 1 3.52705 5.00274 5.98398 0.705792 0.255973 0.566069
73 1 0.927982 4.5565 7.32581 1.05831 0.641485 0.616709
74 1 6.14047 6.15479 1.03862 -0.364919 0.205569 -1.07113
75 1 4.31601 0.113347 4.38415 -0.788636 -1.5054 0.881066
76 1 8.14612 4.72037 5.77945 0.805934 -0.930296 -1.0538
77 1 6.40262 0.74181 1.35558 0.514653 0.653117 0.162481
78 1 0.777729 3.99252 4.53046 0.158514 0.565475 0.779505
79 1 8.27949 1.37298 1.29618 -0.495104 0.108885 0.697585
80 1 5.74922 0.791473 5.39325 0.442024 0.231115 -0.0832091
81 1 7.12161 8.01358 1.2857 -0.204347 0.328549 0.203095
82 1 7.50389 3.55411 1.02424 -1.15048 -0.547927 -0.898712
83 1 5.34805 3.1284 2.2379 1.17182 -1.21148 0.235992
84 1 0.411291 7.94771 8.09774 -0.552013 -0.408533 -0.868597
85 1 6.8115 4.08966 4.38222 0.45173 0.180861 -0.992025
86 1 2.08578 5.0009 8.07003 -1.39439 -0.384947 -0.653452
87 1 4.39896 8.7921 1.78713 -0.13306 -0.235909 -0.753927
88 1 1.54706 8.3298 3.32462 0.230744 -0.495586 0.408029
89 1 3.53167 0.699689 6.19869 0.530511 1.80936 0.276323
90 1 9.06037 2.4156 8.74152 0.612896 -0.21915 -0.291731
91 1 5.74442 6.16774 2.60038 0.413765 0.660744 2.11996
92 1 1.99307 7.22553 5.08557 -0.508579 -0.00307684 0.0327948
93 1 2.61586 0.36651 5.74532 -0.903363 0.0443111 -1.11709
94 1 0.347398 1.96467 4.63092 1.36078 1.255 0.231774
95 1 1.67873 5.15607 1.6458 0.0100215 -0.519051 1.74071
96 1 1.79603 2.81348 5.49152 1.68203 -0.139932 -0.788837
97 1 2.93632 4.14234 7.19311 0.17425 -0.298828 0.345075
98 1 5.78557 1.41578 2.20896 1.46823 -0.0825534 -1.3147
99 1 6.03486 5.60469 6.09134 -0.438626 -0.355081 0.186578
100 1 1.77846 2.02288 8.54282 -1.47386 -0.782639 -0.372349
101 1 7.43426 3.28906 4.92405 0.708647 -1.3968 -0.89774
102 1 6.69677 7.04503 6.07027 0.129041 0.580632 -0.226386
103 1 8.59026 3.62823 7.50412 0.269924 0.945626 -0.610621
104 1 3.46455 8.96891 4.77653 0.608155 0.672974 0.406387
105 1 5.83996 2.849 5.37631 -0.773459 -0.168518 0.988343
106 1 7.08431 4.346 2.68989 -0.277748 0.702163 -0.107692
107 1 6.96519 3.13806 7.60908 0.0806498 0.0486749 0.481516
108 1 7.91298 5.30588 4.07048 -0.366885 0.719948 -1.09354
109 1 0.956248 4.20161 0.888052 0.727274 0.506714 -0.33787
110 1 0.222742 8.13117 4.9879 0.55382 -0.959543 -0.0523611
111 1 1.79502 8.88553 2.67845 0.061129 0.132851 -0.00079374
112 1 3.66667 4.47831 0.538231 -0.453152 -0.036803 0.193867
113 1 6.16292 4.2149 3.27612 1.51651 1.19677 -0.631885
114 1 9.39706 4.1867 0.648668 1.0336 1.03979 0.505002
115 1 4.87286 0.89012 4.98812 1.19661 -0.210855 0.504261
116 1 4.32041 4.10417 0.0209389 1.96775 0.166564 -1.27728
117 1 7.65144 7.76553 2.94298 -1.59973 0.436809 0.482648
118 1 6.53171 3.64636 5.44561 -1.84913 0.419444 0.0117829
119 1 0.0294591 9.14313 9.30771 -0.0485108 0.613841 -0.170352
120 1 3.94928 7.45479 0.653117 0.666029 0.883905 1.14564
121 1 0.704143 7.46523 2.19002 0.192176 0.123166 -0.310126
122 1 8.52726 8.90835 0.0800568 0.331882 -0.841538 -0.0959326
123 1 8.87666 5.3032 0.236969 0.385655 1.18706 0.228353
124 1 3.0333 6.31707 7.68162 0.277021 0.105547 0.475957
125 1 0.731439 3.74494 8.9495 -0.44883 -1.11932 -0.733701
126 1 1.13562 3.65659 7.17843 -0.360387 -0.54733 -1.50582
127 1 1.04467 4.47992 9.2858 1.09344 -0.241714 -0.152084
128 1 0.384695 1.60427 8.64625 -0.518672 0.210195 -0.297694
129 1 6.79148 1.51596 7.35505 0.961492 -0.178743 0.306249
130 1 8.96451 5.49413 3.78677 -0.725019 0.610002 -1.03581
131 1 7.50808 7.13182 1.93062 -0.322718 0.541611 0.384821
132 1 6.53654 5.09974 3.42935 0.328319 -1.45327 -2.06815
133 1 5.82027 0.867529 6.89152 -0.112748 -0.765186 -0.447188
134 1 0.337142 0.955084 2.23006 0.369609 -0.0152418 0.157748
135 1 4.24753 3.57093 6.44497 -0.00702404 1.19892 1.6306
136 1 8.06454 0.651932 8.27084 1.02818 0.879308 -0.284724
137 1 4.3981 2.8326 0.0489909 0.132467 -0.161423 0.21339
138 1 2.37195 8.03937 3.74987 0.624878 -1.26579 -0.376443
139 1 7.37425 5.966 3.48157 0.588447 -0.0421297 -1.34536
140 1 9.31259 2.3792 6.31976 0.73219 0.587518 -1.09876
141 1 2.87895 2.5576 3.08217 0.455251 0.459623 0.000867586
142 1 3.64149 3.25157 5.62026 1.25619 0.0637721 0.696155
143 1 5.97469 8.35524 2.20459 -0.803655 1.21117 1.77067
144 1 9.35294 2.82588 3.20027 -0.179771 1.01089 -0.744334
145 1 1.4246 1.46545 3.87989 1.02277 0.358159 0.481026
146 1 4.15237 7.23845 9.03991 -0.112397 -2.1343 0.588611
147 1 6.16371 5.70184 4.37876 -0.816864 1.0597 -0.382027
148 1 7.89128 1.94372 0.480883 0.998533 -0.0721054 -1.12725
149 1 2.63328 4.62315 6.3583 0.753502 0.214087 1.31377
150 1 1.8032 1.09267 8.94118 0.0213388 0.187683 -1.18866
151 1 3.32528 5.62565 5.37359 0.999648 0.745041 -0.125746
152 1 5.06843 0.796353 4.15533 -0.580287 -1.57345 0.147122
153 1 2.45988 4.14324 8.45075 -0.449467 -0.608663 -0.336798
154 1 0.0839702 6.3993 5.73123 1.02419 0.0710894 0.951051
155 1 0.365188 4.06737 1.61798 0.507607 -0.519439 -0.554805
156 1 6.36895 6.13452 8.66795 -0.163613 0.373335 -0.105003
157 1 3.31297 3.6874 8.29986 0.288804 -0.960265 1.22778
158 1 2.71144 4.50793 0.245518 -1.20593 -2.38166 0.323924
159 1 5.28692 1.83914 4.88704 -0.126454 -0.35693 0.743953
160 1 1.74737 5.44128 5.34797 0.0542666 -0.844857 -0.0107636
161 1 2.40617 1.0458 7.08642 -0.594509 0.415793 -0.338436
162 1 2.18253 6.8596 9.13989 0.378154 -0.486362 -0.317536
163 1 1.035 3.52159 8.1372 -0.911296 -0.451545 0.821266
164 1 8.10868 0.528866 1.58341 -0.718255 0.714744 -0.747734
165 1 4.02361 5.39138 2.08304 0.184785 0.134348 -0.183235
166 1 2.48721 4.76286 1.97857 0.561266 0.13313 1.21847
167 1 1.83569 1.40318 4.6872 0.2102 1.23517 0.000176544
168 1 4.77271 1.15718 0.68034 0.550867 0.644921 -0.469647
169 1 0.306972 5.13124 3.09124 -0.250001 -1.17509 -0.862262
170 1 7.74844 9.04665 4.12026 -0.0530861 0.184992 -0.291862
171 1 6.18672 4.82847 4.15908 -0.479984 0.14026 1.5467
172 1 1.84529 3.81723 2.13437 0.901856 -0.186416 0.352169
173 1 6.38818 5.01348 2.55398 -0.190537 1.28313 -0.162888
174 1 3.42605 4.46489 4.92687 -0.54971 -0.31412 -0.975624
175 1 2.66679 3.83482 1.704 -1.36603 1.28707 0.105359
176 1 7.38543 1.13233 1.38267 -0.16944 1.74005 -0.175142
177 1 3.17123 3.00836 1.44464 -0.227143 -0.801742 0.207281
178 1 8.53992 3.03751 2.05569 -0.9082 -1.09887 -0.596835
179 1 7.8194 7.2928 5.80972 0.531019 0.465344 1.04095
180 1 6.65611 9.10796 2.72894 0.296001 0.223753 -0.107864
181 1 0.655694 3.30061 3.37707 -0.159617 -0.0698932 2.30141
182 1 5.19307 8.71344 1.27891 -0.350052 -1.05252 -0.109869
183 1 6.84853 6.02592 2.71299 0.161199 -0.762185 -0.96783
184 1 9.1054 0.30143 7.06572 -1.02106 0.342173 0.617282
185 1 1.52635 0.546788 4.02973 0.760708 -0.372954 -0.48991
186 1 8.64889 1.55332 6.44268 1.64787 -0.208015 -0.797106
187 1 3.28791 1.40404 7.33732 -0.17124 -0.729825 -1.12676
188 1 2.1123 4.48276 3.59028 -0.266149 1.42421 1.24624
189 1 3.71568 9.17171 9.35117 -0.918977 0.178234 0.673186
190 1 4.96917 6.88096 5.69698 0.737098 0.377642 -0.635506
191 1 0.784387 2.31961 3.75644 0.518751 0.0359163 -0.0559917
192 1 4.56757 4.87639 0.338838 0.53518 -0.281941 -0.0325609
193 1 6.40185 8.95498 7.26493 0.570768 -0.699117 0.679182
194 1 1.77939 4.97448 6.12596 -0.23854 0.453974 -0.371514
195 1 5.47705 4.84924 2.98885 0.320517 -0.600102 -0.348992
196 1 2.29446 0.249832 4.51179 -0.530987 -0.367396 1.25343
197 1 6.17953 4.57756 5.17308 -1.46027 -0.921251 -1.02044
198 1 0.28938 8.98892 6.48247 -0.52574 -2.59718 1.23054
199 1 1.68832 0.514556 7.31954 -0.168528 0.714928 -0.280197
200 1 0.785969 1.12112 5.72436 0.080247 -0.0934641 -0.595666
201 1 4.18545 8.54217 6.34114 -0.717195 0.482441 0.629507
202 1 5.46887 0.556649 2.68118 0.0439259 0.47088 -0.0423062
203 1 0.173725 1.55241 6.41237 0.150064 -0.364739 -0.382146
204 1 2.91196 5.74628 2.39315 0.161627 -0.58686 1.30327
205 1 5.66893 1.83861 6.88564 0.486762 0.457139 0.613963
206 1 7.20444 3.07424 8.87661 -0.0360614 0.00484592 -0.212935
207 1 4.03524 7.74568 3.5277 0.165206 -0.311297 -0.441583
208 1 7.24064 2.60899 5.9834 -0.824899 -1.27411 0.131039
209 1 7.79731 8.14619 0.473472 -1.8437 1.41229 -1.66961
210 1 8.01172 2.35131 6.55608 -0.264821 0.0226869 -0.211271
211 1 8.66289 9.16069 5.62676 1.43693 -0.107746 -0.199969
212 1 9.316 5.38543 5.75072 -0.104762 -0.911407 0.601389
213 1 7.47116 6.10551 0.504767 1.82078 -0.913946 0.650804
214 1 8.21194 3.13442 8.9018 0.661468 -0.0352141 -0.460281
215 1 1.11651 0.436029 1.14731 -0.122577 0.677012 0.071056
216 1 2.40245 7.51959 3.0096 1.27784 -0.0995755 -0.0553155
217 1 6.85479 0.405343 0.0448825 0.366248 0.83696 0.303275
218 1 6.17289 7.95399 0.720923 -1.08768 0.224552 1.04012
219 1 8.49645 4.49327 0.796293 -0.413755 -0.775159 -0.0890483
220 1 6.11581 1.26237 3.0055 0.35601 -0.756144 -0.321412
221 1 8.36904 1.92429 9.01089 -0.175098 0.337317 0.566995
222 1 3.54122 7.41875 2.49766 0.688289 -0.252638 -0.570216
223 1 7.01628 7.93021 6.27929 -0.298663 0.0781422 0.673281
224 1 4.40955 7.84318 2.68154 -0.367315 0.876275 -0.156814
225 1 5.96423 7.25191 2.33737 -0.167586 0.845595 0.504837
226 1 6.68157 1.30381 2.09448 1.02589 1.19146 1.07056
227 1 6.31214 4.93217 1.26998 0.162941 0.589734 -0.33136
228 1 4.81361 7.37318 3.60965 0.170738 1.12151 -2.47396
229 1 3.56319 2.30505 -0.0362827 1.35816 1.27683 -1.03592
230 1 6.72646 7.12959 8.67402 -0.29587 -0.334829 -1.04173
231 1 3.55034 1.12853 2.88393 1.12125 -0.168177 -0.510436
232 1 8.62447 2.67677 0.172883 -0.439461 -1.87352 1.27704
233 1 9.30924 4.39616 9.15154 -1.07326 0.773052 0.316963
234 1 4.90251 9.44002 5.00417 -1.02859 0.768964 1.64639
235 1 5.56525 0.263665 1.69592 -1.36906 0.132672 0.101665
236 1 0.911018 5.06012 6.47868 1.17821 0.209307 0.36519
237 1 3.26372 7.89246 5.01615 0.0125421 0.33185 -1.12818
238 1 7.3079 0.909674 7.7561 1.70549 0.0783189 1.09391
239 1 1.70859 7.50255 1.62217 0.318782 -1.28545 0.504732
240 1 2.64372 2.09771 5.72875 1.72259 0.138866 0.479951
241 1 1.51545 5.35827 6.95703 1.51707 1.38493 -0.0116132
242 1 6.29924 2.20611 4.51762 0.302403 0.288243 -0.112546
243 1 7.50295 1.25734 8.55991 -0.766549 -1.41446 -0.343523
244 1 9.32964 3.27699 8.94401 0.897999 0.565361 0.534483
245 1 3.12394 4.66445 1.2611 0.540628 -1.2903 -0.114398
246 1 4.61291 7.74516 1.42292 -1.10945 -0.0534876 1.52796
247 1 8.37285 6.16435 0.195072 0.573428 1.7594 0.581047
248 1 8.33954 4.42997 8.07242 -2.00454 0.609344 0.936205
249 1 2.58632 8.05672 8.53794 0.404809 -0.292328 -0.084559
250 1 3.24262 5.52513 0.451057 1.60208 0.981859 0.554751
251 1 3.73536 7.07772 4.59958 0.00216593 0.160124 0.619958
252 1 7.54725 6.84886 3.37718 0.0271563 -0.326637 -0.269017
253 1 5.887 9.29021 3.3153 0.0983968 0.998284 -0.109255
254 1 3.41295 6.21091 4.30605 -1.11759 -0.679064 2.05541
255 1 7.35139 2.08575 9.00465 -0.597331 0.627937 -0.686614
256 1 6.7238 6.65079 1.93642 0.295834 0.71706 -0.38141
257 1 0.423478 9.12737 2.0183 -0.741742 -1.20009 -0.691514
258 1 5.57256 7.9152 4.11342 -0.529918 0.781532 0.308292
259 1 0.466493 0.590214 0.142624 1.54566 0.121535 0.307723
260 1 7.25461 7.79839 5.30403 -0.702658 -1.01258 -1.24797
261 1 7.45624 5.75235 4.79118 -0.361394 -0.403897 1.24633
262 1 3.89331 2.77443 6.77109 -1.37387 -1.46367 1.05587
263 1 4.22335 6.47075 4.11309 0.646895 0.140152 0.218554
264 1 2.7695 7.17717 4.37394 0.793252 -0.632876 -0.0206029
265 1 9.18693 4.84883 1.26542 -1.01725 -1.41611 -0.849688
266 1 8.20464 7.59367 9.22737 -0.284445 0.669994 0.293175
267 1 9.06259 8.46418 6.19175 0.103013 -0.665221 1.2745
268 1 3.08533 1.58819 3.59434 -0.325413 -0.0810536 0.513343
269 1 6.27298 0.496508 7.77394 -0.485782 0.224636 0.352142
270 1 4.92053 0.697926 5.92099 -0.603479 -0.157933 -1.17181
271 1 4.45618 7.51916 5.23295 -0.737041 0.0299654 -0.714073
272 1 1.67524 0.972085 0.872652 -1.34329 -0.147424 -0.176448
273 1 6.83174 8.3815 3.29137 1.19038 0.16486 0.766112
274 1 2.75261 7.303 6.72498 -0.111922 -1.75404 -0.351277
275 1 3.46124 0.292377 1.51548 -1.47784 0.659797 -0.360415
276 1 5.06446 5.91809 5.61544 0.754999 2.00616 -1.02339
277 1 1.9729 9.28879 6.39695 2.13244 0.285603 0.265289
278 1 6.86652 5.48322 0.668155 -0.62529 0.171153 0.031831
279 1 4.30065 8.47415 5.42108 0.678272 -0.0531536 -1.41431
280 1 6.65769 0.467204 5.44283 0.677722 -0.994358 -0.417505
281 1 8.83633 8.21028 7.02371 -0.313402 0.348256 -0.529156
282 1 7.13634 7.85 9.01076 0.0149621 1.45351 -1.139
283 1 4.50866 1.55593 2.77502 0.675702 -0.0062092 -0.894096
284 1 5.08994 0.207094 6.79187 -1.08427 -0.32595 -0.474403
285 1 1.05832 3.42057 1.89422 -0.0162586 0.466383 0.297513
286 1 5.55067 0.69942 0.747801 0.64857 0.776257 0.00963319
287 1 7.46703 4.45566 0.831718 0.866443 -0.275425 -0.512618
288 1 8.73509 0.637361 6.24387 0.626253 -0.8997 -0.743564
289 1 2.59291 0.309145 1.30774 0.194163 -0.759614 0.188158
290 1 3.06633 7.70882 7.48444 0.527903 1.57014 0.114833
291 1 9.12189 7.56794 2.12584 -0.0665856 0.438294 -0.507148
292 1 2.80651 4.99528 8.86544 0.649639 -0.0937539 -0.0739069
293 1 7.6886 9.31161 5.9165 -0.871697 -0.328288 -0.811851
294 1 6.18033 5.83957 0.215864 -0.867038 -1.00765 -0.237222
295 1 4.41788 4.49288 3.02355 -0.72676 1.34217 -0.471204
296 1 4.61354 6.33673 1.49875 2.10356 -1.6549 -0.528026
297 1 2.36976 4.90099 7.16863 0.726897 0.194015 0.81764
298 1 0.599139 4.82858 5.49765 0.962054 -0.104939 0.412749
299 1 0.242814 7.59964 6.06403 -0.242801 0.653084 -0.123468
300 1 3.40686 8.6033 6.96324 0.363366 0.0027938 1.15015
301 1 4.93422 7.13381 8.65624 0.467447 0.0528336 0.525747
302 1 5.66766 5.39719 3.62489 1.06321 0.786951 -0.125894
303 1 5.19222 3.66749 9.25149 0.786684 0.664285 -0.293216
304 1 2.01313 3.10845 3.19198 0.074469 0.245792 -0.051157
305 1 5.5065 9.2176 7.61069 0.86196 0.791116 0.959867
306 1 1.04828 7.35291 5.39666 -0.637461 1.30355 -0.595356
307 1 4.0917 2.60801 1.78672 1.72203 -0.544508 0.252625
308 1 8.5127 2.33667 7.39265 0.331791 -0.481798 -0.919875
309 1 8.11883 7.04743 6.95617 -0.0118442 2.10767 -0.202628
310 1 8.44738 3.08195 4.64816 0.964161 0.954186 -2.59419
311 1 7.67799 2.50762 2.42579 -0.714662 0.103451 -0.646336
312 1 7.99962 0.656354 4.56215 -0.27679 -0.467167 0.486525
313 1 3.99259 0.869216 7.77341 -0.468235 0.213482 0.780318
314 1 9.38595 2.82447 4.24387 0.51339 -1.73777 0.0753146
315 1 7.24879 4.0088 7.54572 0.100625 0.32093 -0.0242952
316 1 7.24083 2.45458 7.02604 0.28064 1.68168 -1.05847
317 1 5.58849 2.53724 6.34486 -1.05466 0.0277688 0.252222
318 1 4.27738 1.79781 3.62987 0.35367 -1.12434 0.251332
319 1 2.75363 5.27387 3.59067 2.13752 -1.7816 0.386588
320 1 3.03017 4.7628 8.00704 -1.38065 0.872409 -0.845455
321 1 1.18414 6.82416 8.76518 -0.688404 0.807278 0.0528969
322 1 9.19537 3.60858 5.54821 0.200364 -0.602606 -0.721881
323 1 6.87646 5.2194 5.23772 1.14864 0.965483 0.423011
324 1 1.83858 8.05694 2.42847 1.00685 0.722373 -0.749506
325 1 0.2763 7.95486 1.40975 0.243455 0.24436 1.13244
326 1 8.90222 6.64902 4.11965 0.645906 -0.803281 0.172642
327 1 2.06614 6.65698 6.93387 -0.201975 -0.609876 0.310362
328 1 4.57311 7.75798 4.4286 -0.0172091 0.198011 -0.619076
329 1 8.21099 4.13657 3.35257 0.157425 -1.20109 -0.158067
330 1 0.025868 4.25965 7.36417 -0.369265 -1.16092 -0.103333
331 1 4.21066 1.46348 6.13593 -1.35121 1.00162 -0.986363
332 1 7.56864 0.551659 5.37543 0.717924 -0.638383 -1.09672
333 1 2.03999 7.89322 6.90893 -0.197148 -0.382431 -1.29267
334 1 3.64087 2.8084 8.53015 -0.660557 1.41914 1.11049
335 1 4.22313 5.96533 5.86742 1.08163 -0.976655 -0.769548
336 1 8.83591 7.08113 0.375474 1.33944 0.142507 0.250499
337 1 9.16408 6.47351 2.2196 -0.607929 -0.15534 0.544639
338 1 3.42465 6.39746 8.5254 -0.777196 0.838582 1.08648
339 1 2.58547 8.52765 2.93491 -0.15001 -0.324264 -0.510319
340 1 3.37515 8.27595 0.590638 -0.524462 1.1076 0.348972
341 1 6.08537 0.0865092 9.08386 -0.104932 1.82997 0.622248
342 1 4.52402 2.72661 5.53193 -0.0110902 0.0777183 0.496595
343 1 6.08907 5.63609 5.19779 1.68569 0.302659 1.0646
344 1 4.94894 3.05388 8.50472 -0.880313 -0.267529 0.0765472
345 1 4.95267 2.63118 7.27699 0.0422203 0.100201 -0.367489
346 1 0.0999151 6.71682 6.59653 0.467727 -0.976218 0.240258
347 1 8.32087 4.77311 1.76202 -0.388033 0.242283 -0.0250408
348 1 1.48317 6.60485 3.73469 -0.404214 -0.924309 1.25536
349 1 2.0468 9.20606 5.38384 -0.0943437 -1.20579 0.740244
350 1 2.82434 2.81374 6.44381 0.228667 -0.355994 -0.965431
351 1 4.39742 8.88494 2.7832 -0.292512 -0.236131 -0.138569
352 1 0.784533 4.03889 6.50447 -1.06955 -0.725338 0.488005
353 1 7.55069 4.25199 6.44358 -0.0360799 0.210776 1.20788
354 1 4.1947 0.851405 3.83882 -0.496072 -0.560844 -0.155335
355 1 1.68376 0.135883 3.24859 0.404293 -0.106849 -0.226875
356 1 2.21173 5.91585 1.6996 -0.838865 -0.479154 -0.0166591
357 1 5.34689 3.90136 8.21204 -0.484714 -0.772392 0.912851
358 1 9.28018 4.03667 8.29058 -0.562769 -0.471788 -0.140602
359 1 9.3214 1.46188 5.46251 0.0397826 -0.251219 -1.25526
360 1 5.12058 7.0402 1.69962 1.14201 -0.583884 -0.394994
361 1 7.61882 1.4016 2.29926 0.253268 0.114519 1.72969
362 1 2.45832 3.62726 6.39039 -0.305004 -0.0219002 0.0955046
363 1 3.08632 0.239355 3.14784 -0.244244 0.573042 -1.13304
364 1 8.31756 6.20377 4.74064 -1.24024 -0.366623 -0.966475
365 1 8.45773 6.50251 7.65935 -0.959934 -0.232429 0.634871
366 1 6.79391 2.47474 5.10643 0.0836 -0.908401 -0.648939
367 1 5.2943 7.70881 7.39481 1.23443 -0.318755 0.507258
368 1 5.38035 6.10871 8.8133 0.4494 0.962297 -0.391295
369 1 1.67943 2.9953 3.93837 -0.789517 -0.0498068 -1.40574
370 1 7.13002 4.91676 4.12281 -0.331764 -0.377477 -0.339622
371 1 6.708 5.8946 7.48465 0.90899 -0.150516 -0.298969
372 1 4.90421 7.95169 5.87228 1.1342 -0.526345 0.785909
373 1 8.17337 7.80356 6.50866 0.627016 0.822653 0.358366
374 1 0.922948 1.12059 4.58248 0.231354 -0.755435 -0.121411
375 1 3.546 4.74188 2.46364 -0.150806 0.265166 -0.0032797
376 1 7.86422 8.22977 4.50785 1.15399 -0.151854 1.17984
377 1 4.52005 3.52702 3.01157 0.484764 0.520261 -1.55141
378 1 4.77712 4.90259 2.20191 -0.374547 -1.13576 -0.0890183
379 1 8.3963 5.35073 6.32394 -0.727116 0.167196 -0.597394
380 1 1.16987 0.339652 6.01036 -1.15272 -1.40465 0.745461
381 1 0.358849 1.32462 3.78086 0.849186 -1.49166 1.16849
382 1 3.87358 4.8 7.60313 -0.417269 -0.510617 1.04299
383 1 8.74301 8.72884 3.97832 -0.1265 1.06896 0.724189
384 1 8.82684 7.7324 1.13007 -0.43201 -1.27921 1.11043
385 1 1.79727 8.47455 4.31871 -1.26661 0.707225 -0.11895
386 1 8.44765 6.16256 1.8931 -0.934496 -0.788229 -1.04499
387 1 3.10914 1.15129 0.902872 -0.981904 0.237987 -0.0338351
388 1 6.65498 1.81485 1.42526 0.0776964 -0.187142 -1.04345
389 1 8.6306 3.66742 0.362639 -0.0584409 0.588739 -0.543473
390 1 2.71847 4.54864 2.9825 0.328505 -0.739553 -1.27525
391 1 2.40688 3.14526 8.40291 -0.0708677 -0.74921 0.75369
392 1 5.53407 7.47113 5.18053 0.832394 -1.41803 -0.150703
393 1 2.80515 1.17714 8.84787 -1.175 0.373 -0.10542
394 1 1.40894 4.55046 5.45357 -0.664666 -0.222007 0.775251
395 1 1.27587 6.78905 2.00025 1.4355 0.90392 -0.85572
396 1 2.11026 6.61881 8.26098 0.0328839 1.69062 1.29696
397 1 0.287715 0.0816925 1.01119 -0.18403 0.632945 -0.874438
398 1 1.04602 7.65956 6.39406 0.300337 -0.395495 -0.657508
399 1 1.19874 0.418652 2.32432 0.57759 -1.0489 -0.89152
400 1 7.56665 1.77746 3.15876 -1.42757 0.0104522 0.419097
401 1 4.16005 8.80091 3.73678 -0.584076 1.19086 -1.12693
402 1 5.33327 5.28342 4.8813 -0.955413 0.539034 1.99134
403 1 3.69573 5.15154 3.25732 -0.897146 -0.0907935 0.683257
404 1 3.61596 2.35361 6.06112 -0.186089 -2.26167 -0.355262
405 1 8.58335 5.50566 1.33794 1.12669 0.68642 0.296499
406 1 1.79709 1.3902 2.81827 -1.10206 -1.33923 -1.36805
407 1 2.41831 6.39211 4.22536 0.201093 0.321963 0.666927
408 1 8.72509 2.99134 6.90139 0.967524 -0.376864 -0.640853
409 1 4.31245 6.11284 4.97597 0.0931716 -1.41483 -1.81703
410 1 4.71905 4.42123 5.12424 -0.588359 0.38014 1.71233
411 1 2.80105 5.70051 8.2936 0.528485 -0.90316 -0.014329
412 1 1.93186 4.14225 0.9619 -0.84883 0.947075 -0.564014
413 1 1.41232 2.02177 6.30532 0.506246 -0.165521 0.189358
414 1 0.181098 0.412587 5.93949 -1.69774 0.687942 -0.747309
415 1 7.28638 7.57018 8.16986 -1.45889 -0.798325 1.64951
416 1 4.06498 5.03279 5.12536 0.0334356 1.28815 0.0305045
417 1 8.81118 8.98756 7.94834 -0.98298 1.2543 -0.183252
418 1 8.03448 8.28329 3.53333 -0.405774 1.41992 -0.656856
419 1 8.07856 8.9596 8.39535 -0.356361 -0.49831 -1.29728
420 1 1.76137 1.99492 0.187856 0.106951 0.767772 1.3742
421 1 5.10097 8.53776 6.64793 -0.271597 -0.867282 -0.241315
422 1 4.78655 3.50909 1.67832 -0.224934 1.15843 -0.150273
423 1 2.31355 8.98098 3.66391 1.64873 0.18737 0.483525
424 1 3.83595 5.18209 1.22266 0.961436 1.46621 0.384533
425 1 5.16871 3.49215 4.76377 0.854195 -0.16261 -0.0866546
426 1 6.82877 2.29989 2.3101 -0.582427 0.380086 1.00649
427 1 9.0204 3.83278 2.99906 0.847047 -0.166429 1.84667
428 1 3.36315 2.76322 4.74003 -1.17512 0.32755 0.643735
429 1 6.95824 8.5462 8.55703 0.559825 -0.44773 0.601967
430 1 7.63682 6.7107 4.3389 0.772384 0.458634 0.232387
431 1 8.18128 5.95385 6.95688 -0.595486 -0.756604 1.15731
432 1 1.08085 1.97356 8.03137 -0.686178 -0.361159 0.855222
433 1 5.84713 8.38617 6.07404 -0.170599 -0.151953 -1.44679
434 1 7.29731 2.71503 3.18856 0.993875 -0.296942 0.545525
435 1 1.06631 9.35445 8.85348 -0.083169 0.807324 0.581572
436 1 0.56443 2.92057 7.07176 0.00365008 1.7136 -0.216477
437 1 6.83552 6.22706 4.50546 0.262688 0.484303 -0.334852
438 1 0.448964 6.91321 7.4864 0.813009 0.455758 0.953305
439 1 3.86446 7.00121 5.7242 -0.391136 -0.38266 -1.43865
440 1 5.79478 6.78102 9.23649 0.178675 0.877827 -0.252002
441 1 1.12943 4.71957 3.93192 1.03606 -0.302554 1.51368
442 1 4.64324 4.54042 1.29176 1.23167 0.982895 -1.42387
443 1 6.09064 2.56015 2.78985 0.270428 -2.0444 -0.85137
444 1 8.51708 5.25132 4.95605 -0.314297 0.305055 0.117478
445 1 2.47973 0.0723469 2.38439 -0.169991 -1.01146 -0.688712
446 1 6.56217 7.21994 7.61492 0.873419 -1.93182 -0.00336363
447 1 4.95234 3.18704 3.78204 -0.093561 -1.30125 0.599658
448 1 2.71908 8.43422 4.61518 -0.992817 -0.794554 0.15543
449 1 1.11976 0.841345 3.14471 -1.39622 -0.706145 -0.137405
450 1 3.18021 5.853 1.47318 -0.0418781 0.472524 0.898655
451 1 3.94376 5.98253 2.94012 -0.253419 0.157016 1.03482
452 1 6.17772 3.15611 1.73453 0.375826 -0.593147 0.0029825
453 1 3.27264 0.617125 5.20177 0.702167 -0.403948 0.398503
454 1 4.98912 3.90588 7.24678 -0.617556 1.11505 0.392237
455 1 5.51795 4.82741 5.76044 -0.0488992 1.63296 -0.321006
456 1 1.56898 9.23246 8.03382 -0.697036 0.585415 0.362354
457 1 7.3501 9.16875 7.75688 0.484158 -0.884308 1.37893
458 1 5.58647 2.03922 3.79973 0.622168 0.220432 -0.397959
459 1 7.5169 8.7678 9.16191 0.937307 -0.162753 0.0861208
460 1 5.27276 0.57036 8.44991 0.362389 -1.31467 -0.199824
461 1 5.97241 6.40651 7.85991 -1.61209 -0.763614 0.452546
462 1 1.26742 1.13811 1.67721 1.25903 0.77984 0.186619
463 1 1.39942 5.65532 4.11553 -0.710214 0.0616391 -1.1449
464 1 8.29771 5.86438 5.58215 0.362244 -0.206371 0.374707
465 1 2.52005 3.16208 2.308 0.00996703 0.830531 -0.192561
466 1 8.72143 2.011 4.96614 0.58614 0.219893 -0.226484
467 1 5.82386 7.39944 6.09481 -1.0495 0.138424 0.525262
468 1 2.44282 2.86019 4.51766 -1.53587 -0.121935 -0.0433254
469 1 5.93058 1.56947 7.69066 0.37137 1.27468 0.138987
470 1 2.78479 8.57396 1.94245 -0.874423 -0.166171 0.0182837
471 1 0.714611 4.36328 8.2313 0.507034 1.57464 -0.702039
472 1 5.75671 3.96673 2.4686 0.205114 0.613436 0.142959
473 1 0.121346 2.98557 0.397355 -0.305295 -0.103107 0.765607
474 1 6.98203 3.3263 3.82833 -0.314182 -1.02506 0.827119
475 1 6.89612 0.290641 8.51894 0.337147 -0.502574 1.14729
476 1 5.65614 6.9384 3.2949 1.7744 0.388468 -0.300688
477 1 0.724068 1.9654 5.57151 -0.535473 0.0586401 1.20917
478 1 2.26485 2.6085 9.2887 1.07151 0.845173 -1.04967
479 1 8.0342 2.73856 1.17712 1.07548 -1.46411 0.102663
480 1 4.6447 8.71515 7.34862 0.0220926 0.600313 0.459889
481 1 5.778 7.57246 8.18447 0.721402 0.187208 0.645031
482 1 9.12337 8.19247 0.323313 -1.51119 -1.83002 0.348865
483 1 1.73529 8.43094 6.16283 0.252558 -0.324571 -1.02802
484 1 8.84493 7.08983 8.24497 -0.489112 0.932847 0.247032
485 1 5.36345 5.41921 0.186844 0.330418 -0.461347 0.556102
486 1 7.14293 4.36116 5.4517 0.783182 1.38338 0.985212
487 1 4.66401 0.168795 2.10977 0.877064 -2.1288 0.732917
488 1 8.9148 7.8061 3.078 0.758257 0.577909 -0.219314
489 1 6.62217 1.30656 4.74505 0.507249 0.333261 -0.990755
490 1 0.856405 8.73366 7.6312 0.557724 -0.556367 0.568563
491 1 8.43537 2.1432 2.00243 -0.510574 -0.448555 0.227467
492 1 7.43401 5.24698 7.24027 0.724497 -0.26929 0.560744
493 1 6.18585 4.84561 0.347542 0.593758 -0.461752 1.60583
494 1 7.57374 5.02779 0.167648 0.65643 0.960797 -0.744322
495 1 5.28594 0.900907 7.56083 -0.422912 -0.123853 -0.950308
496 1 8.33838 6.27736 3.54058 -0.473662 0.536891 -1.63073
497 1 0.835871 5.95277 6.62909 0.665572 -0.427385 -0.068317
498 1 0.544771 7.09251 0.045529 0.449885 -0.214813 -1.21776
499 1 5.67742 3.91337 5.55854 0.985712 -0.717581 0.601165
500 1 5.45018 8.43504 5.16613 -0.657873 -0.930637 0.565017
501 1 7.91769 3.91457 5.57523 0.909458 -0.44082 0.339385
502 1 8.29091 5.5412 2.9592 0.174699 0.276435 0.296113
503 1 8.63613 7.03298 6.21205 -0.517909 -0.104004 0.836093
504 1 5.20247 1.84097 0.493877 -0.0158108 1.48763 -0.35527
505 1 1.55789 2.28366 3.10015 -0.613415 -0.0626672 -0.681552
506 1 4.39402 1.64762 5.2598 -0.12863 -0.22885 -0.175841
507 1 9.32817 1.88542 2.92085 -0.596135 0.656341 0.0700535
508 1 5.10619 0.278108 9.35161 0.839525 0.168051 0.377834
509 1 0.965462 4.41475 2.23487 -0.116346 -0.4799 1.21215
510 1 8.87974 7.75782 4.03625 -0.407437 -0.0944396 -1.29641
511 1 7.74439 3.39916 1.95324 -0.6292 -1.19016 0.864837
512 1 2.3781 5.07536 1.05318 -0.289283 1.0138 0.580537
513 1 7.58987 6.40972 6.20191 -0.618197 1.83655 0.5648
514 1 6.52169 4.10953 0.745507 0.756307 -0.193992 0.278032
515 1 8.21056 8.88202 6.51869 0.808101 -0.325153 -0.414599
516 1 7.92599 6.51416 2.57167 1.0499 0.23714 -0.116309