ITEM: TIMESTEP
488900000
ITEM: NUMBER OF ATOMS
1000
ITEM: BOX BOUNDS pp pp pp
0.0000000000000000e+00 9.4000000000000004e+00
0.0000000000000000e+00 9.4000000000000004e+00
0.0000000000000000e+00 9.4000000000000004e+00
ITEM: ATOMS id type x y z vx vy vz
1 1 7.82714 7.63176 3.71161 -0.778377 0.291469 -0.516122
2 1 3.94868 1.34611 7.81106 -0.134061 -0.410351 0.538375
3 1 0.447423 6.95013 0.164147 0.431916 0.0185132 0.58373
4 1 2.21968 0.270486 5.18463 2.05527 0.231743 -0.336641
5 1 8.19231 3.24537 9.28295 1.52433 -0.85221 -1.09387
6 1 8.26675 8.60363 2.23071 0.273407 -0.84153 -0.692406
7 1 1.87155 6.20083 4.097 0.863829 -0.319989 1.40799
8 1 1.71811 7.98652 4.40076 0.614742 0.193282 -0.0441908
9 1 7.43138 4.66304 2.07858 0.832429 1.16936 0.900395
10 1 6.78979 1.54006 1.15085 0.435297 -0.419943 -0.879022
11 1 5.70979 2.8161 2.99338 0.215995 1.84882 0.886602
12 1 1.0618 2.97752 2.80917 -1.65635 -0.423743 -1.12572
13 1 7.89603 3.56667 6.37286 1.21975 0.769188 0.150132
14 1 1.95043 3.70412 5.65142 0.426634 -0.745248 0.314276
15 1 1.84282 2.42598 8.40657 0.178514 -0.888015 0.34806
16 1 7.86259 2.64747 0.518312 -0.670265 -1.64447 -0.298056
17 1 1.31477 4.03723 1.54135 -1.31594 0.478507 0.926913
18 1 4.90596 4.69689 3.37937 1.14887 -0.795914 -0.189571
19 1 3.8429 6.44043 4.54106 -1.18595 1.19096 0.448888
20 1 7.92493 8.39508 7.71132 -1.8895 -0.880405 -0.138467
21 1 0.236052 3.11245 7.55788 -0.422351 -0.0101007 0.25082
22 1 2.88331 7.77583 5.85982 -0.050667 -0.315682 -0.835271
23 1 4.20286 6.98019 2.91481 -0.0227927 0.569453 0.197785
24 1 0.50038 9.0237 2.40404 0.584381 0.0323568 -0.601713
25 1 6.6395 7.05422 7.09691 0.426174 -0.357888 -0.864254
26 1 6.80136 8.28884 1.43954 -1.20577 -0.897 0.644145
27 1 6.05543 6.52833 6.70584 0.314714 0.716962 0.579356
28 1 0.0471811 4.49526 5.10639 -0.889325 0.585758 0.449024
29 1 8.8217 2.47651 9.3414 0.537341 0.0957107 -0.6041
30 1 3.62731 7.48562 9.38207 0.583453 -0.71128 2.01898
31 1 8.37817 5.6995 7.31382 0.649673 -0.430679 0.520009
32 1 7.68118 1.72644 8.87569 -0.810387 -0.309742 -0.266314
33 1 0.418383 2.86803 8.54794 0.469047 0.797531 -1.54297
34 1 2.7168 2.09354 8.36488 -0.196739 0.201092 -1.01646
35 1 1.09098 5.42711 0.59445 -1.55585 0.0596329 -0.278816
36 1 0.110968 9.30794 1.50255 -0.946668 -0.9004 -0.354805
37 1 3.38342 7.31621 5.33513 -0.393105 0.709286 -0.117544
38 1 4.32992 5.60527 6.16292 -0.47533 0.143138 0.144387
39 1 9.33408 5.22933 7.10974 0.33883 -0.342293 0.656926
40 1 4.99099 4.63905 4.42698 -0.853898 0.152237 0.0809262
41 1 5.80538 0.511507 5.86175 -0.709299 -0.413518 -0.16043
42 1 4.83385 2.34344 6.49891 1.67032 1.34013 0.0419868
43 1 1.2148 2.4327 6.42667 0.183332 0.125595 -0.586132
44 1 4.43532 7.76763 6.63543 -1.41692 -0.17236 1.06661
45 1 1.00399 2.28051 9.01393 1.33225 -0.825447 0.98166
46 1 4.40828 2.38987 7.3114 1.73981 0.527245 -0.202296
47 1 3.11682 6.79216 2.69817 -0.26474 -0.150068 0.461838
48 1 0.801712 4.186 4.79898 -0.301045 0.741507 -0.136159
49 1 8.48201 1.78228 1.62398 -0.262802 0.890914 0.480697
50 1 6.34609 6.99116 0.510048 0.725607 -0.162902 -0.611393
51 1 6.86383 3.0897 5.02741 1.31412 -1.19559 0.537838
52 1 1.98654 1.14976 1.42488 0.422159 1.43956 1.70579
53 1 1.19117 3.91127 3.12065 0.901196 -0.575951 -0.0284673
54 1 6.74755 1.42491 8.82556 0.115177 1.70778 0.784057
55 1 7.38609 1.52177 0.357868 0.344093 -0.65248 0.527535
56 1 0.582316 3.75626 0.0215853 -0.246946 -0.141516 1.27259
57 1 2.3859 1.8448 5.29865 -0.267181 1.21208 -0.951544
58 1 1.8672 0.655796 8.88731 -0.963063 -0.0920814 -0.377255
59 1 2.2592 7.11727 4.1071 0.408121 0.348785 1.94364
60 1 1.70716 2.08639 3.23902 1.25762 -0.614207 -0.314723
61 1 5.91839 4.42129 6.94573 0.655909 0.280785 0.451586
62 1 6.81154 0.316927 1.40986 -0.486056 1.45652 0.810233
63 1 8.03957 8.24686 1.35458 -0.596182 0.174447 1.33656
64 1 3.20591 0.411457 6.84003 0.172299 1.43139 0.625045
65 1 7.28777 3.91933 6.85227 0.589625 0.635115 1.09065
66 1 9.14446 8.10934 7.29115 0.374572 0.655653 -0.725768
67 1 8.93752 5.63806 0.0465851 -0.403499 0.86279 -0.113694
68 1 8.90202 8.21524 3.87941 0.287789 0.584856 -0.304602
69 1 5.49624 3.01261 6.37986 0.443458 -0.307862 -0.001956
70 1 4.71484 1.92539 0.160042 -0.842708 0.0551623 -1.14871
71 1 8.61714 1.65362 6.96242 -0.207926 0.711967 0.0164378
72 1 5.14718 7.30564 4.17183 0.254024 -0.637409 -0.841187
73 1 5.20811 4.37662 9.24929 0.0803061 0.60774 -0.858972
74 1 8.57268 4.90193 4.83531 1.43207 0.212292 0.117052
75 1 5.60515 2.34643 5.1828 1.01245 -0.342439 -0.998208
76 1 2.619 8.6884 1.85504 -1.37753 -0.803691 0.871776
77 1 2.91838 6.77994 8.60081 0.0323819 1.6582 0.0715904
78 1 2.82331 5.72918 7.43072 0.863956 -0.309839 -1.08141
79 1 2.40478 4.78931 0.890526 0.600827 0.297732 0.0673082
80 1 8.42713 4.14385 6.83404 -0.229852 0.337511 1.66824
81 1 4.69214 2.10857 5.62386 0.636367 -0.414919 -0.147602
82 1 8.6582 9.10049 8.40261 -0.848592 -0.973077 -0.81712
83 1 7.39082 2.14502 1.31893 1.18395 0.531436 -0.598863
84 1 8.91051 8.13987 9.20163 0.106672 -0.764414 0.681696
85 1 6.0544 1.35624 6.22987 1.36265 0.226997 0.619531
86 1 7.11055 3.14229 6.22906 0.429822 0.076477 0.0165155
87 1 4.51175 3.11861 6.27888 -0.349471 0.455839 0.141083
88 1 1.62666 1.173 5.96323 -0.528418 1.12913 1.6352
89 1 6.145 5.03549 2.28134 -0.370246 -0.637249 -0.75273
90 1 1.0618 1.47162 3.41968 0.00310767 -0.667244 1.16691
91 1 0.406683 6.51109 7.22375 0.814355 -0.444133 -1.36401
92 1 1.70314 8.24241 3.34825 -0.361783 0.72833 0.687991
93 1 3.30058 1.8283 1.35225 -0.885085 0.0241099 -0.0555885
94 1 7.65096 8.66306 6.78066 -0.557291 0.50225 0.587542
95 1 7.19548 5.84049 4.60924 -0.716072 -0.50903 -1.30339
96 1 2.84839 5.12071 0.220176 -0.22293 0.934717 0.0397633
97 1 7.90711 0.778669 7.19979 -0.0879156 -0.708999 -0.12276
98 1 6.53902 5.59695 1.67632 0.708047 -0.290612 1.35041
99 1 4.674 5.01745 8.75846 0.128823 -0.144125 -0.351328
100 1 0.584747 8.10776 6.47071 -0.330194 0.0841063 -0.283735
101 1 1.44716 4.31196 8.35199 -0.650228 0.895673 -0.219252
102 1 7.51476 5.39853 8.38425 -0.569022 0.0641967 -0.278651
103 1 5.31007 6.96825 5.89417 0.977333 0.959146 0.556296
104 1 5.65197 5.88026 1.99045 1.064 -0.210585 0.533469
105 1 3.42163 6.99344 6.9441 -0.452277 1.45584 -0.260907
106 1 6.127 8.53115 3.01933 0.238706 1.52748 -0.836279
107 1 9.01277 3.37944 6.73419 -0.19974 0.749053 1.02625
108 1 0.185032 6.9751 4.54649 0.815003 0.215042 1.27675
109 1 5.45156 5.43001 6.40248 -0.0982763 0.255226 0.147922
110 1 0.260509 0.476757 2.52132 -0.243254 0.223141 0.165562
111 1 3.87715 7.22655 1.73725 -0.941908 -0.3955 0.260856
112 1 1.02587 5.08829 6.57776 0.459595 0.0295358 -0.989523
113 1 9.00186 3.21302 1.64346 -0.525445 -0.424198 0.16615
114 1 3.34941 1.24932 6.39694 0.593751 -0.305449 0.389885
115 1 4.95905 8.89719 6.54943 -1.26682 -0.0114921 0.0938194
116 1 6.25589 9.08401 1.62306 1.28187 0.500263 0.225491
117 1 0.462684 1.43694 4.12223 -0.434155 -0.408355 -0.0813908
118 1 9.28956 5.95652 1.62274 -1.05225 -0.823667 0.791787
119 1 6.16059 9.28446 0.0671859 -0.0390402 -0.0710399 -0.517086
120 1 4.48583 2.80749 0.467946 -0.415469 -0.45821 0.189328
121 1 4.97652 7.7841 1.5106 -0.145663 -0.376711 -0.11689
122 1 1.44543 3.62775 7.65379 -0.0808404 0.439014 0.491095
123 1 7.37812 0.53141 4.7609 -0.762775 -0.616665 -1.09814
124 1 5.37138 0.419251 7.92527 -0.247221 0.0360763 0.825999
125 1 4.84745 2.31975 8.05277 1.47624 -2.44406 -0.0971709
126 1 9.02811 8.42167 5.49639 0.47974 -0.793532 -0.520453
127 1 7.04663 5.54212 5.45205 0.0225961 -1.44673 0.451393
128 1 6.64401 5.94314 8.53515 1.25911 0.610417 0.505296
129 1 4.37895 6.84704 6.13886 -0.0611066 1.81635 0.582579
130 1 3.86898 2.59833 5.85674 0.0370116 0.240814 0.0672903
131 1 2.24421 8.27868 6.19994 0.235219 0.855874 -0.643146
132 1 5.90559 7.38061 6.53806 1.96791 0.344076 1.06986
133 1 1.50123 0.336016 0.578746 -0.909521 1.2995 -0.461526
134 1 0.506013 6.53042 5.30256 -0.0159407 1.15808 -0.544552
135 1 4.97041 8.5521 9.25514 1.92695 0.173191 -0.000227492
136 1 8.52224 6.47303 5.87389 -0.51398 0.456828 0.271516
137 1 3.02021 1.12381 7.53671 0.766627 -0.0981185 0.687342
138 1 4.81228 4.49211 2.52017 -0.346141 0.676395 0.263432
139 1 8.14356 6.42771 1.48191 0.676459 -0.606983 0.730401
140 1 5.57322 1.14682 3.42051 1.01181 -0.673078 -0.854097
141 1 0.136166 2.23642 4.12934 -1.19685 -0.504213 0.0722013
142 1 8.22431 0.57492 0.259896 0.0939013 -0.14368 0.443743
143 1 5.31249 3.82756 6.56527 -0.325686 -0.53229 -0.748623
144 1 9.00193 6.94336 1.69163 0.0124907 -5.53894e-05 -0.488196
145 1 6.47868 3.43331 7.3101 0.702487 0.508804 -0.0938623
146 1 0.334109 7.85508 0.240809 -1.25535 0.681619 0.350817
147 1 7.82669 7.83492 5.26835 -0.104345 -0.559438 -1.07532
148 1 3.96628 1.69515 3.76899 -1.07411 -0.234768 1.35781
149 1 0.704058 5.60369 7.58215 0.537028 0.559887 0.012559
150 1 6.37985 5.94975 2.44656 0.402311 -0.224507 1.87762
151 1 3.07084 4.00005 3.53482 -0.112536 -1.48539 -0.625563
152 1 3.68406 8.6357 1.15862 -0.125328 0.178519 -0.131682
153 1 7.157 0.321427 3.35668 0.268996 -1.08087 -0.953914
154 1 0.349179 1.31747 7.88246 -0.20535 0.129816 -0.494256
155 1 7.18606 4.68275 3.98605 -0.961131 -0.487162 -1.02679
156 1 2.04147 6.20206 6.46624 0.629399 -1.16696 0.618628
157 1 6.87724 0.766988 2.40562 0.410179 0.128036 -0.512023
158 1 8.12076 7.73673 8.57935 -0.847812 -1.05725 0.522868
159 1 6.16227 0.45888 3.04334 0.148494 -1.11307 0.00783294
160 1 8.0624 1.0292 6.17627 -0.383159 1.40269 -0.245044
161 1 7.33555 6.34796 5.73041 1.37253 0.493443 0.563189
162 1 5.07441 3.68733 1.93643 0.767697 -0.000423058 0.290627
163 1 0.141931 0.473899 7.63795 -1.00106 -1.26525 0.567172
164 1 3.09445 2.25585 4.6791 0.426477 1.11314 -0.67014
165 1 8.84155 4.15115 1.33064 -0.661723 0.99458 -2.16125
166 1 3.8946 2.70769 1.67284 1.58866 -0.994451 0.517768
167 1 3.41382 5.08084 3.20396 2.26956 0.553767 0.0215091
168 1 0.36279 5.45745 8.71966 -0.849435 -0.316271 -1.06073
169 1 1.09659 7.33421 4.64137 1.32335 1.71921 -0.923278
170 1 2.46825 0.162808 1.1163 0.622822 1.03812 0.285493
171 1 2.02264 4.45025 2.90985 -0.114061 -0.883157 -0.968685
172 1 8.78149 9.31809 2.39925 -0.0472668 -0.404005 0.217357
173 1 5.53998 3.89346 3.59882 0.300746 -0.195126 0.523009
174 1 1.83669 0.872119 2.91734 0.748364 -1.10373 0.292454
175 1 7.17613 7.63706 4.39091 -0.439001 -0.105003 1.17731
176 1 8.26569 4.83167 2.48147 -0.300343 0.655307 0.499884
177 1 6.51805 7.25879 8.20851 0.377779 1.01112 -1.52816
178 1 8.07991 3.53425 1.89862 -0.656009 -1.88226 -0.0173489
179 1 9.20511 4.16028 0.467155 -0.22714 -0.556646 -0.0432148
180 1 5.78954 6.22019 3.00821 -0.0144684 -0.220782 -0.367991
181 1 6.57907 4.35292 2.57094 -1.36996 -0.150415 0.921559
182 1 1.30188 7.41336 0.310635 -0.69098 -0.336672 -0.612992
183 1 2.89222 2.94103 3.0209 1.01266 -1.01249 -1.12405
184 1 0.515261 4.52781 2.87362 -0.262233 -0.803258 0.0896232
185 1 4.97844 8.90808 3.76739 -0.0428697 -0.509959 0.53558
186 1 3.29052 8.21464 4.24515 0.948315 -0.558316 -0.0299109
187 1 0.134899 7.48656 5.76091 -1.34775 0.55142 0.915993
188 1 5.012 3.33675 9.35075 0.121065 -0.781008 0.639121
189 1 6.12335 2.79592 5.6768 -0.957213 -0.536186 0.761425
190 1 0.863112 9.31214 0.281654 1.22286 0.418277 -0.43795
191 1 1.54671 9.02311 5.27317 -0.346015 0.0904161 -0.68509
192 1 2.26767 6.4974 0.440266 1.03911 0.647138 -1.05663
193 1 3.43448 5.60887 4.52068 0.910338 0.10811 -0.421053
194 1 3.95871 4.63093 6.00035 -0.907953 0.201776 -0.112358
195 1 8.97541 0.723342 5.86433 -1.27108 -1.33376 -1.01018
196 1 1.39433 0.938842 7.29262 -2.24892 -1.22203 -1.26301
197 1 5.27282 7.18455 2.98497 0.703553 -0.248691 0.308271
198 1 7.37821 3.83562 4.89636 -0.463714 0.228315 -0.633763
199 1 4.51066 3.22695 5.36182 -0.883467 0.515553 -0.0524553
200 1 1.30566 1.57707 6.56117 -0.0583841 0.322166 1.56829
201 1 0.0516596 6.77097 8.08114 0.29935 0.0383983 0.0587085
202 1 8.19515 4.02917 0.486475 -0.824212 -0.486038 -0.634807
203 1 1.19351 6.44792 0.31715 -0.269716 -0.854381 -0.692404
204 1 1.99025 4.44709 1.89116 -0.536592 1.3994 -0.923504
205 1 7.83857 0.0937085 2.70977 0.790117 0.477959 -0.448666
206 1 9.00728 0.697674 1.89288 -0.230267 -0.333013 0.709131
207 1 4.18264 1.7862 6.59969 0.218752 1.63027 0.238414
208 1 5.09065 4.41059 8.27366 -0.892899 -1.02505 0.303946
209 1 1.8219 5.69698 3.41512 -0.306587 0.681124 -0.372509
210 1 6.15474 3.90677 0.347042 -1.40262 0.664226 -0.202516
211 1 9.07474 0.976095 9.40032 2.14951 -0.618717 0.461339
212 1 3.64217 0.722679 3.89137 -2.53574 0.47183 -0.214573
213 1 4.39136 5.92885 5.08954 0.0322807 1.23809 0.208163
214 1 5.20742 3.61621 4.58081 1.52883 -0.158524 0.944302
215 1 7.58108 1.03739 2.9054 -1.16077 1.01441 -0.59507
216 1 4.32008 6.5344 6.96517 1.04843 -0.93284 -0.964505
217 1 6.67738 0.480158 7.11173 -0.119026 0.559693 0.29595
218 1 1.766 7.23476 2.85513 1.27084 -0.0327339 1.60292
219 1 8.92161 9.20683 5.93739 -0.51869 0.582153 1.15542
220 1 0.431634 1.31546 5.6897 0.949716 -0.397495 0.104404
221 1 2.2191 5.26642 7.92204 0.467948 -1.34072 -0.586161
222 1 8.54019 9.28208 1.4802 -0.64065 0.27568 0.430335
223 1 4.8472 5.37661 1.78325 0.500229 -1.44286 -1.71709
224 1 0.0559215 7.49507 8.83953 0.00324487 0.0187359 0.630995
225 1 6.39268 2.02283 2.43423 -0.697161 0.579391 -0.871898
226 1 6.07804 5.63866 7.06293 0.587402 0.396387 -0.22542
227 1 3.07905 4.44519 1.5657 -0.632465 1.42363 -0.220035
228 1 2.7165 1.09118 2.70866 -0.487632 0.633184 0.11066
229 1 2.95364 7.09342 0.307462 -0.0367411 -0.549219 0.361325
230 1 5.42035 6.28582 7.31753 0.456616 0.399406 1.96963
231 1 6.32677 2.61926 0.785629 0.338131 -1.80967 -0.510318
232 1 6.34237 3.52941 3.41685 -0.0384631 0.486193 -0.11613
233 1 4.60023 0.227718 2.35626 -1.24788 -0.616642 -0.137342
234 1 3.92181 2.21511 8.1226 -0.482216 0.566794 0.628685
235 1 0.359803 1.35288 2.0824 -0.87529 0.0701846 -1.27488
236 1 3.61436 6.05234 2.62277 -0.368262 -0.875663 0.275305
237 1 4.6098 8.20099 8.36969 -2.21849 -0.393319 -1.3245
238 1 1.44369 8.31891 2.34954 -0.106428 -1.64761 0.116262
239 1 4.19627 2.56722 4.05799 0.493912 0.287887 0.344194
240 1 7.32501 4.95406 0.98861 0.535844 0.15979 0.860644
241 1 0.722708 6.71257 6.16383 0.951267 0.246079 -0.389256
242 1 0.237262 0.959922 1.27051 0.00632812 0.318601 0.470829
243 1 4.19107 7.36483 7.46369 0.460294 -0.709528 -0.281067
244 1 5.86823 8.1864 1.88525 0.442996 -1.12128 0.465699
245 1 6.48083 7.98932 7.4311 -0.171906 -0.344519 -0.108858
246 1 3.28008 9.02721 0.314931 1.60909 0.90071 0.187892
247 1 8.03382 5.93934 2.49829 1.76664 0.0343749 -0.372724
248 1 2.88115 2.80074 7.86937 -0.543527 0.800023 -0.636909
249 1 7.60889 8.96872 1.55827 -2.26929 -0.0972079 0.565768
250 1 9.28484 5.99862 7.75533 1.2787 0.960919 -0.189827
251 1 6.42967 2.96836 8.95815 -0.356635 0.0859995 0.26865
252 1 6.4956 1.96651 3.7885 0.172722 -0.477293 -0.513422
253 1 7.93584 4.60951 5.98201 0.59627 -0.214488 -0.638064
254 1 6.06955 4.70361 9.3774 0.468985 -0.228575 0.273076
255 1 3.64985 6.39333 5.51818 0.518473 0.438245 0.753201
256 1 2.88533 3.2901 6.32588 -0.463497 -0.398296 0.967008
257 1 7.71025 7.68279 2.84289 -1.99546 0.388528 -0.487347
258 1 9.00255 1.7969 4.8279 -0.555186 -0.431514 -0.0321144
259 1 6.77539 2.22991 9.37252 1.06298 -1.4515 1.13647
260 1 5.80551 7.32604 1.29962 0.436582 -0.795513 -0.147496
261 1 8.17157 4.1262 5.29107 -0.323695 -1.18422 0.302598
262 1 8.09587 2.67808 1.56831 0.0722703 0.601346 -0.566102
263 1 4.83359 3.4735 8.29896 1.2785 -0.595686 -1.87707
264 1 1.58057 9.24315 2.82645 -0.165024 -1.12608 -0.698322
265 1 2.90464 2.76352 1.34741 -0.482134 0.89665 -1.0086
266 1 4.58182 0.749272 1.20961 1.03314 1.33961 -1.70415
267 1 5.66084 6.25096 4.09129 -1.10722 -0.86361 1.14392
268 1 7.36193 2.78333 2.20824 1.29375 -0.619606 -0.615856
269 1 6.80119 9.31876 4.35594 -0.651817 -0.600642 -0.423976
270 1 6.4632 3.66409 1.34996 -0.317112 0.0354308 1.10782
271 1 9.04285 6.13664 6.78487 -0.570575 -0.968674 0.525953
272 1 6.25487 6.58679 1.45331 -0.668219 0.677417 -0.482478
273 1 0.564119 1.35136 8.89543 -0.533559 0.16411 0.879052
274 1 2.2195 4.11048 7.54042 -0.0607503 0.205156 -0.0397973
275 1 0.0397507 6.01382 5.91525 -1.34785 1.7163 0.40415
276 1 7.79198 7.1025 5.82957 0.605366 -0.262445 -0.604982
277 1 1.8331 8.02859 5.40368 -0.236837 -1.10419 -0.887321
278 1 7.31311 0.792659 9.23806 0.58483 0.564756 -0.936821
279 1 2.66556 8.4445 8.07964 0.300955 0.818253 1.28092
280 1 4.72526 6.8839 1.30774 0.629893 -0.087736 -1.0639
281 1 1.4416 9.3435 6.10874 1.09959 -1.07839 -1.36196
282 1 6.39835 8.94399 5.23347 0.33561 0.591528 0.309448
283 1 3.69278 5.25441 8.84096 0.193516 0.201824 2.09747
284 1 7.22807 4.86009 2.94291 0.245135 -0.375039 0.267332
285 1 2.07457 6.52123 8.8156 -0.0732087 0.681801 0.0850071
286 1 8.8388 3.89117 6.01978 -0.343208 -0.0262524 -1.06137
287 1 5.58293 6.81458 2.02551 -0.34785 -0.111124 0.91668
288 1 5.66359 4.53606 2.94761 0.400585 -0.0864054 1.15847
289 1 6.21347 0.910038 3.95382 -0.530276 0.844718 -0.637432
290 1 1.42931 2.93782 0.266995 0.319503 0.671859 -0.0381452
291 1 3.3248 2.00576 7.52098 0.385213 -0.0737727 -1.67541
292 1 5.91765 7.61183 2.56934 0.158698 -1.22653 1.12687
293 1 4.81427 2.56085 8.87288 0.516838 1.2923 0.138287
294 1 3.46359 0.538875 8.09034 0.130362 0.136113 -0.993748
295 1 1.00875 3.49427 0.863302 -0.0397078 -0.0685507 0.591232
296 1 1.80017 8.8488 6.77947 1.03893 0.140353 1.12087
297 1 8.40888 0.307776 3.34561 0.0715189 -0.604176 -1.49085
298 1 7.41488 8.34667 0.815399 0.779968 1.67675 1.46594
299 1 0.818659 7.16843 2.93566 0.960007 -0.734253 0.817208
300 1 8.62269 2.68694 6.14083 0.227214 1.37048 -0.617501
301 1 9.39366 2.26507 8.06359 -0.429367 -1.29722 0.223712
302 1 1.15096 6.89543 8.77944 -0.545036 0.339689 -0.603288
303 1 7.83411 8.31636 4.43904 0.777196 -0.395985 0.19663
304 1 6.10254 0.51282 2.03312 -0.111445 -0.428917 0.415629
305 1 1.91931 7.08588 5.11895 0.198529 -0.3758 0.302942
306 1 5.28764 5.18887 7.58096 0.636071 0.080205 0.135863
307 1 1.26772 6.45728 2.99828 1.23214 0.45693 -1.10688
308 1 1.90807 8.89228 0.700904 0.340102 0.0433826 0.319615
309 1 9.04508 0.422767 0.884255 -1.11418 0.467232 -0.450401
310 1 0.227214 3.67966 2.98269 0.315311 1.40906 0.854677
311 1 2.68881 5.6364 3.68831 -0.566364 -0.853328 -0.298591
312 1 7.97629 6.98013 9.12219 0.770471 0.376915 0.139153
313 1 8.24537 2.62626 8.47218 0.516045 0.277821 0.305198
314 1 2.96679 4.92873 8.55817 0.0294493 -0.379375 -1.18954
315 1 4.07701 3.30353 4.46824 0.558133 0.144482 -0.339534
316 1 4.09977 1.38012 0.797074 0.438461 -0.110844 -0.447309
317 1 2.89939 2.4951 0.32063 0.533299 -1.08286 -0.606426
318 1 2.01895 7.68424 7.12113 0.941018 -0.655458 -0.941758
319 1 5.69121 8.00737 3.57478 0.439465 0.710569 -0.448885
320 1 0.986733 6.07846 8.37832 -0.0172359 -0.14303 -0.908679
321 1 7.04042 2.26217 8.354 0.0757375 -0.820924 1.21452
322 1 2.23358 3.92012 6.64476 -1.40378 -0.0933687 0.249621
323 1 4.72148 6.23592 4.3389 0.261065 0.211134 0.776946
324 1 4.09612 0.0828716 1.3902 -0.976478 0.631224 0.571639
325 1 6.53964 4.25442 5.06892 -0.0927287 -0.105039 0.550161
326 1 3.9799 8.10876 3.58711 -0.0128409 -0.603838 -0.329426
327 1 1.82697 3.69797 9.21863 -0.908084 -0.621355 -0.599712
328 1 2.09751 0.219593 4.3086 0.00712214 0.534655 -1.20465
329 1 8.78871 5.81066 4.80413 -1.01796 0.701914 -1.25319
330 1 1.52238 3.5046 2.2818 -0.438955 0.61401 0.856878
331 1 5.51882 1.95888 7.04626 -0.360577 0.348353 0.185194
332 1 3.94991 0.392915 7.38106 0.444512 -0.360013 -0.844719
333 1 2.25986 3.30717 8.4101 -0.797442 1.21199 0.179376
334 1 4.52124 3.34924 7.34447 -0.099815 0.290841 0.127423
335 1 1.64976 6.85848 5.97865 0.536191 0.155347 0.112975
336 1 2.0111 5.57108 0.439835 -0.496623 0.459836 1.00033
337 1 2.93955 2.35698 2.12403 0.126326 0.927038 0.479918
338 1 5.58104 4.62959 6.08075 -1.23946 0.413503 -0.487213
339 1 1.71225 3.74495 4.473 -0.15497 0.103662 2.00123
340 1 0.878163 3.01124 3.67619 0.675996 -0.728324 -0.953571
341 1 0.983261 7.76815 8.81759 -0.0291627 -1.28287 1.35804
342 1 1.64845 2.37091 5.66284 -0.471647 1.01903 0.0854878
343 1 5.06283 0.964898 4.18739 -0.998695 0.384257 -0.135904
344 1 4.00051 8.88217 2.19802 0.473718 -1.33155 0.314187
345 1 5.77676 1.59127 4.46391 0.00619234 -0.456366 0.227652
346 1 8.6965 3.41876 0.831364 -0.516551 0.232413 -0.300801
347 1 2.71617 4.24471 9.17543 -0.176603 -0.10901 -1.06948
348 1 7.08456 6.49559 1.38627 0.204752 0.376087 -0.115531
349 1 6.42112 5.02187 0.791161 -0.826594 -0.627647 -1.47462
350 1 3.32276 8.30276 5.21247 -0.914051 -0.0760371 -0.21969
351 1 6.83816 0.965939 5.78831 -0.306046 -0.220941 0.638809
352 1 0.10492 8.80028 4.28986 -0.0421009 0.0672131 0.402736
353 1 1.24109 1.7341 8.0696 -0.217934 -0.643726 -0.239269
354 1 6.81941 4.44978 8.73419 0.625411 0.699879 -0.864548
355 1 7.65904 2.79084 4.77264 -0.568784 0.281358 -0.776439
356 1 8.92115 3.08932 8.49078 1.09536 0.3917 -0.582459
357 1 7.24691 5.51144 3.73983 0.662418 -0.813327 -0.305647
358 1 7.28396 6.84081 3.19069 0.319224 1.70847 1.93892
359 1 1.15049 0.290258 2.14773 -1.41476 0.595237 0.50264
360 1 3.86648 2.92772 2.56736 1.31171 -0.253945 -0.0492551
361 1 3.03693 6.78313 1.35316 1.06109 1.16426 1.2739
362 1 7.38072 0.713849 0.824525 -0.605806 -0.872166 0.672475
363 1 4.81685 4.81355 0.618517 -0.262183 -1.19365 -0.549904
364 1 0.945522 8.30882 4.05203 -1.00328 0.14718 0.15516
365 1 6.47675 3.17786 2.58636 0.486026 0.533388 0.307463
366 1 2.88583 5.98748 5.42608 0.925299 0.111745 -0.0929811
367 1 3.53057 2.94631 6.98108 0.599745 0.146406 0.227042
368 1 2.11299 5.0453 8.74703 -0.434242 -0.402677 -0.0535789
369 1 4.23533 7.6371 0.850063 0.598269 -0.275489 -0.516519
370 1 2.68395 6.67108 7.58796 -0.803565 0.824412 0.0897949
371 1 7.00712 7.75583 3.35959 -0.464763 -0.372667 -1.26993
372 1 5.81708 5.83945 8.1247 -0.596186 -0.901064 -0.232074
373 1 8.86682 1.62531 2.49136 -1.35323 0.450628 0.0804103
374 1 8.96899 0.149044 9.10649 -0.655471 0.497254 0.0147309
375 1 1.09794 1.72385 5.17556 -1.46973 -0.160374 -0.33873
376 1 6.99349 2.67856 7.42073 -1.64276 0.37899 1.26712
377 1 3.75961 5.19833 5.22431 -0.993045 0.656526 1.75963
378 1 8.02107 5.60285 5.60069 -0.419958 0.611331 -0.297364
379 1 3.64566 4.05865 2.47959 -0.713462 0.0161891 -0.318684
380 1 9.11178 8.28674 2.80754 -0.0416719 1.59958 0.85386
381 1 2.23356 4.52731 5.94382 0.380952 -1.21051 0.063606
382 1 8.39428 5.23313 6.49094 0.651526 -0.784585 -0.963148
383 1 5.02273 5.09583 5.44876 -0.484039 -1.51971 1.17293
384 1 6.87819 2.7415 4.03368 0.464716 0.347376 0.712583
385 1 5.19199 7.95594 6.00859 -0.404333 0.43051 0.090966
386 1 7.11368 5.44032 7.63455 0.191875 0.261348 0.382359
387 1 6.7954 3.704 8.23939 0.913904 -0.3165 1.22843
388 1 1.88042 3.01995 6.3894 -0.804603 -0.567929 -0.915921
389 1 9.38599 3.55874 4.04314 -0.999259 -0.715384 -0.639459
390 1 6.40805 7.2075 3.89483 -0.00346977 1.16905 0.225559
391 1 0.264941 3.87264 8.5348 -0.384669 0.762963 0.0688007
392 1 7.50524 6.62262 0.527061 -0.621998 0.763935 0.194381
393 1 2.5635 7.18959 6.67377 1.00198 -0.796624 -0.271214
394 1 1.19894 2.50923 1.66115 0.144067 -0.610949 0.917773
395 1 1.72348 1.59293 8.80582 1.18644 -0.0618603 -1.3194
396 1 3.9635 3.21775 3.50731 -0.971956 -0.146933 -0.073406
397 1 6.92474 2.57368 3.12396 0.536051 0.383721 0.595088
398 1 0.363934 6.08108 0.482811 -0.33458 0.867458 0.6223
399 1 6.70832 8.17406 0.337589 0.269283 -0.0129543 -0.485703
400 1 5.09876 1.27879 6.46268 0.987888 1.10968 0.171141
401 1 1.7203 5.93802 1.1331 -0.417514 -0.346994 1.67264
402 1 1.11438 2.37802 4.42111 0.980139 -0.671478 -1.05086
403 1 2.58194 9.19706 6.66161 0.0417908 0.265076 -0.618473
404 1 8.15836 0.384503 5.46655 0.061061 -1.28294 0.871186
405 1 2.28336 6.49439 3.25606 0.0746039 0.121212 0.533309
406 1 4.81837 4.40397 1.44728 0.667018 0.0359222 -0.686961
407 1 5.03973 0.174713 9.11149 1.49788 0.423025 0.758104
408 1 3.26675 2.24642 6.38105 0.18586 0.294019 -1.22399
409 1 7.02289 8.82833 8.99342 -0.420629 -0.499172 0.935616
410 1 2.32245 8.23007 2.68222 0.918175 1.8752 -0.111636
411 1 7.1854 7.48312 0.938427 -0.345766 1.07996 0.309138
412 1 0.0512303 5.13861 0.552851 -0.455692 -0.540669 -1.44393
413 1 3.76257 3.74348 7.53241 -0.706296 0.556557 0.299827
414 1 7.10044 8.32541 4.98021 1.03738 -0.0174417 -0.921988
415 1 8.23342 7.23854 0.998749 0.0345664 -0.182747 0.155275
416 1 0.589216 4.72405 8.24523 -0.768676 -0.750456 -0.532244
417 1 3.68572 5.95171 6.83468 -0.319355 0.50217 -0.850164
418 1 8.02933 7.79554 0.166232 0.10587 -0.761896 -0.439431
419 1 3.62682 2.46359 3.38546 1.33899 -1.25282 -0.711115
420 1 4.90661 8.27719 0.686365 1.1981 0.790535 0.0641244
421 1 8.72173 1.80653 5.92852 -0.598149 -1.20772 1.13589
422 1 8.85701 1.6243 8.75534 0.449312 0.298111 -0.417078
423 1 1.10053 4.53899 7.34644 -0.339199 2.07397 -0.687182
424 1 5.86468 0.567449 8.89406 0.122918 -1.04396 -0.674958
425 1 2.53705 0.746235 0.412681 1.05235 -0.263428 1.62597
426 1 5.46366 2.82676 7.50399 -0.103057 -0.142666 0.988465
427 1 0.437697 9.37984 8.40296 0.231489 -1.1548 0.763963
428 1 2.24143 7.56067 0.817441 -1.05555 0.906556 -0.858748
429 1 8.86146 7.14399 5.25704 0.440677 -0.206169 0.992553
430 1 2.6385 3.36821 0.252878 1.10501 -0.0175092 0.222579
431 1 5.59735 6.73088 4.77501 0.165795 0.223223 -0.439107
432 1 0.409342 5.52922 5.26627 1.21832 0.030197 -0.362501
433 1 3.08744 4.5985 6.28573 -0.0889725 0.434172 0.382656
434 1 8.90132 4.73541 5.79002 0.706163 -1.27967 1.5864
435 1 9.35802 6.85598 3.4897 1.68399 -0.706372 -0.995655
436 1 3.63451 1.97922 2.50338 -0.467403 0.71852 -0.391169
437 1 2.90879 4.01151 4.42239 0.18461 -1.08247 -0.0460196
438 1 1.7384 9.15791 1.61238 -0.109566 -0.173846 -0.947504
439 1 7.71657 9.25868 4.02955 0.241876 1.98965 0.437505
440 1 2.90096 1.11999 5.55362 -0.539875 0.313933 1.27442
441 1 5.16928 0.306434 3.18931 -1.16999 0.417778 0.484628
442 1 8.6686 9.10132 4.06535 -0.588852 -0.547843 0.235257
443 1 5.38827 5.99262 5.48297 0.403786 -1.03875 -0.980217
444 1 2.61833 2.4283 7.08342 -0.61324 0.106791 -1.04813
445 1 9.15757 2.38668 5.49992 -0.463724 -1.61552 0.590372
446 1 6.61469 0.097091 6.16076 -0.766217 -1.22656 -1.23141
447 1 6.94974 8.68964 7.85845 0.607874 -0.122956 0.03291
448 1 8.50369 5.99952 8.30074 0.801401 1.16319 -0.360907
449 1 1.82866 6.50725 2.14035 0.855584 0.106258 -0.944457
450 1 8.40962 5.58221 1.77793 -2.1346 0.551048 -0.964177
451 1 1.09687 3.40529 6.02554 0.284385 0.0914346 0.098739
452 1 3.90252 9.09066 4.92107 -2.3212 -0.459572 0.250322
453 1 6.25172 8.62767 8.51571 0.570868 -1.02382 0.651848
454 1 1.75575 2.4248 2.42578 0.567001 0.805383 0.762978
455 1 6.71872 4.82122 7.06217 0.923869 0.37292 -0.0091358
456 1 2.83546 4.98275 7.02404 0.850564 0.390117 0.232896
457 1 2.48508 9.36621 2.50182 0.0578608 0.159671 -1.25102
458 1 5.38309 3.45806 5.61239 0.394278 0.661958 -1.01593
459 1 4.05045 7.41883 4.82912 -0.960298 -0.739767 -0.410716
460 1 1.21408 1.51606 1.44984 0.0667228 -0.733455 -1.02362
461 1 9.31873 6.51743 9.08184 0.435275 -0.759869 -1.437
462 1 3.09855 0.592331 9.10891 -0.410866 0.0412103 0.79961
463 1 7.86605 2.01199 6.16704 0.302597 1.04101 1.20167
464 1 7.40072 1.85344 2.67777 0.645665 -0.802162 -0.559449
465 1 0.188984 4.37351 6.73141 -0.940721 -0.0157468 -1.06221
466 1 6.17279 2.57311 6.96384 0.287609 -0.728936 -1.29931
467 1 5.79457 8.63841 7.52838 -0.993902 -0.164684 0.962321
468 1 5.4782 9.28851 5.28516 -0.965798 0.409882 -0.491779
469 1 0.812785 9.17966 3.51841 0.79763 -0.302476 -0.270139
470 1 4.21956 9.22628 6.73218 1.32232 0.484497 1.30622
471 1 4.14166 8.66858 5.99017 -0.65355 -0.147704 0.316552
472 1 0.820034 7.69257 1.04908 1.5217 -0.625962 -0.960223
473 1 6.76543 2.10541 4.7619 -0.777934 0.392399 1.3081
474 1 2.87543 6.5343 4.18354 0.844848 0.776145 1.74587
475 1 5.51532 2.96319 8.54631 -0.732653 -0.741846 -0.184121
476 1 5.84067 6.69309 8.46562 -0.220533 0.910524 0.42603
477 1 3.89982 3.17936 8.30714 -0.016311 0.346361 -0.470111
478 1 0.525062 5.06956 4.49878 0.990044 1.65353 0.622919
479 1 2.62181 1.66771 0.563907 -1.11415 0.91259 0.291294
480 1 5.38953 1.25653 1.67195 -1.7133 0.415384 1.07419
481 1 8.55608 3.88735 4.53976 1.16752 -0.900311 -0.57809
482 1 1.80324 1.58186 2.22946 -0.634099 -0.220673 0.992007
483 1 6.01429 3.52637 5.05629 0.148434 0.615411 -0.933884
484 1 0.72734 2.46534 5.67514 0.371783 0.807283 0.167492
485 1 0.889222 8.34071 2.99817 -0.980666 -0.0223208 -0.218768
486 1 3.78725 3.78444 5.81678 0.612651 -1.02444 0.185014
487 1 8.15501 3.05793 4.06911 -0.013048 0.0425232 0.146325
488 1 3.94953 0.366806 8.82188 0.356863 -1.17663 1.00398
489 1 2.28923 0.668651 7.4014 -1.72629 0.790436 0.462765
490 1 6.88047 9.2312 2.38166 0.979957 -1.03372 0.644222
491 1 1.70981 1.25664 0.348606 0.743457 1.08198 1.08392
492 1 6.26797 0.0424842 7.73648 -1.33151 -0.607037 0.0749771
493 1 6.71824 6.62388 9.071 -0.600475 -0.266846 0.279005
494 1 2.74167 8.62095 3.60803 0.543849 0.181291 -1.47995
495 1 5.45667 1.43009 8.95654 0.206171 -0.118753 0.712687
496 1 5.32684 5.28499 2.8386 0.42532 0.502491 -0.274209
497 1 1.10889 0.6662 8.17502 0.507608 1.7994 0.2251
498 1 3.03201 9.10245 8.83623 0.469318 -0.0155713 1.46199
499 1 2.92124 5.89892 0.763186 0.0613415 0.506692 0.151647
500 1 9.24912 3.37289 5.17414 -1.39822 0.1514 1.90831
501 1 7.79538 7.08491 4.85576 0.162847 -0.584515 -0.449139
502 1 7.62698 5.886 9.14035 0.68845 -0.114408 0.0102051
503 1 7.14775 7.98073 8.38888 -0.21684 -0.210533 -0.25829
504 1 9.25059 4.77428 9.19407 -0.0263972 -0.421841 0.0275234
505 1 7.18475 9.26486 5.47178 -0.667783 -1.25224 0.584432
506 1 2.7197 2.77676 5.6043 -0.434892 0.947373 1.3482
507 1 1.31354 5.85975 5.78136 0.0237659 0.161439 -0.28442
508 1 2.6912 4.92491 2.28174 -0.655299 0.00496276 0.960691
509 1 8.19811 0.668949 8.82411 -0.374473 1.13491 -1.72106
510 1 7.35445 3.60552 3.61404 1.56467 -0.434749 -0.280331
511 1 4.49814 2.07406 1.20253 -1.39532 -1.63325 -0.389971
512 1 7.85982 7.00426 6.8491 -0.660817 -1.35211 1.41965
513 1 6.69631 4.5705 1.54353 0.224907 1.35553 0.0258656
514 1 4.8256 3.54906 0.911027 0.300537 -0.952911 -0.715586
515 1 5.24969 1.03084 2.58919 1.12886 1.31246 0.838142
516 1 2.21233 2.14609 1.56874 -1.2895 0.307585 0.0715622