ITEM: TIMESTEP
218800000
ITEM: NUMBER OF ATOMS
1000
ITEM: BOX BOUNDS pp pp pp
0.0000000000000000e+00 9.4000000000000004e+00
0.0000000000000000e+00 9.4000000000000004e+00
0.0000000000000000e+00 9.4000000000000004e+00
ITEM: ATOMS id type x y z vx vy vz
1 1 6.74284 0.411142 0.475829 -0.550458 -0.696534 -0.42376
2 1 8.52787 3.12832 5.86028 1.54941 -1.22065 0.0873027
3 1 1.20561 2.26341 1.86962 -0.536088 0.561278 0.0383755
4 1 3.8274 5.81532 7.52647 -0.517522 -1.70401 -0.200095
5 1 3.66491 7.16735 3.66511 -1.46202 -0.11807 -0.473939
6 1 4.21323 7.22931 1.51354 0.691994 0.853319 -1.71444
7 1 6.30572 6.71146 1.75531 0.357343 0.598974 -0.0710135
8 1 4.98844 2.83582 4.97561 1.49657 0.073941 0.382634
9 1 7.79079 7.59297 3.91449 0.804226 -1.20051 -0.0919427
10 1 7.01118 2.81547 6.03842 -0.777356 0.380196 1.34498
11 1 0.189936 0.954376 8.4088 0.522679 -0.335673 -0.968533
12 1 3.32994 9.15205 1.904 0.176137 0.388148 1.21898
13 1 7.80722 2.44245 8.03363 -0.566262 -0.499288 -0.182904
14 1 6.09675 6.71196 8.1259 0.169755 0.750868 0.990711
15 1 9.03939 6.8066 0.459896 -0.708662 -0.268742 -0.547466
16 1 9.29222 6.53006 2.30566 0.896259 0.655202 -0.46601
17 1 1.39633 3.40282 5.79044 -0.526865 0.0995493 0.62497
18 1 2.16048 0.827963 4.71717 -2.00918 0.881165 0.542485
19 1 9.09394 4.47539 0.435738 -0.791972 -1.54939 -1.24095
20 1 1.28749 0.766371 4.71881 0.340072 0.320153 0.0380793
21 1 4.02441 1.13314 4.90553 0.973727 -0.252807 1.1687
22 1 7.20723 9.3674 7.86847 0.0988038 0.644318 -0.591733
23 1 6.37444 5.07243 7.13011 -0.119021 -0.571751 -0.262382
24 1 6.6523 7.40511 3.88051 -2.10408 -0.818811 -1.31121
25 1 8.18765 0.802689 6.41836 -1.13354 0.120093 -0.573516
26 1 5.32401 0.643581 2.26312 0.592866 -0.0800844 0.325754
27 1 0.982012 5.98874 0.310128 -0.252277 0.504334 0.41253
28 1 4.66026 8.00451 4.83001 0.336619 0.258151 0.864493
29 1 2.86577 4.5253 5.19095 -1.10866 1.07379 0.475086
30 1 2.07737 5.92509 6.96165 -0.349137 0.586921 -0.225583
31 1 0.871086 9.39411 4.90798 -0.387809 -0.400263 -0.234407
32 1 8.94434 5.4521 5.46447 -0.462844 0.77218 -0.491527
33 1 9.08197 3.99871 1.29785 0.143219 -1.28105 -0.0219633
34 1 8.16308 5.88796 6.61693 1.01652 0.184014 -0.333114
35 1 7.58168 9.3517 6.55617 -0.173452 -0.496877 -0.425262
36 1 8.20977 2.73849 6.58889 0.00654989 0.212587 -0.475507
37 1 8.09233 8.21183 2.30201 -0.979314 1.35003 -0.320476
38 1 5.79163 3.24603 4.26231 -0.558603 0.426637 -1.87764
39 1 7.43946 6.43666 6.34457 0.728614 -0.44034 -0.00312173
40 1 5.41307 2.25491 7.0844 0.520797 -0.00105931 1.05776
41 1 5.22516 2.13402 3.00337 -0.368882 -1.02904 -0.527187
42 1 7.25827 5.9071 4.06936 -1.28064 0.702173 -0.379309
43 1 2.62896 1.17728 7.88125 0.299767 0.439878 -0.75496
44 1 1.80468 0.214525 1.0644 -1.23495 0.489209 0.689788
45 1 5.69487 2.69076 7.88632 -0.818801 -1.20053 -0.0136904
46 1 6.33319 1.9486 6.68816 -0.93195 -0.876084 0.799212
47 1 5.06801 3.3068 3.78275 1.53297 0.198479 -0.571156
48 1 2.92497 2.37249 3.72123 -0.849664 0.475819 -0.798195
49 1 3.65348 0.515892 2.25675 0.687353 0.193727 0.870982
50 1 8.07775 1.73385 6.81409 0.899618 0.663507 -0.57767
51 1 4.76285 6.00131 4.91302 -1.11347 0.405364 -0.649388
52 1 6.77453 0.204056 6.14679 0.492675 0.764284 0.436536
53 1 7.25614 5.26139 6.1964 0.954665 0.705354 0.127389
54 1 4.77564 1.17916 7.06514 -1.06764 -0.412053 0.255448
55 1 0.39718 1.15618 0.634502 -0.692146 1.69282 0.156951
56 1 7.93585 9.37415 8.45917 0.103869 0.673274 -2.0274
57 1 5.16003 7.13359 7.76735 0.384631 0.0473333 -0.575524
58 1 0.3273 6.61298 9.26075 -0.685833 1.56099 -0.4855
59 1 0.321944 7.70807 2.67629 0.563671 -1.54669 0.265048
60 1 0.686124 0.168816 7.42315 -0.914422 -1.30016 1.2244
61 1 3.33686 8.13757 5.89217 0.884746 1.5798 0.781467
62 1 4.21788 2.89243 4.33709 -0.110648 -0.0621184 0.240242
63 1 7.52482 4.03385 7.48724 1.52892 0.683096 -0.711642
64 1 8.04328 9.06053 7.60414 -0.489687 -1.23442 1.19141
65 1 3.24718 0.0167464 7.08339 -0.588606 0.214077 -0.381679
66 1 7.54567 2.74643 1.61585 0.0935696 -0.800414 0.636156
67 1 4.12101 2.70268 0.330076 -0.0535446 0.0412171 1.15631
68 1 3.54808 9.04849 2.84234 -0.0468981 -0.315185 0.189709
69 1 8.44825 3.26943 4.54698 1.21131 2.24402 0.67922
70 1 3.55852 7.41807 0.123627 -0.097728 -0.992881 2.15027
71 1 0.761372 4.77507 3.12074 -0.474471 -0.0173884 0.504832
72 1 5.89863 7.54764 2.10805 -0.248867 0.320695 0.600818
73 1 8.80324 6.59015 5.38552 -0.124177 1.57889 -1.52392
74 1 5.04782 8.04991 2.5015 0.0698704 0.710064 1.87225
75 1 5.49577 3.97216 6.42976 -0.365553 -0.986629 0.177454
76 1 4.00583 6.66939 8.18637 -0.881733 0.16842 0.339627
77 1 1.80886 0.309886 3.9445 -0.108327 0.848732 0.61001
78 1 3.94094 4.0675 3.28471 0.311909 0.794112 -0.813372
79 1 7.38168 4.85516 7.87646 0.376499 -0.17886 -0.683454
80 1 1.13514 5.93525 1.19448 1.63742 -1.08035 -1.22375
81 1 2.50184 3.11878 3.22427 -0.462567 -0.476623 -0.288734
82 1 1.92981 1.05853 3.17412 0.397967 0.811007 0.213834
83 1 2.84707 6.10986 7.63659 -0.115125 1.02539 -0.763555
84 1 5.98115 4.61186 8.81827 1.25951 0.413804 -0.282509
85 1 1.23432 7.45882 6.33139 0.383701 0.0280497 -1.12637
86 1 3.59382 6.44945 1.91388 0.436032 -0.352733 -0.490027
87 1 4.88192 1.94925 5.69153 -0.0283119 0.663491 -0.583985
88 1 8.14708 5.23803 8.45957 -0.0182711 -0.176622 0.186625
89 1 4.49365 1.59112 3.96924 0.520269 0.0333509 0.0191498
90 1 1.87542 7.33396 8.5643 -0.588379 0.438655 -0.568059
91 1 3.31959 0.351156 8.73483 -1.59585 0.131737 0.445472
92 1 8.72876 3.23008 1.83282 0.665768 0.346368 0.576304
93 1 8.69445 2.65659 3.76002 -0.635931 1.15848 -0.240534
94 1 1.3074 9.20925 7.97937 -0.946384 0.71115 0.244862
95 1 0.47287 1.25706 9.13725 0.727727 -0.680034 1.20453
96 1 5.00649 0.493429 6.52134 -0.712063 -1.20723 1.13177
97 1 0.31031 6.87615 4.92393 -0.273726 -0.871266 0.137842
98 1 1.45961 6.05225 6.27705 -0.0464379 0.489828 -1.16333
99 1 7.27605 1.72881 7.78585 -0.93837 0.453618 0.168125
100 1 5.37891 6.03145 5.61885 -0.645584 -0.573837 -0.260469
101 1 7.70413 4.83618 0.523252 0.434034 1.09565 -1.29028
102 1 7.2704 6.6969 3.08559 -0.157517 0.302579 -0.919855
103 1 8.43773 4.87958 1.0405 0.14282 0.189159 -1.37032
104 1 8.02453 5.8647 5.70937 -0.441105 0.431499 1.33715
105 1 9.07608 6.97812 7.03208 0.814352 -0.341847 -0.314789
106 1 8.60167 0.4999 4.84629 -1.45456 -0.642991 0.186662
107 1 2.06024 4.09163 1.82012 0.301468 0.233557 0.238575
108 1 6.84035 2.6019 3.29934 -0.947217 0.388656 -1.67785
109 1 2.13211 7.40126 6.55418 0.144341 0.736316 0.17749
110 1 7.73071 7.21082 1.99882 -0.436243 1.36113 1.39139
111 1 5.583 5.42575 4.60975 1.29543 0.0348108 0.0130796
112 1 5.3545 8.18887 7.68219 -0.485026 -0.413483 0.0039242
113 1 6.66046 7.4204 8.50198 0.405555 -0.412456 1.39774
114 1 2.66594 6.49489 2.3095 0.399928 -0.210393 0.43469
115 1 1.40944 1.4867 6.44489 0.238359 -1.27073 -0.64603
116 1 7.00949 0.178219 2.14769 1.31497 -0.565152 -0.938605
117 1 5.72728 1.80128 1.06519 -0.0194902 -0.558099 0.736239
118 1 4.93123 4.49076 1.09696 -0.636532 0.456479 0.568658
119 1 7.1678 1.47164 4.67628 0.915371 -0.373247 -0.0294912
120 1 1.19994 6.43979 2.19253 0.00289745 1.4348 2.23334
121 1 5.29264 7.63061 4.10556 0.314084 1.86385 0.192802
122 1 6.55972 4.32382 7.67382 0.554262 -0.0167034 -0.192064
123 1 6.93188 6.52215 8.44754 -1.25743 -0.834789 0.531326
124 1 1.43863 9.12831 7.0509 -0.710983 -0.0190673 0.603403
125 1 8.05325 6.77004 1.13206 0.00535535 1.01224 -1.14863
126 1 1.44783 5.50883 2.26634 0.656437 -0.808868 0.0761653
127 1 7.71341 9.09355 0.761025 -1.16453 0.534461 2.24221
128 1 0.816867 7.8498 9.22605 -0.398697 0.478786 -0.0636731
129 1 7.87247 8.68732 1.54123 0.238937 -1.34523 0.0723479
130 1 5.10929 8.53109 0.814072 -0.0276389 0.173274 -0.559946
131 1 2.96037 6.53245 0.305592 -0.76674 -0.633449 0.414083
132 1 4.347 6.57327 4.11043 -1.2489 1.32883 0.941597
133 1 5.02092 5.65674 3.96743 0.776051 -0.546267 -0.90659
134 1 5.1428 9.13804 2.54014 0.935973 0.353028 0.192881
135 1 8.96329 3.53821 0.413406 -0.375788 -0.609069 0.10861
136 1 5.06054 2.74808 1.1442 1.0016 1.05277 1.56218
137 1 2.62647 2.68335 7.54716 -0.317115 0.094827 0.278312
138 1 5.28522 9.39965 0.899342 0.866333 -0.146177 1.03312
139 1 3.51208 8.07697 0.933837 0.43284 0.719906 0.0302039
140 1 0.277406 4.51228 5.89843 -0.311284 -0.575439 -1.74403
141 1 3.29332 0.213833 0.292142 0.497259 -0.672339 -1.69475
142 1 0.91229 5.01724 1.34878 -0.381899 0.103359 -1.0812
143 1 3.65727 4.02005 5.83307 1.41727 0.565101 0.285035
144 1 5.87823 6.88211 2.74338 0.839918 0.657809 0.621698
145 1 0.555848 3.55434 1.37373 0.55048 0.0255851 -0.0446864
146 1 4.75361 9.11867 7.05105 0.459274 -0.616076 0.0935417
147 1 6.7673 9.38971 7.079 -0.545555 0.252673 0.300699
148 1 1.19913 0.736369 0.0922636 -0.320399 1.80009 1.17428
149 1 8.8024 1.00242 1.41945 -0.918314 0.684809 -1.31369
150 1 2.00421 8.50422 4.27009 0.345949 0.981904 0.735962
151 1 1.80458 6.68239 7.87769 -0.818148 -0.303808 -1.28967
152 1 1.60619 2.93793 5.03209 1.00692 1.10208 -2.26756
153 1 6.44466 3.57925 1.38316 -0.257488 0.796268 -1.14805
154 1 2.87711 2.11997 1.74238 -0.965221 0.260003 0.449474
155 1 8.17048 0.103834 0.00777502 -0.319921 -1.47497 0.0191717
156 1 0.630575 7.98266 3.43562 0.49312 0.316611 0.775432
157 1 4.26899 3.18043 6.69659 -0.296501 -0.958285 -0.62353
158 1 7.49999 2.54201 2.5282 0.942498 -0.364151 0.254715
159 1 7.05961 9.28991 1.36356 -0.445109 -0.431689 -1.85986
160 1 5.92007 8.59236 2.55565 1.43764 -0.657298 1.50702
161 1 7.33132 5.0281 9.06382 -1.28426 -0.33984 0.497213
162 1 6.78116 8.17479 6.37748 0.0994049 0.859883 0.508366
163 1 7.62197 3.31936 5.4119 0.54027 1.82611 -0.571108
164 1 0.103073 8.05838 8.71129 -0.816688 0.356735 -0.457418
165 1 4.29695 5.13645 3.91973 0.282172 1.09763 1.12499
166 1 0.807234 6.07627 4.56933 0.470804 1.1463 -0.689496
167 1 7.62431 3.75262 4.65016 -1.19251 -0.596317 -0.559004
168 1 4.57073 2.00273 6.81181 -0.247439 -1.08067 -0.21885
169 1 7.43368 5.75207 2.16621 -0.612456 -0.700753 -0.46357
170 1 5.58748 5.04032 1.74639 -0.228984 1.12753 0.586084
171 1 6.76636 7.38073 2.28953 0.904329 0.688823 -0.0117223
172 1 6.30428 5.97392 0.958661 0.984177 -0.204581 1.28664
173 1 6.11099 0.0907367 1.90515 -0.606069 -0.00458911 -0.00674848
174 1 3.00074 1.08902 2.76875 -0.970902 -0.659415 -0.861118
175 1 3.70538 6.86392 7.31032 -0.119222 -1.1171 0.165714
176 1 6.53305 2.67415 5.03189 0.847857 0.278848 -0.178476
177 1 8.86185 0.54042 3.62162 -0.137345 0.254659 1.34708
178 1 2.67583 1.99764 4.52366 0.619792 0.027008 0.446773
179 1 4.82765 5.64787 6.25344 0.0533195 0.332237 -0.440274
180 1 6.13828 1.42859 5.772 -1.50024 0.290843 0.93521
181 1 5.87201 7.52582 8.00413 -0.373782 0.182059 1.14556
182 1 8.48282 0.948338 9.23479 0.0242688 -0.301531 0.500167
183 1 2.77076 2.45154 2.61329 0.264663 -1.01913 0.0130176
184 1 3.12136 8.96936 1.04192 0.151415 0.266743 -0.830619
185 1 8.13273 5.54541 7.55804 0.447053 0.402498 -0.532718
186 1 2.95155 5.68256 6.83357 -0.0395796 -0.265082 1.82449
187 1 8.44738 0.0719547 6.84047 -1.15943 0.592477 1.08257
188 1 6.88231 1.9243 9.28758 0.230908 0.342339 -0.63964
189 1 0.562509 3.77564 5.5142 1.19203 1.2944 0.631726
190 1 2.21795 9.11254 6.39906 -0.459187 0.143835 0.0311513
191 1 2.14574 9.00533 1.49881 0.555676 0.0704093 -0.379716
192 1 4.3686 8.13277 5.68135 1.08663 -0.00336484 -0.146763
193 1 2.65669 7.43754 2.31597 -0.00338546 -0.515646 -0.0963328
194 1 7.79024 3.46134 2.2342 -0.362677 0.724545 -1.94174
195 1 0.518438 5.89637 1.97087 0.615974 1.10186 -1.64982
196 1 0.0193396 8.40343 0.582283 0.105997 -0.458987 -0.0439848
197 1 4.75169 0.116406 5.62186 0.612751 -0.525648 -0.807533
198 1 8.5856 0.632972 8.07658 1.42622 -0.361587 -0.257203
199 1 4.433 2.84069 3.30082 0.998072 -0.143426 -0.479899
200 1 5.83326 5.48631 2.67519 1.04697 -0.345989 -0.326339
201 1 5.11675 4.9038 3.55917 -0.949499 0.94616 -0.915054
202 1 1.30069 7.34395 7.41529 -0.514688 1.53646 0.61514
203 1 0.863163 8.14113 1.69989 0.809214 -0.231658 -0.577962
204 1 8.90034 6.06651 4.51403 -0.531975 -0.157775 -0.702456
205 1 0.798227 6.53238 3.75792 -0.236805 -0.00870317 -0.154495
206 1 0.300562 0.379526 9.33914 0.688893 0.611821 0.930811
207 1 7.63471 7.58736 8.53709 -1.36068 0.0670145 -1.1838
208 1 4.77226 5.34776 8.16636 0.335088 -0.433508 -0.783661
209 1 7.33701 1.83469 3.0294 -0.197678 0.329224 -0.303523
210 1 6.91463 8.09251 3.29635 -0.82948 -0.806474 0.107573
211 1 1.85352 1.39623 8.48975 0.988516 0.648501 -0.449499
212 1 8.95088 8.7948 5.28033 -0.77906 -0.419481 0.171742
213 1 2.93303 5.1646 1.84515 -0.26618 -0.273321 0.509915
214 1 9.0284 5.2896 0.0260144 1.2453 0.125838 0.780574
215 1 1.8135 3.87389 7.73646 2.42986 0.597213 -0.94386
216 1 4.20589 4.77486 2.9255 -1.1844 -0.104306 0.444079
217 1 3.41176 7.64178 7.50453 -0.0549067 -0.930423 0.353315
218 1 3.8186 2.05532 7.74768 -0.772378 0.462678 0.597474
219 1 9.22472 3.51042 6.42522 -1.29181 0.48495 0.0372553
220 1 2.76331 4.9898 4.24157 0.615116 0.369764 -0.561903
221 1 5.39137 8.62248 9.12265 -0.160458 0.681399 0.0380169
222 1 0.604294 8.89551 1.20731 0.980423 0.769639 -0.575674
223 1 7.44316 4.15093 1.47104 0.230086 0.978752 1.07484
224 1 5.73073 2.03783 0.149139 -0.0181637 -0.00117865 0.0987551
225 1 8.42614 1.77898 5.93166 0.0293417 -0.367755 -1.028
226 1 1.95763 4.31418 6.83878 0.389743 -0.174682 -1.56987
227 1 4.04107 3.78101 0.0755392 0.221762 -0.744237 -0.560804
228 1 7.47763 9.06558 9.21776 -0.155109 -0.827906 -0.429666
229 1 5.85593 0.367322 0.233301 0.0388997 -0.591231 1.11979
230 1 3.88526 4.5736 6.80014 0.398735 -0.482838 -0.266649
231 1 7.24716 1.97712 6.47264 0.217014 2.11182 1.46757
232 1 6.02595 6.57964 9.16912 0.533369 0.122752 0.191593
233 1 3.22281 7.3929 6.6807 0.198192 -1.09685 0.933946
234 1 1.54305 0.889125 7.15607 -1.72034 -0.439002 1.06337
235 1 5.54908 5.62696 7.76641 -0.598135 0.975791 0.264007
236 1 2.2522 0.357149 6.96178 0.493396 -0.277137 -0.524561
237 1 1.76341 6.43848 4.70537 0.207659 0.915941 -0.177712
238 1 2.48483 2.11065 8.23796 -0.587917 0.407589 -0.302792
239 1 1.78711 5.05057 7.27206 -0.118237 -0.637855 0.662314
240 1 6.10115 8.32743 8.57801 -0.0774896 0.120132 -0.522111
241 1 7.03991 5.29652 1.31721 -1.2878 -0.294605 -0.895947
242 1 1.45954 3.71851 9.02118 -0.339001 1.29614 -0.107486
243 1 5.03411 0.472707 8.91972 0.897697 -0.56436 -0.8357
244 1 2.13213 9.18447 8.40511 1.76288 0.783098 0.578252
245 1 4.14801 2.08797 8.99891 0.0113974 -0.400945 -0.8973
246 1 4.19109 0.0901111 1.41451 -1.01004 -0.437052 -0.992622
247 1 8.09139 1.37654 7.90182 -0.347092 -0.255913 -0.625816
248 1 2.25281 3.04411 5.81436 0.0711313 -0.0497084 -1.71201
249 1 8.34788 6.62169 3.95999 -0.0830771 0.0980605 -1.44865
250 1 9.08451 0.647578 6.50892 1.27265 0.748732 0.0196176
251 1 8.22003 4.10799 0.763447 -0.40909 -0.0534003 0.317552
252 1 9.02879 5.5248 8.20835 1.15965 -0.598536 0.544351
253 1 0.912719 4.6143 8.15907 0.866606 1.06238 1.27847
254 1 8.56107 0.221598 2.03874 -0.414104 -0.0563744 -0.453309
255 1 1.81089 2.2469 6.01072 -0.237547 -0.0423676 -0.649461
256 1 9.28191 2.67035 5.4524 0.26948 -0.688517 -0.499334
257 1 8.81615 6.11906 8.96013 -0.581968 0.379531 -0.234977
258 1 3.60756 2.98428 3.18074 -0.809051 -0.907596 -0.202318
259 1 8.93403 0.66564 0.60195 -0.955744 -0.000281306 -0.501428
260 1 2.80247 5.66166 3.58153 -0.674654 -0.0550809 0.173554
261 1 5.66512 1.42772 7.27305 0.264107 -0.826983 0.250046
262 1 8.15236 4.07481 5.24316 0.495962 -0.307452 -0.170437
263 1 5.7477 9.33443 6.44441 -0.661878 -1.33932 0.933883
264 1 5.46391 6.27076 3.3522 0.265246 1.23063 1.4318
265 1 0.210919 2.5265 3.96445 0.4656 -0.540438 1.03548
266 1 9.01753 6.96665 1.44198 -0.278236 -0.151725 0.926932
267 1 2.09071 1.82484 7.09416 -0.284106 0.0462694 -1.3355
268 1 4.65934 7.54058 0.816082 0.564978 -0.728328 -0.918269
269 1 4.00169 5.07603 2.01972 0.5754 0.41318 1.2506
270 1 6.28957 5.09519 8.08081 0.468915 -0.066618 -0.877188
271 1 6.58087 7.55469 5.16693 -0.541643 -1.71472 0.408528
272 1 8.52099 4.03643 6.22308 -0.557741 -0.952469 -0.307934
273 1 3.63834 6.64503 0.874112 -0.78434 0.90711 0.839865
274 1 8.71616 6.42841 7.74345 -0.318328 -1.25582 -0.939956
275 1 3.18349 0.597297 4.50853 0.685814 -0.640294 -0.615661
276 1 6.74084 3.44522 4.53375 0.330144 -0.187427 1.2449
277 1 1.9597 6.88641 1.20002 0.19911 -1.09214 0.399953
278 1 0.627799 4.97534 0.349132 0.513275 -0.0659203 -0.696726
279 1 0.778492 2.9501 2.46002 1.23378 -1.22145 0.081461
280 1 9.17489 1.5586 6.75176 0.2381 -0.148328 1.30678
281 1 6.10243 2.44298 3.93199 0.876888 -1.39796 0.882483
282 1 1.63286 6.72807 3.88588 1.25355 -1.09992 -0.481048
283 1 0.285823 2.3438 1.97343 -0.456157 0.25383 1.06326
284 1 6.96954 0.218571 8.83343 0.726402 0.546305 -0.244184
285 1 2.69902 1.24595 1.50566 -0.121501 -0.489683 -1.07286
286 1 7.77014 3.28828 0.988829 0.0353247 1.24721 0.521201
287 1 8.58989 8.57981 9.27506 0.540906 0.685181 0.423056
288 1 4.15149 3.21963 1.18054 -0.0870132 -0.517511 -1.23635
289 1 6.99099 5.35787 0.449783 0.320543 -0.0648585 0.689644
290 1 9.0259 3.7938 5.43643 -0.46936 -0.0383443 0.940328
291 1 9.32729 9.25595 0.595072 1.78044 1.03413 -1.20894
292 1 8.67307 7.50593 0.779982 -0.286577 -0.0972157 0.94973
293 1 0.686155 3.71872 8.17332 0.715983 -0.520786 0.282918
294 1 9.00562 8.12678 4.26255 -0.846277 0.699195 -0.584548
295 1 3.8572 3.74906 7.3201 -0.455232 -1.13926 -0.254759
296 1 8.62331 7.6657 8.54085 0.590621 -0.339551 0.0435816
297 1 5.12663 2.87593 0.25897 0.845481 0.745409 -2.21231
298 1 3.30733 5.331 5.09565 -1.74161 -0.931466 0.826482
299 1 5.81626 8.83866 4.05988 -1.6423 -1.277 0.412568
300 1 1.99865 6.08195 0.82404 -0.180429 0.340608 -0.725612
301 1 0.364045 2.98828 0.238799 -0.759929 0.564187 -0.421836
302 1 4.50497 7.17407 7.04702 -0.179523 -1.15086 0.424464
303 1 0.56242 1.12706 6.63042 0.356547 -0.82691 -0.031896
304 1 1.80595 8.39145 7.96843 -0.223414 -0.159062 -0.319886
305 1 0.324465 1.16663 1.72926 -0.270868 -1.28054 -0.125003
306 1 2.77156 7.31493 0.977086 -0.692667 0.188789 0.108574
307 1 4.92419 3.27408 8.81078 -0.479493 0.0998927 0.235177
308 1 2.86896 3.81449 6.66255 -0.0276892 -0.320387 -0.949816
309 1 3.25523 4.29301 0.08108 1.83237 -0.243632 0.753662
310 1 4.86298 6.05934 7.21836 0.346587 -0.407073 1.06581
311 1 4.7883 5.02024 7.00412 0.574305 -0.633753 -1.06403
312 1 1.43745 0.0796557 5.62647 0.592843 -0.127928 1.78276
313 1 5.65506 1.43869 2.49597 1.90276 0.0874508 0.25437
314 1 6.16311 1.75868 8.33519 0.429806 -1.52103 -0.395028
315 1 7.41628 7.08244 0.517685 0.0519954 0.938904 0.765868
316 1 0.098247 4.54435 6.75464 0.657322 0.226007 -0.359877
317 1 0.610261 1.61389 2.51969 -1.55422 1.75014 -0.375372
318 1 4.24163 4.13878 5.09331 0.136354 -1.18493 -0.319575
319 1 4.61121 4.5325 0.292432 -0.251431 -0.190512 0.521547
320 1 6.78039 3.06028 2.12837 -0.90491 -0.467256 0.550102
321 1 9.00077 1.58928 2.17888 0.282415 -0.291069 0.955913
322 1 6.05032 7.81968 5.80457 -0.0520954 -0.000418818 -0.296795
323 1 5.02842 2.88339 6.26275 -0.942722 -0.417495 -0.672068
324 1 7.62121 0.578571 7.39894 -1.2597 -0.685214 0.0287518
325 1 0.916363 1.59006 1.20097 -1.21603 1.09984 0.715642
326 1 5.96487 5.22116 3.57916 0.0987764 -0.47917 0.308715
327 1 4.86027 0.455563 4.75241 -0.526226 0.512481 0.28384
328 1 6.48295 5.86447 1.94293 -1.23185 0.361659 -1.29055
329 1 3.24476 9.15824 4.91506 -0.460867 0.609431 0.965684
330 1 0.336878 7.44387 7.40689 0.535995 1.10553 -0.273124
331 1 7.78515 0.401197 1.42601 0.674567 -0.647074 0.976908
332 1 5.59826 1.69491 3.9427 0.77701 -0.475346 0.0503398
333 1 8.90894 1.71056 0.037182 0.688959 -0.534029 0.672947
334 1 6.51264 1.54626 3.90279 0.628 1.03489 0.774865
335 1 4.2434 8.2218 0.509246 -0.744935 -0.638779 0.318235
336 1 0.974496 8.54819 8.47118 -0.41122 -0.857539 0.1084
337 1 7.61465 1.90214 3.87888 -0.57307 0.255641 0.121725
338 1 5.33047 1.43314 6.46349 -0.485553 0.63234 1.53167
339 1 3.96342 9.13866 8.96694 -0.245992 -0.192241 1.18133
340 1 4.87846 7.78166 1.6519 0.92005 0.162155 0.0731946
341 1 4.48297 7.85898 3.62284 0.0391226 -0.256586 0.506717
342 1 2.56091 6.9679 9.07153 -0.511486 0.233966 0.864691
343 1 0.1032 3.68629 9.13709 -2.18467 0.459625 -1.26003
344 1 4.31761 3.80499 8.39865 1.22926 2.34877 -1.08443
345 1 5.05443 5.28363 0.037829 -0.769023 0.254457 0.184906
346 1 3.6302 8.52314 7.18199 -0.521584 0.0981311 -0.0388356
347 1 0.229483 7.57795 1.26267 0.12956 -0.816365 -0.321072
348 1 4.90693 8.0377 6.75861 0.430255 0.13633 -0.162177
349 1 5.91557 0.300802 7.56609 0.597284 -0.171807 1.56121
350 1 4.13352 0.0914442 6.40053 0.00556968 0.513334 0.681837
351 1 8.7902 0.191786 8.81949 -1.11993 -0.229908 -0.429081
352 1 1.57911 2.42445 7.86223 -1.48087 -1.06053 0.193812
353 1 7.15092 4.22843 3.92911 0.933001 -0.418958 0.124488
354 1 7.6465 9.0784 4.77922 -0.158834 0.550625 0.0435291
355 1 5.68691 3.4739 8.27364 0.786882 0.148686 -0.406717
356 1 4.69598 8.97752 8.51698 1.27762 -0.938898 0.109963
357 1 2.76511 6.56677 6.36992 -0.574727 -0.180705 0.0355129
358 1 3.12954 6.06396 4.5303 1.20474 -0.609735 -1.85205
359 1 8.44202 5.33822 4.23144 0.506892 1.43371 -0.197699
360 1 2.49843 2.48151 6.56916 0.332944 -0.428683 -0.0546794
361 1 8.85138 2.65126 1.2154 1.2094 -0.552613 0.702818
362 1 9.2459 7.03218 8.70229 0.701193 -0.605801 1.09911
363 1 3.70554 2.07963 1.08782 -0.20521 0.255494 0.358507
364 1 7.97426 1.69588 4.89885 -0.659411 -1.643 -0.1309
365 1 7.17017 6.06025 5.35478 -0.853907 0.896958 1.25988
366 1 6.63463 4.43605 1.05038 -0.207825 -0.789566 0.105353
367 1 7.22743 9.26519 3.34664 0.512176 -0.5313 -0.59167
368 1 6.35122 7.50704 6.89451 -0.698463 -0.22647 -0.733378
369 1 7.06494 4.42476 4.88041 0.234504 0.18107 -0.544912
370 1 3.91664 6.96621 5.73336 0.47347 0.625558 0.436762
371 1 2.86067 4.8288 6.66071 -1.05528 0.343555 0.388241
372 1 2.08556 2.48792 2.071 0.171626 0.660554 0.0112495
373 1 3.1778 3.39053 3.79099 -0.230158 0.514176 0.52732
374 1 6.67903 8.01279 7.55026 0.895372 -0.927905 0.522067
375 1 3.97254 9.04993 0.56885 0.106011 0.356343 -0.972504
376 1 7.10602 8.39424 1.05215 0.354784 -0.484373 -0.751039
377 1 0.525953 4.37396 1.83562 -0.312064 0.422809 -0.460799
378 1 6.17619 9.38236 2.91331 0.379022 0.287986 -0.394674
379 1 1.08042 1.31536 7.85514 0.0362659 -0.208049 -0.0338637
380 1 1.51402 3.31556 4.21863 0.927224 -1.00042 -0.510372
381 1 3.99235 0.10873 4.52224 -1.21176 0.0194857 -0.126349
382 1 9.10981 0.753391 2.53847 -0.203541 -0.552003 -0.501991
383 1 4.37838 4.69351 8.86625 -0.981215 -0.611999 -1.52062
384 1 1.08645 4.46158 4.09107 -1.43068 0.0806065 -0.753303
385 1 8.16401 2.56581 0.497775 -0.959076 -0.731318 0.393555
386 1 2.79133 5.13156 5.87091 0.107034 1.23327 -0.00309218
387 1 6.72341 0.121945 5.2497 -0.182083 0.585738 1.26226
388 1 4.54774 6.02413 8.91161 0.129768 -0.238886 0.769572
389 1 2.38167 6.13425 8.39466 0.240655 -0.416641 -0.203558
390 1 3.99255 1.21906 3.09214 1.21612 -0.610398 0.359985
391 1 0.600023 0.547826 4.03611 0.986759 0.232547 -0.149047
392 1 2.47337 5.49043 2.71019 -1.00395 -1.183 0.173059
393 1 4.80644 9.12761 0.12564 0.0668637 0.0472474 0.795943
394 1 0.016371 7.61006 0.261832 0.775213 -1.18702 0.176167
395 1 3.9494 3.06134 7.89483 0.512456 0.604016 0.135999
396 1 6.09485 0.668758 1.0428 0.134525 0.676973 0.848486
397 1 8.10953 3.42789 8.34189 0.177757 0.130916 0.912709
398 1 7.54301 7.4736 6.99001 0.296008 -0.697401 0.636847
399 1 5.28786 0.810904 4.02977 -1.71381 0.116452 -1.37752e-05
400 1 1.82666 7.60308 0.452303 2.52527 1.16122 -1.05044
401 1 6.00584 9.2896 8.90217 2.14361 0.17827 -0.794141
402 1 7.76616 4.20401 9.1057 0.0957432 0.0969656 0.624226
403 1 7.17954 3.94754 8.31496 0.494293 0.0566884 0.825584
404 1 9.25353 9.32122 4.2629 -0.594188 -0.364303 -0.397962
405 1 1.12341 0.659424 8.53869 1.70183 0.565447 -0.123395
406 1 8.16948 6.73659 8.40262 -0.0331481 -0.248584 -0.284981
407 1 8.80755 5.07336 6.4265 0.432149 0.491038 0.368423
408 1 7.9987 8.74262 5.58556 -0.59806 -0.0261846 -0.255527
409 1 5.56946 8.0776 4.94838 0.882565 0.412484 -0.214905
410 1 9.20445 5.63752 2.59001 -1.48294 0.371359 -1.22872
411 1 0.478744 5.10592 2.3524 0.642946 0.129385 -1.36716
412 1 3.52478 5.43343 4.02449 -1.25299 0.163421 -0.839183
413 1 6.40459 2.19482 2.43472 -0.242127 -1.51898 0.570155
414 1 2.65929 1.52906 6.11947 -0.473062 0.679128 0.714899
415 1 8.70561 8.7225 8.23798 -0.0604841 0.67773 -0.076282
416 1 8.47252 8.58697 0.707571 1.01205 0.00576167 -0.53567
417 1 7.13 8.35137 8.2436 0.619836 1.66097 1.65058
418 1 3.37351 2.13875 6.52909 -0.651511 -0.606769 0.98891
419 1 4.2652 0.210877 2.84979 -0.515526 -0.701297 0.210438
420 1 2.83474 8.19313 6.60277 -0.243103 1.92157 1.453
421 1 5.58709 4.72908 7.40766 -0.414856 -0.641747 -0.299563
422 1 7.8963 1.16913 4.24994 -0.544077 1.28741 -1.15513
423 1 2.21651 1.54515 0.0198247 0.711098 1.41751 -1.38257
424 1 0.835228 2.62653 3.35442 0.00158518 -0.398104 -0.181929
425 1 7.9066 1.00771 2.06783 0.670738 0.363173 -0.519159
426 1 3.0169 3.34467 9.04694 -0.383295 -0.988497 -0.126297
427 1 4.20715 7.55093 8.79297 -1.27756 -0.648762 0.244372
428 1 2.44763 0.342548 0.215986 1.07446 -0.770212 -0.137959
429 1 2.05375 1.51922 4.01588 0.482186 -0.503273 0.318472
430 1 4.15758 2.21302 2.7597 0.786938 0.367934 -0.17848
431 1 2.636 3.38406 2.17843 -0.0400684 -0.490592 -0.51826
432 1 2.69654 0.471551 6.21745 0.413354 -0.944819 -0.339317
433 1 0.136286 1.62556 7.84081 0.716046 0.889709 -0.113023
434 1 4.47019 0.347948 3.8706 -0.677727 -0.239124 0.988164
435 1 1.8945 4.8909 5.39818 -0.0954979 -1.2444 -0.231898
436 1 6.41822 4.93823 1.89696 0.15357 -1.24465 -0.112634
437 1 8.55173 0.160289 5.82233 -0.435354 0.501951 1.50848
438 1 8.86653 3.01753 9.02653 -0.255073 1.73401 -0.642596
439 1 2.79332 0.0152671 7.86894 -0.705712 0.089643 -0.867802
440 1 8.17895 4.43716 4.11166 0.219649 -0.0952189 -0.198582
441 1 2.30254 3.92842 3.73108 -0.423231 -0.673562 0.694439
442 1 0.536737 4.01725 0.574783 -0.560254 0.845611 1.07895
443 1 1.9011 6.92733 2.69472 0.702006 0.135976 0.921437
444 1 0.914149 0.099695 0.563604 0.645037 1.77619 -0.170331
445 1 0.675749 8.66983 2.52283 -0.978966 0.115705 -1.57944
446 1 4.35135 1.51677 8.22089 0.327725 0.176907 0.74543
447 1 7.26576 8.17831 0.0769959 -0.199158 -1.02736 -0.132892
448 1 2.9162 4.15062 1.62623 -0.871309 0.462714 1.82822
449 1 5.84992 7.44777 8.98188 -0.768228 0.131155 -1.96506
450 1 3.60639 1.48517 0.160472 0.580784 -1.23892 -0.431217
451 1 3.65017 6.20396 3.51929 -1.74093 0.286621 -0.314123
452 1 8.18109 7.05325 4.79129 -0.569843 0.662403 0.592368
453 1 2.22651 6.3136 3.33754 0.127217 0.0199467 -0.221738
454 1 6.75767 5.28693 2.71777 0.0737616 0.20599 0.223646
455 1 2.93785 1.20755 3.81602 -0.939132 0.374853 0.537696
456 1 8.74398 2.4386 2.24311 0.488292 -0.268932 0.368569
457 1 7.11394 6.36427 7.13468 1.08782 -0.144661 -1.10889
458 1 2.19518 2.0708 3.1432 -0.320272 0.0213268 -0.362218
459 1 5.61375 6.09404 1.53838 0.129965 -1.21072 -1.56653
460 1 4.81116 1.88053 0.298559 -0.197854 1.60489 0.233048
461 1 6.4205 1.33512 0.559921 0.816203 -1.26981 0.350565
462 1 1.98953 1.93889 1.38669 0.332342 0.768959 -1.01749
463 1 3.86932 3.91761 2.30049 -0.931915 0.384969 -0.799701
464 1 5.32564 2.00551 1.89807 1.06701 -0.524548 0.175693
465 1 7.20936 0.922857 9.37458 0.165871 0.0618132 -0.610019
466 1 7.82686 6.69766 5.58317 -0.893937 0.737599 -0.761909
467 1 4.0254 8.58796 6.4058 -0.584015 -1.38628 0.165843
468 1 2.83486 7.32159 5.81372 -0.620562 0.169714 0.216975
469 1 5.39814 6.1826 2.42475 -0.12933 0.664434 -0.670782
470 1 1.80565 4.95098 1.56461 0.143484 0.0618805 0.390429
471 1 7.69398 1.75694 0.35385 0.0658782 -1.12373 -0.168823
472 1 2.57515 9.10267 2.60466 0.0317044 -0.77653 -1.57362
473 1 3.45367 3.77571 8.23331 -0.338129 0.607201 -1.05225
474 1 1.45701 1.93384 3.58671 0.558217 0.337188 0.852621
475 1 8.73238 5.97322 0.765047 1.04771 0.0567693 1.52849
476 1 6.63333 4.56772 0.146406 -0.22581 0.818453 -0.27261
477 1 4.69912 2.65881 1.99693 0.0352147 0.00868519 -0.452256
478 1 2.08887 8.7648 5.45778 -0.396117 -0.105759 1.34603
479 1 2.33297 4.019 0.0214587 0.108917 0.915887 0.112011
480 1 6.47874 5.87542 7.58556 -0.012009 0.256523 -0.963653
481 1 1.7177 5.29788 0.546785 -0.0581555 0.135127 -0.480389
482 1 2.32241 5.95791 5.64019 0.46818 -0.439703 -0.239735
483 1 7.57086 3.48046 6.44549 -0.231522 0.281353 -0.0452902
484 1 5.03124 0.836642 0.524436 0.236195 0.457539 -0.375732
485 1 3.97353 8.94613 5.57883 -0.166368 0.23888 0.117245
486 1 8.01248 3.32257 9.29157 -0.414931 0.254051 0.0992798
487 1 1.81485 6.18416 9.19519 0.477892 0.376257 -0.235694
488 1 5.99275 2.81662 2.97129 0.0395646 1.38596 -1.93173
489 1 8.65778 4.8256 7.37562 -0.11054 -0.0188925 0.319588
490 1 3.34484 7.6478 8.54936 0.00667471 -0.105226 0.782268
491 1 5.13342 4.21642 8.66617 -0.267793 0.340401 -0.656676
492 1 7.29916 8.70838 7.12196 0.953581 -0.0141599 -1.82044
493 1 1.55672 3.26794 1.72851 0.0186969 1.34256 0.209478
494 1 4.92661 3.5228 7.74253 -1.95685 -0.463556 0.355316
495 1 5.92568 3.7688 7.34239 0.598033 0.133431 -1.07531
496 1 2.75789 0.341454 1.20918 0.348057 0.829517 0.0921624
497 1 7.10029 8.20897 2.30524 -0.959352 -1.24265 0.230158
498 1 2.81147 8.32958 1.84142 1.31974 -0.183409 0.0467407
499 1 7.17775 4.31972 2.56487 0.498855 1.03559 -0.617972
500 1 5.16527 6.35618 8.19038 -1.97701 0.199791 1.31584
501 1 5.60232 5.64414 8.67258 -0.928791 -0.855049 0.0658555
502 1 9.24823 4.48456 8.1479 -0.110488 0.236844 1.02029
503 1 1.44734 2.37028 6.91266 0.772233 0.616995 1.50225
504 1 0.272733 5.06898 7.49272 -0.372673 0.348663 -0.672304
505 1 7.49162 2.38519 4.72183 -1.51936 -1.40755 -1.34975
506 1 5.55969 9.08702 4.9034 -0.562633 -0.0773509 0.153674
507 1 1.65114 5.5347 8.26426 -0.409205 -1.12875 -0.33075
508 1 8.05268 0.847316 0.597101 0.317587 0.467456 -0.437486
509 1 3.90324 3.19248 5.06769 -0.613999 -0.905416 1.20238
510 1 4.0153 6.31082 6.67151 1.1042 -0.112626 0.444082
511 1 1.298 4.33349 1.02131 0.97573 -0.364828 -0.759287
512 1 7.6381 1.41987 1.29671 0.407631 1.05868 -0.039999
513 1 2.17464 5.16146 9.04825 0.574372 -0.814297 1.01759
514 1 9.18854 0.954353 5.61137 0.21062 1.03681 0.205866
515 1 4.82419 8.87324 4.40068 -1.04381 0.943366 1.31528