ITEM: TIMESTEP
239850000
ITEM: NUMBER OF ATOMS
1000
ITEM: BOX BOUNDS pp pp pp
0.0000000000000000e+00 9.4000000000000004e+00
0.0000000000000000e+00 9.4000000000000004e+00
0.0000000000000000e+00 9.4000000000000004e+00
ITEM: ATOMS id type x y z vx vy vz
1 1 0.235637 2.99912 7.09808 1.19139 -0.910323 -0.0336996
2 1 4.62358 3.41433 1.35513 0.0314292 0.572387 0.291319
3 1 9.37721 5.86017 8.49341 -0.624606 1.22163 -0.231106
4 1 0.608696 0.0617583 1.1487 1.35566 0.000862143 -0.0581035
5 1 4.71042 8.32844 6.57067 -0.757013 0.223045 0.141191
6 1 6.88415 2.7176 4.27707 -0.56522 0.945412 -0.631803
7 1 7.24178 4.43303 4.48309 -0.436194 1.27457 -1.07384
8 1 4.20071 6.24582 1.28011 -0.63677 0.55897 0.728138
9 1 2.69009 3.57169 3.69633 0.326776 1.03195 0.663828
10 1 3.8424 5.64622 6.75865 -0.26429 0.385843 0.856135
11 1 6.52793 8.30624 7.39068 0.601862 -0.728414 0.263612
12 1 9.37921 0.56226 7.52967 1.12508 -0.94307 -0.215363
13 1 1.73019 7.004 0.246974 0.610407 0.00861026 -0.785759
14 1 7.0649 1.11104 5.43879 0.157123 0.431657 1.55016
15 1 8.79767 4.91039 3.70122 0.657308 -0.268224 0.232215
16 1 6.20722 1.42794 5.11319 0.150216 0.309347 -0.713394
17 1 8.27059 4.11195 6.16795 0.291236 -1.21803 -1.06851
18 1 4.17305 6.54821 4.07906 -0.515508 0.44483 0.623145
19 1 8.1674 7.81491 5.34585 0.448123 0.16452 0.89665
20 1 5.02444 4.30338 7.20293 0.615767 -0.114172 -1.06523
21 1 6.38667 2.90543 1.92589 -0.842763 0.441836 -0.596054
22 1 6.3309 4.79742 7.32849 -0.287014 -1.02153 0.659117
23 1 0.783594 1.42091 1.23544 0.180039 -0.314348 -1.26107
24 1 0.32685 1.88514 1.89441 -1.14926 -0.0109604 -0.894274
25 1 8.16693 0.244502 7.65166 0.823153 1.24581 0.677726
26 1 4.34358 1.43931 7.19675 0.391531 -0.662915 0.118518
27 1 7.00835 4.92893 9.17588 -1.45927 0.0106183 0.288416
28 1 2.3322 3.98094 5.59012 0.156167 -0.437653 0.156779
29 1 7.80801 1.32702 3.70605 0.348852 -0.676269 0.930727
30 1 7.65403 0.424049 2.41873 1.83703 0.171925 -0.411459
31 1 7.88614 7.42113 3.22399 -0.253382 0.719115 0.583341
32 1 1.88819 5.83442 8.8277 -0.454365 0.654454 0.843779
33 1 1.55073 5.87593 3.701 -0.162117 0.416791 0.514042
34 1 8.6473 0.303647 4.98035 0.60923 0.0212901 -0.443861
35 1 8.362 2.328 3.28635 0.459046 1.1715 -0.515637
36 1 4.08678 6.21186 6.06122 -0.364769 0.492667 -0.865679
37 1 6.33304 5.36945 0.149139 0.802917 0.87315 -0.484844
38 1 9.02086 2.11437 1.47695 -0.441822 -0.39843 -0.478669
39 1 0.789643 2.77018 6.33666 1.16536 -0.22207 0.764126
40 1 1.04467 0.658481 5.03987 0.653849 0.985404 0.74356
41 1 6.44029 8.34695 0.169787 0.0394138 0.82064 0.0743993
42 1 4.46218 5.13613 9.32978 0.24756 0.356387 0.698078
43 1 3.87721 4.45355 5.51679 0.529159 0.0666144 -0.72255
44 1 4.62812 8.409 2.072 0.0532283 -0.220454 0.243364
45 1 5.22611 1.08197 8.88705 -0.894659 -0.0766614 -0.210047
46 1 5.66284 4.7743 4.99643 0.0423878 -0.117279 0.427161
47 1 4.34184 0.315986 2.05622 -0.260487 -1.02628 1.15299
48 1 4.52023 5.89728 3.52679 0.603474 1.09152 -0.775802
49 1 6.91031 7.21 4.68839 0.118998 -0.121996 -1.67579
50 1 4.69873 2.35514 5.74178 -1.6907 0.378401 0.020644
51 1 2.07911 7.64905 5.27126 1.4702 -0.240079 -1.03237
52 1 6.27599 0.968878 6.0225 0.340725 0.328049 1.35399
53 1 4.14055 8.57261 3.74669 0.411504 -0.106542 -0.0304124
54 1 2.81989 8.6099 1.57501 -0.275278 0.545756 -0.355698
55 1 6.83134 3.28951 6.80183 -0.698525 -0.118108 1.34885
56 1 6.07157 5.01599 2.52549 -1.01274 0.811087 1.5282
57 1 3.88706 1.51534 6.20163 -0.506566 -0.34418 0.583085
58 1 7.99727 6.64167 6.31481 -0.536899 0.631302 -1.05213
59 1 3.86824 2.94539 8.49899 0.34537 0.946166 0.172818
60 1 2.19163 7.96079 6.80271 2.35795 0.017245 0.272198
61 1 3.26364 7.66034 2.09328 -0.712446 -2.05776 -0.568583
62 1 7.23598 9.18157 4.50667 0.256165 0.253526 1.85284
63 1 0.743017 5.09686 6.20008 0.0433444 -0.975006 1.33949
64 1 6.49535 2.38458 7.08072 0.481515 0.783269 0.464632
65 1 1.59051 5.08736 8.17481 -0.521264 -0.428563 0.193462
66 1 4.25901 6.03644 9.03989 -1.26471 -0.660346 0.536066
67 1 6.85702 3.57561 3.24834 -0.725625 -1.03119 -1.58046
68 1 8.08254 7.83215 4.41451 0.539781 -0.353202 -0.856496
69 1 7.55046 0.956402 1.5182 0.179542 0.475485 -0.318588
70 1 2.78858 6.16675 3.52406 -1.04702 -0.215713 -0.0233054
71 1 3.70743 5.45472 8.46748 0.397724 0.137655 0.643112
72 1 6.05011 6.08813 1.04719 -0.844647 -1.3411 -0.438679
73 1 7.63091 4.82211 0.846325 -0.434049 1.10374 -0.413359
74 1 3.07551 0.277272 4.56143 -0.479305 -0.659445 -2.16529
75 1 9.22761 5.82978 4.11318 0.0991979 0.367132 -1.03094
76 1 9.16279 3.34209 3.62874 0.6353 -0.0621019 -0.654235
77 1 3.58374 4.51218 1.18524 -1.61253 -0.894085 -0.734834
78 1 6.52967 4.16937 6.69737 0.811197 0.450057 -0.576891
79 1 5.25868 6.11444 4.03562 -0.0072356 0.431178 -0.580555
80 1 8.30681 9.33417 8.51734 -1.20525 0.674548 -0.569248
81 1 8.56626 7.93992 7.29794 -0.0818256 -0.0517772 0.0173131
82 1 6.4184 6.25236 6.10219 1.96895 0.899099 0.69309
83 1 1.05851 2.30885 1.06218 -0.58234 0.810021 -0.874887
84 1 2.31098 0.564374 3.82019 -0.21108 -0.215647 -0.86488
85 1 1.90274 5.63682 6.76591 0.14211 -0.646704 -1.44061
86 1 8.24979 2.06036 1.96399 -0.0324585 1.11012 -0.085504
87 1 6.23803 5.10151 8.7346 0.551057 -1.04808 -0.995743
88 1 2.80949 0.00106583 9.2769 0.111018 -0.47766 -0.285258
89 1 5.11498 1.60047 7.8199 -0.467598 0.535907 0.5449
90 1 8.09499 6.11561 2.20629 0.700349 0.954169 -0.257541
91 1 3.73146 0.627716 6.60451 -1.16722 1.45648 0.487256
92 1 8.40747 0.633931 4.03251 0.000434191 0.329562 -0.47642
93 1 5.26609 9.14843 5.77255 -0.0638313 -0.337691 0.148922
94 1 7.84109 8.22606 3.4338 -0.564772 0.490378 0.330442
95 1 4.81645 0.252184 5.15242 -0.0115705 -1.04501 0.534731
96 1 2.97941 8.58058 0.620917 1.12482 -0.678985 1.03042
97 1 6.65857 4.17382 2.35262 -1.60288 0.127393 0.788638
98 1 7.18348 1.92796 4.35708 0.421271 1.53622 0.725794
99 1 8.33292 0.424093 1.14312 0.0282431 0.622903 -0.426925
100 1 1.01042 3.4256 2.45935 0.217924 0.900152 1.22259
101 1 2.37499 7.08253 7.31482 -0.693657 0.944642 0.292986
102 1 2.12755 1.01886 0.432682 -0.0314466 0.65964 -0.87651
103 1 8.47323 3.18855 6.44774 1.31567 0.369733 0.279777
104 1 3.87281 3.56233 1.856 1.32115 -0.409274 -0.522733
105 1 6.60688 3.70204 4.17543 0.408361 -1.23215 0.311232
106 1 4.94102 6.61618 8.75869 -0.0236614 -0.32346 0.96345
107 1 6.67137 1.87167 5.87154 1.17373 -0.72644 0.830852
108 1 4.72947 4.07155 4.17817 -0.890465 -0.362622 0.412558
109 1 4.03618 3.79545 4.82251 -0.97249 -0.0529648 -0.491436
110 1 7.70024 3.2057 9.40118 0.668359 -0.335251 0.830173
111 1 7.77459 7.36469 0.860714 -0.798792 -0.197855 -0.349981
112 1 3.64439 9.17928 2.90233 -0.206137 0.253251 -0.742955
113 1 6.96511 5.90381 0.60866 -0.541171 -0.916633 -0.0123204
114 1 6.04824 8.96691 1.93027 -0.257234 0.0396551 0.668597
115 1 1.42563 8.30479 4.99164 -0.886866 -0.728834 0.431795
116 1 1.00375 0.864592 2.98659 -0.397247 1.68291 1.60989
117 1 6.40604 7.67051 8.02833 -0.531079 -0.084715 0.419119
118 1 6.71096 4.57723 0.526448 1.0638 -2.18187 -0.313577
119 1 6.79895 7.90923 3.18976 0.739678 0.738762 -0.36276
120 1 6.9279 5.11294 6.44802 0.620309 0.92202 1.09664
121 1 5.08563 7.05008 3.93831 -0.914979 -0.252745 -0.0551921
122 1 4.73846 7.83297 1.35689 1.38877 -0.430835 0.590787
123 1 9.12947 8.80607 8.67942 -0.0562166 0.57003 0.858661
124 1 3.84201 4.62083 7.49745 -0.0330929 -0.391012 1.23211
125 1 8.37684 2.48168 9.13362 -0.457276 0.390941 -0.0124655
126 1 1.52074 6.71194 5.69952 0.14472 -0.170317 -0.184805
127 1 2.83756 6.25062 0.339944 0.434469 -0.481506 0.520087
128 1 0.681719 4.67886 5.16242 -0.437817 0.438417 -0.867103
129 1 0.0760356 7.22311 2.45361 -0.838583 -0.555661 -0.641117
130 1 4.88086 2.36599 4.71449 -0.038427 0.192754 0.580055
131 1 5.2205 6.22846 1.71155 -0.8541 -0.856577 0.325814
132 1 0.434855 3.08925 0.621398 1.03002 -0.474217 0.588883
133 1 3.81179 8.10671 1.37325 1.44282 -0.909852 -0.721759
134 1 1.97264 0.0741562 0.639039 0.0384196 -0.170653 -0.0710253
135 1 1.52569 1.08188 7.03791 -0.750942 -0.517658 0.160228
136 1 8.95177 8.23058 5.8279 0.712093 -0.313728 0.642323
137 1 1.92012 4.01203 7.55215 -1.56189 -0.863962 -0.714502
138 1 6.65966 0.538447 4.8828 0.814311 -0.471649 -0.204336
139 1 5.74691 1.91689 4.4631 -0.945907 0.348786 0.504282
140 1 6.2605 2.81958 5.64985 -0.213991 -0.481592 -0.570174
141 1 3.33564 1.05367 8.74303 -1.36609 0.0863184 0.414481
142 1 5.29091 4.94534 1.70126 -0.274103 -0.0905726 1.16531
143 1 8.46913 8.78426 4.5137 0.521596 -0.295049 0.402581
144 1 6.90851 5.26936 1.16409 -0.756834 -0.691692 0.209907
145 1 3.31094 9.36906 0.978215 -0.142684 0.652275 0.574108
146 1 5.99396 5.11439 4.23017 0.721959 0.239509 -0.531131
147 1 4.43546 4.73461 3.62273 0.985972 -0.916511 -0.358068
148 1 4.93274 3.54614 6.64798 1.56983 0.0424412 0.517905
149 1 7.46808 0.581058 7.3084 0.681311 0.870636 0.864097
150 1 5.17235 5.86941 7.77586 0.562364 -1.33675 -1.00237
151 1 7.38172 4.48809 6.97714 -0.671478 -0.0474822 0.651822
152 1 4.72679 7.99909 4.09867 -0.529612 1.01295 -1.14523
153 1 8.25242 2.68201 8.09313 -0.621587 -1.65947 0.0980659
154 1 5.4171 1.97022 1.43285 -0.057875 -1.23186 -0.318764
155 1 7.33492 0.308921 0.656755 -1.00315 -1.99541 -0.925693
156 1 8.85623 6.6456 1.96487 1.37139 -1.40683 -0.412571
157 1 1.50664 3.32089 0.637429 -0.677079 0.595376 -0.173768
158 1 4.4223 2.18327 3.60577 0.969286 1.10224 0.3587
159 1 6.56678 7.38442 9.06499 1.05301 0.928538 0.307592
160 1 1.7849 3.29663 4.88034 -0.826959 -0.85911 0.209813
161 1 6.98906 7.70805 0.414871 0.225505 -0.384876 -1.63128
162 1 5.79905 6.88179 4.40634 0.547078 -0.516464 -0.76236
163 1 7.11128 5.65612 5.61452 0.419732 -0.435466 -1.33847
164 1 3.01833 6.98101 6.77982 2.03056 0.301729 -0.0764576
165 1 1.92336 3.66131 1.89868 0.602228 -0.361434 -0.768979
166 1 1.75436 6.10697 2.7065 -0.845996 -0.101485 1.2058
167 1 2.50723 5.10316 6.37516 -0.0664759 -1.51201 0.113505
168 1 7.69188 2.42306 0.695453 0.756828 2.0065 -0.2545
169 1 7.93375 5.60024 4.04875 -0.253007 1.17044 0.830824
170 1 5.43661 7.76433 6.38425 -1.07145 -0.0468176 0.281751
171 1 2.22343 6.86286 1.3868 1.35941 -0.542014 1.23886
172 1 6.83604 0.333459 1.61654 0.173126 -0.865097 0.181608
173 1 4.81905 3.02042 3.88277 0.637038 -0.401952 0.943556
174 1 7.47984 6.67977 1.64519 0.28307 -1.41866 1.10396
175 1 7.09313 4.99021 3.05446 -0.705387 -0.46138 0.597442
176 1 1.77976 4.25013 0.22177 0.580015 -0.103736 0.758003
177 1 7.6794 3.42688 7.94213 0.182681 0.58086 -0.0440017
178 1 3.45213 2.04194 8.79166 -1.49872 0.834013 -0.128011
179 1 0.0329796 1.66059 2.89409 0.809538 0.18072 -0.208341
180 1 3.39041 8.44891 7.76243 0.302104 0.823354 -0.185602
181 1 8.27422 1.57211 2.88107 0.294785 0.20119 -0.440963
182 1 5.42512 7.25916 3.10312 0.067953 -1.617 -0.309262
183 1 7.80747 3.41326 5.64238 -1.15145 -0.314197 0.310957
184 1 1.25681 0.501861 3.75598 -0.577739 -0.356803 0.148461
185 1 1.44044 2.53753 0.0209543 -0.294914 0.464315 -0.202498
186 1 4.48404 0.40017 7.01142 0.26719 -2.13275 -0.828045
187 1 2.70367 4.32816 1.55013 0.218138 0.368462 -0.715071
188 1 7.50301 3.94 0.733579 -0.476658 -1.57529 0.212739
189 1 7.10317 0.169834 5.70035 0.436293 -0.580107 1.22061
190 1 6.45462 2.24859 1.18779 -0.477272 1.36293 0.316316
191 1 5.49063 3.69539 3.34882 -0.636938 -0.907216 0.988816
192 1 4.98879 0.717131 5.96054 -0.510506 0.650732 0.592066
193 1 2.62649 2.60626 8.65138 0.269552 -0.124058 0.320262
194 1 8.74851 3.16733 7.38202 0.464136 -0.544899 -0.54748
195 1 1.48749 4.54968 2.03889 1.43204 0.103841 0.344659
196 1 2.60825 5.46124 4.32963 -1.5224 -1.42513 0.00273516
197 1 2.00385 3.22085 6.98229 -0.281324 -1.19745 1.69171
198 1 9.2599 0.0560669 3.60467 -0.437581 -0.538312 1.25925
199 1 3.74577 0.995672 4.7248 0.0185919 -0.189753 0.687589
200 1 8.01461 4.88779 3.21495 0.769904 1.07258 0.400785
201 1 0.487551 9.18025 7.06255 -0.379963 0.125755 -1.16172
202 1 1.08398 7.53213 3.49588 -0.762024 -1.26856 0.713772
203 1 0.513805 7.39097 4.38455 -0.231145 -0.452411 -0.482433
204 1 3.64258 5.80379 4.29559 0.431463 0.7276 -0.437117
205 1 7.06635 5.87688 3.54429 0.629283 0.210091 -0.589621
206 1 8.2312 8.57155 8.99581 -0.13995 -0.131676 0.58208
207 1 1.34792 0.688258 1.40556 0.680181 -0.653165 0.400312
208 1 8.84178 4.01885 6.80986 -0.51351 -0.795086 -0.318863
209 1 8.93881 1.25357 9.31589 -0.402437 -0.312522 1.09562
210 1 7.72327 0.468233 3.28693 0.840685 -0.564788 -1.2778
211 1 3.69384 1.8932 4.91503 -0.997206 0.209758 0.805816
212 1 3.9352 7.56408 3.55141 -0.3959 0.257615 -1.02333
213 1 5.57448 8.00919 1.82086 -0.0843221 0.86091 -0.888488
214 1 1.72525 4.76233 5.77327 0.136273 1.06489 -0.641036
215 1 5.95832 1.91297 6.74353 0.106744 0.0173646 -0.792439
216 1 5.45917 1.48821 0.649376 0.271291 0.383103 0.303093
217 1 0.121724 2.33521 8.93603 0.336281 -1.30318 -0.109027
218 1 3.59291 2.27403 1.93467 -0.420796 0.708536 -0.264082
219 1 3.90329 2.86675 0.858179 -0.484555 -0.434068 -0.859427
220 1 2.89095 2.74135 2.41216 0.496997 -0.435137 -0.71406
221 1 5.31755 2.61399 9.02547 -0.182812 -1.01258 -1.23033
222 1 0.44853 2.50004 7.87007 -1.23735 -0.408861 -0.735658
223 1 7.30992 3.91358 6.21826 -0.529699 0.291983 0.855634
224 1 4.43635 0.503789 1.1257 0.00916943 0.481592 0.532771
225 1 7.27903 4.33118 3.65674 0.69641 0.426542 0.978832
226 1 6.14465 0.922256 8.75637 0.406016 -0.147441 0.244163
227 1 4.99183 8.45394 8.36152 -1.79583 1.69933 0.0816902
228 1 4.9148 7.91249 3.23425 -0.625608 -0.101546 0.334031
229 1 2.08991 0.271588 3.0581 -0.829797 0.757332 -1.50166
230 1 3.02439 6.30139 4.68522 -0.152624 0.533611 0.528175
231 1 0.728987 8.35459 4.3314 0.573975 -0.0301557 0.207377
232 1 4.34439 5.10737 0.904938 -0.582715 0.987856 0.0702005
233 1 0.0404874 3.59918 6.28758 0.213289 -0.71069 -0.418962
234 1 0.673904 3.70172 8.57703 -0.328382 0.896707 0.569677
235 1 6.88833 1.70124 8.37875 -0.182819 -0.50233 0.327576
236 1 6.07957 7.09438 2.53042 0.184423 0.938881 -0.103557
237 1 9.26665 6.04304 5.20627 0.31012 -0.779638 -0.704773
238 1 8.19225 4.66912 6.83069 0.792877 0.361855 -1.98169
239 1 1.01037 5.56899 5.30013 -0.764316 0.755976 -0.175749
240 1 3.53204 6.70342 0.144929 1.35104 -0.0339873 0.423414
241 1 9.01542 0.657876 5.63106 -0.174621 -0.909708 0.59933
242 1 5.33662 9.22931 8.10441 -0.213481 -0.199664 -1.44353
243 1 6.42615 6.72785 1.6704 1.32675 0.331316 0.738408
244 1 6.1058 2.30492 2.84441 -0.732274 0.238281 0.924527
245 1 0.947333 5.71987 8.63576 -0.163094 -0.142412 -0.166443
246 1 2.9631 2.95457 7.1186 -1.75422 -0.0673013 0.261137
247 1 8.53873 8.42384 8.06792 -0.645063 0.378284 1.81891
248 1 9.22673 7.30408 5.1467 0.246525 -0.378146 1.04861
249 1 3.72144 8.49394 2.27288 -1.16038 1.10572 1.14972
250 1 8.91443 5.43525 2.22779 1.22451 -0.316777 -0.278531
251 1 3.73703 3.90998 3.8857 -0.556573 0.221702 0.0180336
252 1 0.86739 3.30022 4.51873 -0.104612 0.484648 0.0490461
253 1 7.40673 0.929175 6.24904 -0.379752 -1.34192 -0.118622
254 1 7.72696 3.11873 3.08069 -0.334322 0.610608 -0.30142
255 1 8.43012 2.80866 0.922372 -0.467747 -0.691597 1.18963
256 1 7.54283 7.06426 3.9938 -0.721876 0.205617 -0.551222
257 1 3.25655 7.09083 7.66721 0.840244 0.260572 -1.13106
258 1 6.84165 2.08257 2.30949 1.28837 0.95628 -0.28455
259 1 5.66611 8.96886 0.344044 -1.28366 -0.274335 0.976843
260 1 0.917959 1.89773 2.93829 -0.451893 -1.27862 0.514966
261 1 5.53165 8.37997 4.44999 -0.154285 -1.69586 0.0266653
262 1 8.30703 3.00882 3.92997 -1.07443 0.113489 -0.314346
263 1 8.9471 1.17844 1.90223 1.37991 -0.0586298 0.739306
264 1 4.93707 8.34381 9.22621 -1.04313 -0.477382 -0.771012
265 1 2.71875 4.53233 7.13856 0.0296844 -0.687197 -0.0939544
266 1 3.29865 4.42776 6.30913 0.609396 0.260409 0.329893
267 1 4.12537 3.02125 5.51152 -0.412139 -0.184047 0.103224
268 1 6.37056 4.33492 4.84417 0.109037 -0.251181 0.385942
269 1 3.84544 6.52136 3.20854 0.703664 0.747544 -0.393232
270 1 2.66773 5.62175 5.34427 -0.633783 0.573588 -0.509788
271 1 4.43094 6.63971 0.38996 0.910598 -0.802087 -0.327876
272 1 0.141981 7.5263 3.39828 0.526501 -0.31061 -0.260624
273 1 4.5916 9.0218 0.657222 0.456799 0.861961 -0.361346
274 1 4.81903 1.02636 0.338024 0.274575 0.600411 0.563535
275 1 1.94418 0.490292 5.98933 0.424817 1.12795 -0.372621
276 1 7.97085 3.33824 2.2523 0.0173626 -0.676644 -0.624172
277 1 2.10677 2.24964 4.59305 -0.450177 0.855628 -2.98996
278 1 1.76764 5.85064 4.52135 1.21117 -0.52991 0.435703
279 1 1.15468 7.53266 2.4513 -0.586295 0.739994 -0.687933
280 1 8.50598 1.4701 6.55597 -1.38203 -0.533901 -0.941209
281 1 4.91847 2.43371 7.25181 0.130666 0.478595 -0.660266
282 1 8.31772 1.22762 7.60302 0.0402651 0.713847 -0.760933
283 1 5.78934 0.853591 4.00526 -0.121744 0.219374 0.411837
284 1 7.33544 1.28621 2.62224 -0.494628 -0.287446 -1.44826
285 1 6.29018 3.29009 4.86338 -0.297092 0.102586 0.316061
286 1 3.68801 8.7746 5.64961 0.316822 1.35975 -0.130399
287 1 7.81694 6.24184 0.603992 0.101272 0.192058 -0.618176
288 1 0.635795 1.87167 0.199464 -0.451041 1.08955 0.338896
289 1 0.503516 1.06456 8.5175 0.216919 0.102193 -0.130235
290 1 2.02245 1.83944 8.27648 -0.721128 1.15337 0.951576
291 1 8.74442 8.08913 3.65532 0.251359 1.06561 0.622102
292 1 4.89986 2.51564 0.534716 0.947019 0.481006 -0.632855
293 1 9.2736 9.06257 4.53772 0.705614 0.594034 -0.206152
294 1 2.38945 3.62852 0.716305 -1.23425 0.375109 0.0597488
295 1 3.30623 0.566864 3.63999 0.184263 0.460464 -0.90384
296 1 7.07119 6.82154 8.42469 -0.873677 -0.973272 -0.0849734
297 1 0.920969 8.2266 6.31542 -2.46581 0.602357 -0.610147
298 1 8.73794 5.03304 7.73381 -0.680912 0.0328002 -1.25572
299 1 2.44774 7.44651 4.47068 -0.436514 -0.726853 -0.497834
300 1 3.18883 6.66302 5.78332 -0.162746 0.60528 0.615564
301 1 8.68239 5.73032 1.3987 0.252643 -1.23978 0.879791
302 1 1.70735 2.9229 6.17192 0.147149 0.0452283 -0.737091
303 1 3.46422 2.05909 2.75491 0.37091 -1.36841 -0.789971
304 1 3.86091 0.633109 7.86893 -1.43452 0.957737 0.204505
305 1 3.09321 2.91839 5.05338 -1.08644 0.844601 -0.807775
306 1 7.51629 1.09678 4.65549 -0.372325 0.902156 0.930295
307 1 1.27895 7.83419 0.196923 0.260698 -0.268405 -0.218894
308 1 2.98533 1.02544 5.22812 -0.671311 0.073482 0.972208
309 1 0.0377768 4.42303 8.25037 1.51042 -0.628824 -0.120034
310 1 3.47472 8.24005 3.12404 -0.812023 -0.135351 1.42545
311 1 7.37704 6.16224 9.19565 -1.17105 -0.840916 -0.536853
312 1 9.27765 7.00485 1.23248 0.589386 0.725862 0.427857
313 1 6.84172 3.60437 9.34005 -0.0139389 -0.265014 0.0224399
314 1 4.38399 2.79904 6.51227 0.245723 -2.12869 -0.749066
315 1 7.19173 2.68434 5.42115 1.09259 0.553844 0.457286
316 1 2.91462 7.50204 0.132131 -0.483168 -1.09887 0.787743
317 1 1.54621 9.08225 3.48508 0.852327 0.183582 -0.031231
318 1 1.47981 6.49251 0.989928 -0.903162 0.865497 0.237611
319 1 4.31333 0.238976 8.6803 -0.138896 -0.402002 0.805088
320 1 4.31961 6.36546 2.15238 -1.51975 1.37289 -0.598026
321 1 1.93293 2.28064 5.45481 -0.000724723 -0.580113 -0.666611
322 1 7.96682 5.89166 5.61619 -0.537894 0.123904 0.523557
323 1 3.32456 1.4245 6.8832 -0.606292 -0.614151 0.385958
324 1 6.09798 5.29221 6.33599 1.38473 0.113309 0.89252
325 1 6.58579 1.21429 4.26776 -0.0404053 -0.257701 0.0863864
326 1 1.46992 9.19681 1.46346 1.60637 -0.208973 -0.108483
327 1 3.59006 4.34751 2.08718 1.26238 -0.480256 0.0874847
328 1 9.33509 6.16764 2.69689 0.512457 -0.519418 0.20948
329 1 2.91964 6.20625 7.14941 -1.0567 -1.55271 -0.559123
330 1 1.2245 1.63774 3.76658 0.627814 0.658116 1.191
331 1 8.33464 7.71216 8.72956 1.39651 1.84431 0.559882
332 1 0.460083 4.99805 0.0620038 -0.826471 -0.477578 0.10282
333 1 2.75421 4.03566 2.57421 0.300753 0.155794 0.46639
334 1 5.01284 8.68 7.41675 -0.540562 -1.06244 0.52793
335 1 3.31609 2.84734 0.0275814 0.504243 1.09029 -0.951929
336 1 3.19483 1.49258 7.81644 -0.0949547 -1.07743 0.790856
337 1 3.16871 3.72049 4.61464 -0.318515 1.38497 -0.340262
338 1 5.74427 6.63358 8.03151 -0.817654 -0.141961 0.745357
339 1 7.12014 5.71648 8.39865 0.956366 0.403795 -0.474647
340 1 2.36931 0.630497 4.78267 -0.0367114 -0.187025 -0.56509
341 1 4.57897 3.27631 7.54408 0.873684 0.440166 0.471447
342 1 2.479 7.13426 6.01204 -0.282111 0.68602 -0.328633
343 1 0.0504726 4.65836 1.75378 -1.01988 1.18734 0.60103
344 1 3.28182 6.05173 8.00667 0.790937 -0.706817 -0.879619
345 1 1.0443 7.25115 8.93863 0.427971 0.0484672 0.0282967
346 1 7.35141 5.89653 2.57818 0.241319 -0.792879 -0.0205457
347 1 5.14698 6.39422 2.6285 0.29983 0.765398 0.28595
348 1 5.37287 2.98719 5.48318 0.915056 -0.349259 -1.63518
349 1 4.61912 1.69404 0.932691 1.50586 0.361368 -0.947224
350 1 0.171435 5.92201 6.53823 0.162564 -2.20783 -0.83806
351 1 5.21019 4.39137 0.368722 -1.12417 0.132953 0.830735
352 1 6.19733 3.3784 8.05043 0.39495 0.780748 0.677793
353 1 1.85834 1.69856 9.38548 0.381691 1.5155 -0.386598
354 1 1.75119 1.38385 3.05557 0.538368 -0.43663 -0.333322
355 1 1.7823 6.49011 6.81063 1.22657 1.54236 1.94228
356 1 2.60803 7.74014 8.08028 0.938872 -0.187779 0.497447
357 1 0.559779 3.9448 0.100589 -0.180797 -0.771176 0.699392
358 1 8.9215 1.66177 5.76024 0.211341 0.510277 -0.616067
359 1 5.57267 4.34229 6.48928 0.435453 0.221455 0.0105155
360 1 9.25828 4.42229 5.98797 -0.857394 0.113999 -0.623026
361 1 4.43977 1.59325 4.38666 0.28489 -0.833874 0.62863
362 1 5.26598 8.11721 0.675165 0.534399 -1.13949 -0.797298
363 1 8.79732 0.0458027 1.88378 -0.909953 -0.288126 -0.0193686
364 1 1.01266 4.24057 7.78855 0.0690594 0.828828 1.37756
365 1 2.43521 3.07191 5.61342 -0.378709 0.712984 -0.625138
366 1 0.127408 0.794711 1.33895 0.678305 0.162335 0.253231
367 1 2.98519 5.29033 0.802285 -0.557767 0.629434 -0.32099
368 1 2.29859 3.30944 2.78252 -0.314345 -0.414333 -0.162168
369 1 1.7565 8.21844 7.66193 0.463431 0.160715 0.677074
370 1 4.59158 6.94177 3.11938 0.609298 -1.07172 0.296101
371 1 2.3036 9.13713 6.28243 0.00125979 1.59283 0.133775
372 1 7.64761 2.26751 2.75266 0.0485212 0.26421 -0.834087
373 1 5.53326 4.66837 7.87104 0.429703 -2.89991 0.126536
374 1 3.82617 1.04455 0.573503 -1.34766 0.326637 -0.183876
375 1 8.0761 9.04422 2.69233 -0.523273 -0.294089 1.27269
376 1 3.05193 8.54861 4.97766 1.11126 -0.949517 -1.43183
377 1 5.48902 5.81726 4.8264 -0.135851 1.25627 0.39228
378 1 2.92769 7.54104 2.94116 -0.774635 -0.0816581 0.0706857
379 1 4.07857 7.11704 6.16833 1.48354 -0.375504 0.165949
380 1 0.69899 3.98459 1.43077 0.454116 -0.371377 -0.787946
381 1 7.55468 4.15424 8.50234 0.759158 0.320413 -0.214056
382 1 3.1197 2.44987 7.8064 -0.598813 0.0622822 0.978374
383 1 7.38084 2.58563 8.6927 1.45088 -0.248208 0.444259
384 1 1.5853 1.9958 6.74075 -0.736774 -0.00111062 -0.297124
385 1 3.38949 3.71263 5.63013 -0.612896 0.182031 -0.547697
386 1 6.19716 5.41396 3.42126 1.07989 -0.0745458 0.274534
387 1 4.07888 2.97282 2.48904 -0.294571 -0.341343 0.683942
388 1 2.89342 1.49845 4.51076 -0.550708 -0.346667 0.401462
389 1 0.0278069 5.20138 5.61059 0.163528 -1.1803 0.190118
390 1 0.494116 7.88459 7.49636 1.03764 -0.546403 0.143181
391 1 4.71118 7.48409 8.55879 -0.631903 0.955966 -0.669928
392 1 6.03644 1.79798 7.70066 0.0792679 1.86306 -0.52157
393 1 3.70349 2.75147 3.37923 -0.754784 -0.820473 -0.433965
394 1 4.4484 4.73829 1.90762 0.912229 1.14513 -0.334382
395 1 0.51916 5.3522 4.49923 -0.558738 -0.839596 0.747645
396 1 6.02915 6.10281 2.69093 0.230401 0.879521 1.02368
397 1 8.1926 2.41961 5.99578 -0.216896 0.287986 2.03413
398 1 8.27616 0.868222 8.47349 0.0523219 0.962417 -0.0237556
399 1 5.70963 0.833024 7.82842 -0.121573 -0.365935 0.510612
400 1 5.50265 1.84445 5.59715 -0.568157 -1.65844 -0.152692
401 1 6.88311 5.92363 1.72609 -0.159521 0.0577019 0.415892
402 1 4.23591 7.61241 2.46905 -0.404669 -1.60123 -1.43719
403 1 1.16445 0.603801 8.10207 -0.014944 0.295615 0.326428
404 1 1.8913 7.09027 2.43508 0.182018 0.189397 0.144508
405 1 1.44866 4.09663 4.99003 1.52998 0.10132 -0.727466
406 1 0.0303319 8.43062 0.818875 -0.0332768 0.470616 0.298093
407 1 2.51213 8.43605 3.52976 -0.206003 0.261634 -0.0186024
408 1 4.48684 2.15835 2.68791 -1.0977 0.283959 -0.0826207
409 1 3.21073 4.66957 4.66696 -0.635803 1.0997 0.201749
410 1 6.89233 2.59724 3.23582 0.453408 0.658448 -0.164954
411 1 5.86479 6.97609 6.00709 -1.31573 -0.825739 -0.746632
412 1 7.98667 5.16042 2.39209 2.47692 0.653718 0.509284
413 1 5.61286 6.46384 7.05696 0.803587 -0.285797 0.790009
414 1 9.08895 4.30025 9.23567 -0.0261163 1.23289 0.451276
415 1 9.37241 8.62879 7.70097 -0.608671 0.300977 0.173247
416 1 1.13134 8.84891 0.630371 0.835921 1.41749 0.192629
417 1 0.0501212 4.78562 6.86875 0.189184 -1.53633 1.23692
418 1 3.76833 3.748 8.07898 -0.0950481 -0.243288 -1.74417
419 1 5.27468 3.62742 8.02322 1.30889 0.388256 -0.592379
420 1 9.08242 6.76846 3.24997 -0.0652659 -1.25399 0.0670159
421 1 5.71185 7.5721 5.04609 0.704568 0.0410865 0.544783
422 1 5.1949 8.99185 1.45987 -1.39688 -0.649938 -0.359297
423 1 4.13079 4.75946 4.55801 -0.121683 -0.662198 0.215862
424 1 2.31508 2.84912 0.079532 -0.529134 -0.625294 -0.182923
425 1 2.0488 8.26067 8.52427 0.352523 0.787472 0.709018
426 1 7.40391 7.43702 5.87717 0.907168 0.680818 -0.772338
427 1 0.257724 5.12287 2.55204 1.63778 1.22652 0.796367
428 1 0.542458 9.20997 2.96576 0.271367 -0.150031 0.22592
429 1 2.65834 6.06538 1.52511 0.331882 0.0609649 -0.0441673
430 1 5.23275 0.317845 0.947902 -0.200776 -0.282883 0.65613
431 1 9.20003 7.91357 8.4506 0.529371 0.142369 -0.555556
432 1 7.88604 1.7114 0.0657519 0.518631 -1.03467 -0.11874
433 1 7.22744 7.4878 1.54866 1.10688 0.193318 0.139809
434 1 2.73841 2.12757 1.76431 -1.01999 0.155706 -1.41143
435 1 3.13823 4.99891 2.57689 0.202752 0.713885 -0.011752
436 1 5.34794 2.50359 6.2115 0.078645 0.557907 0.822788
437 1 8.36968 7.12196 0.208083 0.499283 0.820375 0.633531
438 1 9.19378 3.84285 1.04738 -0.160423 0.230851 0.110483
439 1 6.96128 9.16735 7.57477 0.0199194 0.579494 -0.834148
440 1 5.74724 3.92394 5.47409 -0.108464 -0.217851 0.672119
441 1 6.42728 2.5574 8.51205 0.092789 -1.23893 -0.504806
442 1 0.280234 3.93903 7.37684 0.19973 1.09313 0.0845388
443 1 1.45167 7.36885 1.13857 -0.422461 -0.995285 -0.862679
444 1 2.85605 1.1962 1.93718 -0.391684 0.0248649 0.667697
445 1 4.48517 3.87671 2.43186 -0.857545 -0.695852 0.059386
446 1 7.72381 4.88981 7.67299 -0.544647 0.673108 1.38746
447 1 4.80927 7.76643 4.97932 0.828611 -1.26111 -1.41233
448 1 9.24973 5.11241 0.753103 1.04518 -0.496144 -0.0754113
449 1 3.44536 3.5378 3.02594 -0.45547 0.539224 1.10799
450 1 6.33093 3.17871 2.71449 0.727942 -0.524314 1.86543
451 1 8.82655 9.21321 7.18274 -0.92851 -0.0676346 0.0375093
452 1 5.64622 5.83672 8.66102 0.485149 0.334489 -0.413677
453 1 5.90005 6.5294 5.22267 0.472085 -1.63382 0.810207
454 1 7.33552 7.02856 9.40728 -0.223265 1.17932 1.17778
455 1 4.01936 7.34537 7.05947 0.0750966 -1.07694 -1.31575
456 1 0.021105 8.06542 2.23694 0.295721 0.366146 1.83652
457 1 7.67237 5.44308 0.0918063 -0.753231 1.37773 -1.00103
458 1 2.19258 2.86348 1.09357 -0.105027 1.28812 0.407464
459 1 2.48686 9.32722 8.29486 0.231793 0.486882 -1.46926
460 1 5.21505 9.19779 9.05379 1.43156 -0.633758 -0.164153
461 1 0.338712 8.06946 9.37474 1.21275 0.513688 -0.00758402
462 1 0.75614 6.32037 3.99077 0.592836 -0.256586 0.501657
463 1 9.08547 2.47785 4.32019 1.35645 0.0284999 1.254
464 1 2.97316 0.43667 7.68589 0.137134 -0.927085 0.239828
465 1 3.03417 7.81641 7.11192 -0.667766 0.813769 -0.196064
466 1 6.32551 1.18188 0.857748 -0.870246 -0.664243 0.558881
467 1 5.59258 0.380496 3.11547 -1.44307 0.0691795 1.07263
468 1 9.20781 1.56085 4.96736 0.0476851 0.124887 -0.0338108
469 1 2.11975 2.48763 7.61592 1.03368 0.114803 0.635902
470 1 0.908031 4.92546 1.39407 -2.00643 0.678373 -0.0523689
471 1 1.33515 9.23215 4.62051 -0.0181912 -1.30064 -0.145507
472 1 3.28508 5.10946 9.20621 -0.62562 1.14759 -0.0381066
473 1 1.09826 7.49337 5.21719 0.321941 -0.743206 -0.845701
474 1 4.90051 5.09518 4.20983 0.900638 0.247596 -0.23852
475 1 6.00135 4.44657 9.3727 -1.25311 0.412765 1.10968
476 1 2.81376 8.51111 8.93927 0.0775847 1.11453 0.503559
477 1 3.18339 0.222622 5.76758 -0.721975 -0.694708 -2.07095
478 1 4.53105 1.45722 5.36813 -0.0258709 -0.260952 0.130351
479 1 1.36389 5.2558 0.125157 0.720921 0.428026 -1.9306
480 1 3.13582 3.38908 8.74297 0.33202 0.483957 -1.00001
481 1 0.150447 3.23736 2.26013 -0.598404 -0.626544 1.45025
482 1 3.25147 7.5474 6.05206 0.433234 -0.895189 0.410394
483 1 8.95911 0.422691 0.386995 -0.71517 0.290187 -0.424837
484 1 7.49486 3.989 2.74078 -0.646944 2.14012 -0.397887
485 1 2.51933 6.72718 2.97576 0.926346 0.181632 1.09415
486 1 5.84855 8.54919 1.11225 -0.155449 -0.45001 0.516662
487 1 7.51956 3.60573 4.13393 -0.766643 1.03336 0.94629
488 1 5.4439 7.71155 8.02545 1.75225 -0.150739 0.405248
489 1 3.47028 8.17767 0.0210134 -0.323976 0.570532 -0.654039
490 1 8.18414 7.75446 6.34469 0.218555 0.119526 -0.129286
491 1 7.74187 2.41828 4.83873 0.117747 -0.271322 -0.806895
492 1 6.68671 1.77768 9.35024 -0.758718 -0.0380586 -1.61773
493 1 1.32714 9.29924 5.99499 0.273078 1.42394 -0.816202
494 1 2.41043 3.36852 7.91925 0.555941 0.360561 0.389213
495 1 0.0387596 7.45713 6.74683 1.94378 -0.0134246 0.324337
496 1 2.42866 3.72151 9.15204 -0.103772 -1.19565 1.42359
497 1 1.85218 1.04536 2.26361 1.46599 -0.118235 -0.51559
498 1 1.32517 5.29404 2.78587 0.171546 -3.05317 -0.788413
499 1 5.38205 2.59404 8.0564 -1.40137 -0.428716 -0.831719
500 1 3.99269 1.40613 8.30462 -0.0577827 -0.145323 0.249057
501 1 8.13615 7.93718 1.62333 -0.216606 -0.0779586 0.416778
502 1 4.18796 1.20517 3.57117 -0.496585 0.372876 1.32719
503 1 8.79407 3.45074 5.68102 0.102283 -1.26318 0.185129
504 1 3.68065 4.52972 3.09359 -0.647028 -0.749061 -0.0178893
505 1 4.57077 9.10659 4.41562 1.0694 -0.85642 1.09151
506 1 9.0233 6.70776 8.62957 -0.312784 0.631815 -0.852754
507 1 5.93277 0.435996 2.1024 0.842634 -1.21361 -0.583458
508 1 2.68268 8.17021 5.86048 -0.748595 1.16585 0.632622
509 1 3.13295 3.76601 7.24173 -0.0886318 -0.00820458 -0.586115
510 1 1.2701 6.03614 6.1757 0.665963 -0.116677 -0.775287
511 1 6.34025 7.56432 1.28402 0.607316 0.0942662 -0.0651285
512 1 7.86333 7.89019 0.0894048 -0.54167 0.199622 0.006478
513 1 3.87595 3.54116 9.33731 0.481535 0.201227 0.544232
514 1 5.10698 2.85932 2.8938 -0.230294 0.895251 1.39276
515 1 8.06412 6.67424 8.70996 -0.200463 0.394423 -0.847203