ITEM: TIMESTEP
136400000
ITEM: NUMBER OF ATOMS
1000
ITEM: BOX BOUNDS pp pp pp
0.0000000000000000e+00 9.4000000000000004e+00
0.0000000000000000e+00 9.4000000000000004e+00
0.0000000000000000e+00 9.4000000000000004e+00
ITEM: ATOMS id type x y z vx vy vz
1 1 2.0039 5.03354 5.03914 -0.823058 -1.12911 0.141347
2 1 1.40749 3.28907 1.38244 0.581279 -0.553661 -1.16087
3 1 2.57287 5.99235 3.72883 0.693894 0.583275 -0.642248
4 1 7.52519 0.628898 5.7961 1.19913 0.0224191 -0.403639
5 1 3.38519 4.99912 9.16203 1.07466 0.799387 -0.642737
6 1 5.63607 4.84795 0.859124 -0.00928581 -0.584219 0.896752
7 1 1.93164 6.92714 5.16762 0.224529 0.113915 -0.784094
8 1 6.54543 2.37939 8.20695 1.27563 0.937172 1.15801
9 1 0.93484 7.9996 9.21472 -0.384324 0.646577 -0.558128
10 1 8.37448 9.08633 6.64504 -0.149049 0.497394 1.80989
11 1 5.36547 3.88576 5.84506 -0.971934 -0.509569 -1.16081
12 1 0.0743718 8.44216 8.82634 -0.625752 0.715146 0.248045
13 1 6.66894 0.872955 4.19661 0.189061 1.41255 0.604949
14 1 3.80941 7.72152 5.14308 1.68971 -0.794356 0.580805
15 1 2.65368 8.37907 4.00728 -0.688718 -0.834021 -0.123393
16 1 1.38206 8.34009 7.41998 0.65137 -0.0223442 0.399646
17 1 4.26858 2.94088 6.93857 0.820564 -0.673092 -0.0152646
18 1 5.21338 4.55707 5.28588 -0.787731 -0.940237 0.91468
19 1 3.0921 3.61221 6.8326 2.41262 0.789309 -0.134855
20 1 0.993254 2.4117 1.2079 -1.69681 -0.323211 -0.532889
21 1 1.31891 1.51186 9.37583 -0.349335 1.6816 -0.453708
22 1 1.80363 8.55801 2.03784 0.0310317 -0.0638091 -0.718773
23 1 8.19063 0.498422 3.83179 -0.616169 -1.54448 0.48483
24 1 0.500691 9.03814 3.03902 -0.918281 0.31462 0.357492
25 1 8.30825 8.75723 5.83904 0.35471 -0.807265 0.388935
26 1 0.0716409 7.32186 4.01598 0.407942 0.848618 -0.260242
27 1 2.14757 7.632 4.50249 -1.20194 -0.319696 0.924536
28 1 1.54738 7.21908 8.85233 1.19684 0.830419 -0.898925
29 1 7.40436 2.06444 7.60249 -0.196524 0.119202 0.26155
30 1 8.72676 8.87594 8.96691 0.80818 -0.663655 -0.38903
31 1 9.12391 8.79597 7.19306 -0.0353725 -0.608963 0.680137
32 1 2.47814 3.02109 3.2662 0.213345 -1.10035 -0.551404
33 1 7.97834 2.58847 2.31445 -0.300887 0.698688 -0.395448
34 1 5.54205 5.50463 4.54784 -0.602464 0.026493 1.45365
35 1 0.27873 5.41932 1.94436 1.12137 -0.024729 1.25104
36 1 3.27231 8.37311 4.88081 0.961758 0.149878 -0.483843
37 1 8.58694 2.43665 7.68657 -1.23282 -0.638746 -0.248857
38 1 7.40007 2.44035 3.17598 1.04864 -2.31227 0.0440662
39 1 0.644162 1.48243 3.87939 -0.66453 1.70263 -0.0803877
40 1 2.33809 2.02809 3.14921 1.6531 0.911818 0.412343
41 1 0.560995 5.58679 2.96589 0.840508 -0.080097 -0.0648883
42 1 4.9027 1.56205 6.98895 -1.30244 0.614901 0.363233
43 1 1.84517 4.30035 0.66538 -0.536626 2.00325 0.0941715
44 1 3.00396 0.792269 4.03802 0.0675152 -1.562 1.53614
45 1 2.38275 8.17583 7.14468 -0.435842 -0.0662656 -0.436337
46 1 4.3375 4.59843 6.00767 -1.9291 -0.434641 0.587454
47 1 5.22043 6.58714 3.39718 0.786736 -1.01904 -0.659531
48 1 1.78692 7.77785 0.487671 0.278871 -0.321425 0.0940322
49 1 5.11726 5.18896 3.60554 -0.55111 1.11782 1.02192
50 1 3.24758 6.7459 1.14157 0.243267 -0.435488 0.366263
51 1 2.77152 1.23054 2.90598 -0.359774 0.228231 0.742244
52 1 8.61401 0.664215 0.127082 -0.569481 0.100439 0.110372
53 1 4.06455 0.378807 5.66421 -0.990531 -0.64543 -0.679808
54 1 6.95006 5.10888 8.18436 -0.530847 0.962331 0.459869
55 1 8.59198 4.76336 4.95523 0.433248 0.139161 -0.61342
56 1 1.10837 0.340258 3.19686 0.757842 0.681801 -0.239521
57 1 8.64747 1.5538 0.704593 1.54372 2.04712 0.294019
58 1 8.2684 0.243159 5.82679 -1.93129 0.683632 -0.874309
59 1 6.28676 4.5317 1.31294 0.330508 0.177643 0.0180255
60 1 1.07476 0.790915 7.11881 -1.18617 0.78032 -0.556449
61 1 6.72258 3.41344 6.24139 0.777001 -0.441772 -0.80068
62 1 3.57613 3.00849 7.55769 -0.356135 1.36544 0.360649
63 1 5.73835 5.76752 0.36711 -2.16795 1.35965 1.1097
64 1 8.21628 5.72036 1.04897 0.197793 0.46039 -0.0181791
65 1 6.95616 4.12508 0.730899 -0.613765 0.364262 -0.00050355
66 1 3.36403 9.22826 5.01181 0.355967 -0.0487657 -0.394844
67 1 5.62644 3.46749 2.76068 -1.07788 0.807914 0.145425
68 1 7.15291 3.14421 4.81469 0.766831 0.538845 -0.9518
69 1 7.19161 3.99738 1.76347 -0.879559 1.67177 0.0846957
70 1 5.91256 7.67798 5.28392 -1.05751 -0.152368 -0.00898363
71 1 4.09782 3.68854 7.852 0.0177205 1.20502 1.02305
72 1 2.45673 0.205132 2.84532 -0.0349223 -0.0453007 -0.598067
73 1 6.06297 2.93386 0.539004 1.06115 -1.33186 0.198531
74 1 2.49196 3.58739 8.17769 0.0885679 -0.66534 -0.00369325
75 1 2.09453 4.70232 2.38257 -0.703918 0.562368 -1.66724
76 1 7.16656 1.79807 8.7658 -0.0122748 -0.464373 -0.000209608
77 1 8.92156 7.48868 5.35722 0.0954866 -1.44873 0.450983
78 1 0.654952 1.66746 6.64899 1.54717 0.12941 0.268089
79 1 5.15441 1.84627 7.79305 -0.76442 -0.658306 0.380286
80 1 4.32597 6.74437 5.39551 -0.593617 0.665628 0.983875
81 1 8.97123 8.6065 1.91511 -1.15748 -0.852848 0.00094784
82 1 6.84331 1.55189 3.64005 -0.456404 -1.20609 0.0905759
83 1 6.54454 8.46969 3.23361 -0.670622 -1.10477 -0.432013
84 1 3.25764 2.01756 5.85536 0.0578354 0.186647 -0.487122
85 1 5.60622 5.74836 3.07175 0.895943 0.485116 -0.991481
86 1 1.4771 1.12196 6.11122 0.221987 0.419426 1.0435
87 1 7.96539 1.51534 0.0615603 0.0909587 -0.0306521 0.644274
88 1 0.776364 4.36444 9.2149 2.35728 1.22549 -0.470699
89 1 0.889251 9.2507 5.15214 0.519613 -0.96454 0.807958
90 1 3.05276 0.441279 5.5919 -0.177212 -1.24273 0.14328
91 1 2.02486 8.64278 8.0162 0.834338 0.852668 -1.49231
92 1 4.60008 8.15127 3.03533 0.45744 0.409558 -0.193379
93 1 3.46588 4.01184 0.195006 -0.250655 0.103303 1.70365
94 1 8.68187 8.39099 2.87028 1.14056 -0.644201 0.00611291
95 1 0.173665 4.35451 0.500135 -1.01999 -0.897034 0.114162
96 1 8.98207 1.69166 8.31604 -0.449504 -1.15642 0.0406208
97 1 5.59613 7.29619 8.96474 0.0958127 -0.330377 0.505453
98 1 1.7628 2.84913 2.82835 -0.577329 0.145775 -1.39769
99 1 5.54019 0.738134 6.86392 -1.39377 0.306831 -0.60692
100 1 6.01945 5.79155 8.14426 0.48105 0.86096 -0.449101
101 1 8.21351 8.84097 1.27667 1.97058 0.129967 0.830309
102 1 6.38753 4.06434 2.86836 1.15627 0.189288 0.478941
103 1 2.34476 0.710164 0.565545 1.06716 -0.743662 0.177756
104 1 4.82867 9.16203 0.0182433 -0.0357944 1.35014 0.154279
105 1 6.62467 2.60973 7.2798 -0.505484 -1.30005 -0.235102
106 1 8.88857 8.14239 1.00757 -0.717628 0.424603 -0.304146
107 1 3.8602 5.85691 5.08698 0.113855 -0.791954 0.811292
108 1 2.97645 7.28979 6.94537 0.119105 -0.145806 0.72822
109 1 7.96637 1.96937 8.23385 -0.0337491 1.329 -0.942158
110 1 4.66623 8.96664 2.67186 -1.63105 0.767095 0.621557
111 1 5.64696 2.45859 9.18401 0.636179 -0.471387 -0.498092
112 1 1.72989 4.00924 4.00513 -0.184238 -0.291587 -0.953266
113 1 9.05242 4.44015 4.05772 0.711472 0.645213 0.970402
114 1 3.23869 8.5812 1.11785 -1.19718 0.78871 -0.906241
115 1 4.31044 1.91497 3.7256 0.958943 1.13298 -0.825776
116 1 4.84688 1.32119 2.12977 1.0057 -0.174085 -0.228817
117 1 8.26911 6.07613 6.39571 -0.712783 0.246623 -1.49311
118 1 4.16219 1.26158 1.38463 -1.03558 0.257961 -0.883651
119 1 6.22361 9.3171 7.47443 0.782555 -1.1456 -0.533142
120 1 7.07309 4.86566 9.14338 -0.118643 0.314164 0.194637
121 1 1.59174 3.10681 3.66481 -0.896265 -0.00538455 -0.0171356
122 1 3.54165 6.6131 4.97102 -0.602473 0.832214 -1.18381
123 1 2.45009 7.87157 6.26841 -0.510265 -0.908737 -0.710582
124 1 6.82652 6.56925 3.98063 -0.0528302 2.3633 -0.529995
125 1 2.02099 2.28876 0.43754 0.264512 0.730765 -0.014357
126 1 4.2359 3.73904 2.63254 -0.636628 0.141712 -0.94462
127 1 3.80272 0.948484 6.27157 -0.138327 0.704724 1.43979
128 1 2.66619 7.68094 0.817117 -0.161396 -0.281978 0.253173
129 1 7.34884 4.75602 1.34869 -0.0600741 1.35796 -0.207625
130 1 8.34949 5.17055 6.71601 -0.0428114 -0.310209 0.190727
131 1 4.70535 7.78228 5.34219 -0.324628 1.54579 -0.150661
132 1 7.2509 5.3343 7.02011 -1.25495 -0.8387 -0.0239299
133 1 8.47964 1.05577 1.75043 0.755481 -1.41174 0.184881
134 1 8.35323 0.698577 6.72972 0.902129 -0.014305 0.578493
135 1 3.23975 4.65604 0.640342 0.823844 -0.245581 -0.832915
136 1 5.1286 0.792832 1.52095 0.480067 0.775489 -0.63168
137 1 9.14841 8.40398 5.4478 -0.134959 -0.205572 1.68256
138 1 5.88946 7.55465 7.78622 0.204894 -1.19548 -0.20466
139 1 1.81556 3.90211 3.05998 0.460729 -0.557068 0.312803
140 1 0.11375 8.62636 6.418 1.89941 -0.405521 1.08224
141 1 5.74797 0.914024 8.41226 1.27463 -0.245564 -0.999441
142 1 2.374 2.0077 7.29385 1.15795 0.617276 -0.362569
143 1 1.6055 7.49029 7.16166 -0.553844 1.20371 -0.478824
144 1 8.22811 3.83723 7.28352 0.272553 0.758447 -0.451867
145 1 3.39061 5.99217 8.38608 0.201793 1.69003 1.12101
146 1 6.7924 7.30707 5.38055 -0.161004 -1.52762 0.164375
147 1 5.50812 9.05378 6.92043 0.285283 0.424014 -0.608306
148 1 5.24837 2.73145 3.83318 -0.0529366 0.339932 -0.90067
149 1 7.37217 5.55886 1.97995 -0.16784 0.299195 -0.157341
150 1 7.01301 7.61602 6.24923 0.862345 -0.344238 0.544991
151 1 2.07465 2.21563 5.84827 -0.726161 -0.112974 0.599862
152 1 0.715418 1.19175 5.56851 -0.807286 -0.322063 0.303822
153 1 6.49271 6.45733 5.71814 1.27614 -0.463337 0.405701
154 1 8.15453 7.87767 7.30658 0.54661 -0.362601 0.109715
155 1 8.56032 9.28711 3.40244 -0.111117 -0.965827 0.645302
156 1 0.84646 0.388675 1.1449 0.492773 0.576466 1.15984
157 1 7.72617 3.98649 4.77387 -0.804967 -0.0344905 -0.812066
158 1 0.440863 5.8459 1.02527 0.0867252 0.284956 -0.155194
159 1 1.78529 5.18615 0.632068 1.40912 -0.451243 1.21727
160 1 0.105643 7.02536 6.50023 0.27933 1.88611 1.68423
161 1 6.86282 5.94662 3.34807 -0.795539 0.0440601 0.598927
162 1 5.11386 9.103 0.974366 -1.15005 -0.217483 -0.305668
163 1 6.42705 5.88355 4.61002 -0.518826 -0.0953638 -0.976938
164 1 7.74051 6.72113 0.555788 0.174262 0.507946 -1.12031
165 1 5.97031 4.22057 3.72722 -1.02853 0.191704 -0.0327718
166 1 8.43961 6.81582 6.9494 2.44316 0.165755 0.786796
167 1 5.73075 3.33501 4.85012 0.295796 0.20356 -0.313349
168 1 6.18694 6.37685 9.09514 -0.56098 0.655748 0.248648
169 1 1.36931 6.93933 7.98887 -0.0806262 0.0402606 0.00519352
170 1 4.32841 5.37374 2.04705 0.290203 -1.54844 -1.15234
171 1 4.82159 9.29999 5.24716 0.307048 -0.250834 0.622025
172 1 8.42834 6.81238 7.91364 0.0996537 0.677118 0.350202
173 1 6.43858 5.70468 2.57728 -0.147199 0.161349 -1.5722
174 1 3.22592 2.42973 3.45716 0.988887 -0.294325 -0.308726
175 1 7.36823 3.71239 3.86096 0.221444 0.171708 0.503724
176 1 8.31125 2.41251 0.338648 0.562441 -1.19687 -1.06294
177 1 2.02441 2.87216 8.00814 1.58938 -1.24806 0.23612
178 1 9.2386 6.45698 4.30626 0.605434 -0.971491 0.898205
179 1 4.07213 2.09088 2.66871 2.45901 -1.70322 0.363463
180 1 7.70121 3.03247 6.40805 -0.614034 -0.281084 -0.118557
181 1 7.23143 5.7173 4.24687 -0.477853 -0.388898 -1.15065
182 1 0.568143 3.89419 1.70982 -0.0730226 -0.849235 1.12287
183 1 0.0307217 6.56549 3.40976 -0.358196 0.461569 -0.00161192
184 1 5.75273 5.33916 7.07591 0.11831 -0.35208 0.58055
185 1 4.49109 1.25535 8.00045 -0.0395123 -0.104579 1.40235
186 1 6.97809 9.29407 5.35447 -0.76576 1.35477 -0.475221
187 1 1.06297 3.90086 0.588744 -0.241845 -0.155518 0.0738533
188 1 9.10183 1.53685 6.1986 0.511207 1.46462 -0.506268
189 1 1.00476 0.256631 4.1583 0.591435 -0.372146 -0.964077
190 1 1.18099 3.93484 5.81994 0.0153422 -0.420811 -0.0146703
191 1 8.57855 5.38481 0.310793 -0.571085 -0.144587 0.827895
192 1 7.93335 4.45601 2.20679 -0.22587 1.30693 0.367573
193 1 2.10303 6.97632 6.31275 1.42249 -0.722843 -1.34821
194 1 1.30971 7.27617 4.5607 1.00248 -0.518175 -0.480537
195 1 1.38733 9.30234 7.51452 -0.899599 -0.378984 0.0899418
196 1 4.32408 4.4772 2.17286 -0.72598 0.963059 0.395887
197 1 2.22704 3.64174 7.20293 0.415269 -0.592225 0.142571
198 1 3.55744 5.11663 5.52715 0.811661 0.202094 0.298854
199 1 2.64877 4.99192 4.2608 0.00572239 -1.31188 1.14378
200 1 4.70799 0.970127 6.33946 -0.0931239 0.667126 0.296391
201 1 4.90412 7.38783 6.36374 1.56489 0.0290465 2.88519
202 1 4.78048 0.0675708 6.25472 0.18298 0.230797 -0.200429
203 1 1.33841 3.11961 6.18369 -0.875184 0.174531 -0.650062
204 1 2.97747 7.49781 5.37265 -0.930038 -0.145048 0.32534
205 1 5.89587 8.40937 1.26453 0.199629 -0.8675 1.38996
206 1 7.91944 3.41882 0.399799 0.257518 0.0554606 -0.13032
207 1 2.88064 8.54448 1.94016 1.56141 0.413465 -0.117519
208 1 4.14033 2.77178 6.07813 0.714415 -0.720653 1.1957
209 1 3.90678 5.16826 8.23286 0.962765 0.582338 0.628006
210 1 5.44694 2.01034 5.22166 -0.686305 0.607595 0.402846
211 1 2.15514 1.5343 8.46664 0.420953 0.502799 0.285129
212 1 3.1738 1.91721 0.567539 0.369013 0.872068 0.187615
213 1 2.88032 2.93478 0.906446 0.632012 0.30358 -0.487616
214 1 4.04201 1.74624 4.67095 2.05264 -1.1485 -0.740282
215 1 6.30024 4.18291 8.01142 -0.109384 0.119699 -0.600789
216 1 7.05014 9.11662 2.75276 -0.947693 0.781129 1.3354
217 1 5.09941 8.91282 1.78982 0.637843 0.326934 -0.922646
218 1 1.95073 1.19226 1.74569 2.19609 -0.464441 -1.63824
219 1 1.68315 5.11896 8.1817 0.297482 -0.856762 -0.642869
220 1 6.78867 3.56676 7.22284 0.72039 -0.285184 0.0803866
221 1 4.88182 6.22101 4.74138 0.609771 -0.288347 -0.53418
222 1 5.00099 1.89158 4.47108 0.446327 0.956227 0.774276
223 1 2.72806 7.6981 8.98146 -0.516538 -1.8323 -0.460722
224 1 5.77222 5.97218 5.40097 0.88958 -0.681174 -1.18339
225 1 1.15756 2.12206 2.80381 0.891144 0.476157 0.376548
226 1 2.01434 8.44764 9.0276 1.25472 0.375117 -0.164509
227 1 3.26046 2.83162 8.53381 1.5885 -0.635568 0.809216
228 1 4.63286 7.03113 2.90344 -0.233041 0.66973 0.243111
229 1 1.80633 0.204284 6.62476 0.922568 0.246934 0.7646
230 1 6.61186 9.39316 0.0840185 -0.80169 0.892703 0.285521
231 1 3.15921 5.63053 7.27897 -0.938695 -0.568277 0.0636151
232 1 8.02209 7.18231 8.61043 -0.598641 -1.2381 -1.02248
233 1 6.56832 3.45309 1.2543 0.709843 -0.861524 -1.22013
234 1 1.96027 1.54952 5.12057 0.363048 -0.124579 -0.0935701
235 1 1.61732 2.30635 8.87251 -1.29021 0.232766 -0.0324756
236 1 0.284949 7.11934 2.70538 0.53321 0.244324 -0.54781
237 1 7.58693 1.074 3.38352 1.39253 0.795755 -1.40832
238 1 4.66205 5.90913 0.0547574 0.707643 -0.691238 -1.43188
239 1 2.46959 5.47107 8.80843 -0.559772 0.663468 -0.368726
240 1 7.20856 6.77826 2.98841 -0.916326 -0.507822 -0.595886
241 1 7.21746 2.16655 0.780128 -0.315893 0.919751 -0.312034
242 1 7.73323 0.035317 3.12067 -0.979044 0.0808952 0.624642
243 1 1.52259 7.02614 1.78855 -1.79673 0.282103 -0.509907
244 1 4.41527 8.0339 2.21761 -0.351624 -0.466783 -0.612047
245 1 1.93275 5.32922 1.56838 -0.317269 -0.0804175 0.438136
246 1 6.21713 8.05099 0.0744922 0.233932 -0.216753 -0.447214
247 1 7.3172 5.77566 0.734187 1.18074 0.376822 -0.713308
248 1 4.42324 2.38342 0.385186 -0.96605 0.77578 -1.01146
249 1 2.30513 4.2864 4.82632 0.189921 0.580089 -0.445143
250 1 0.966454 3.03661 4.42831 -0.51427 1.14126 -1.58395
251 1 6.0921 0.255843 6.36939 -0.235806 -1.40714 -0.822792
252 1 6.87667 0.534251 0.713224 -0.574151 0.24357 0.158882
253 1 7.47237 3.88804 5.67119 0.830511 0.12873 0.4266
254 1 2.91245 0.734002 2.13352 -0.642999 -0.699261 -0.0517826
255 1 1.49517 1.68553 7.00486 0.438081 -0.361941 0.47921
256 1 2.26149 5.70709 2.52459 -0.422075 0.127284 1.44251
257 1 6.59738 5.33559 1.50437 -0.0429953 0.000474737 -0.723642
258 1 4.23233 8.18597 7.35644 -0.682588 -0.368425 -0.485645
259 1 8.58152 9.28503 0.39181 1.08915 -0.477138 0.633379
260 1 5.7549 2.69346 2.49079 -0.420222 -0.211603 -0.826204
261 1 6.54306 8.40486 5.79043 -0.0411446 0.510609 -0.115865
262 1 5.30786 9.0651 4.2319 -0.209873 -1.00985 0.226809
263 1 6.20667 4.78871 8.70131 0.338615 -0.601699 -1.41283
264 1 4.47582 7.75467 0.334415 -0.846159 -0.0458186 0.572946
265 1 5.10535 1.1097 3.9627 -0.411453 -0.445424 -0.0994276
266 1 8.92833 2.31861 3.18883 0.731784 1.82769 -1.22862
267 1 5.45387 7.81724 0.519536 -1.22022 0.291494 0.225964
268 1 7.12848 8.21023 3.92187 -1.07993 0.205686 -0.0774434
269 1 1.29335 7.78231 2.27585 -0.948236 0.711271 0.336347
270 1 1.97855 3.30599 4.49326 1.08584 0.0216068 -0.0872821
271 1 3.00939 0.530639 6.59756 -0.579409 0.835361 0.127169
272 1 9.21714 6.62045 0.948192 -0.373399 0.409888 -1.53295
273 1 6.02655 4.96904 2.888 -1.1731 1.20313 -0.172407
274 1 7.65431 1.1694 4.33765 -0.898682 0.862098 0.449199
275 1 3.69722 0.755581 4.62253 -0.220453 -0.285971 -0.0571994
276 1 1.10572 5.56795 4.57581 -0.0440613 1.29134 -0.0747187
277 1 3.63799 5.59423 0.491937 -0.968251 0.104489 0.489988
278 1 3.79653 5.56489 2.77206 0.110112 0.649118 0.0682034
279 1 0.463515 7.50866 1.92524 0.902965 -1.09006 -0.33206
280 1 0.174966 5.12255 4.81798 -0.289954 0.124654 -0.772166
281 1 5.99545 4.1229 0.522166 0.865876 -1.06433 -0.659161
282 1 4.59981 5.29835 5.30426 1.9767 0.61836 -0.446892
283 1 2.74766 2.90155 7.50993 0.303256 1.52996 0.391649
284 1 7.50701 8.69218 4.84404 -0.81372 0.293888 -0.951932
285 1 9.17319 7.84353 2.28216 1.17485 0.50687 -0.540487
286 1 9.32174 3.96653 3.38019 1.04215 -1.17274 -0.0451261
287 1 4.1988 8.33737 9.05648 0.164319 0.423663 0.00485774
288 1 4.99498 3.94451 2.18509 0.0846756 -1.43564 0.65725
289 1 3.43122 4.74884 3.92104 1.13897 0.252892 0.76221
290 1 2.31642 1.3774 0.063577 0.199095 -0.027089 -0.793105
291 1 1.02871 7.32223 6.53157 -0.0153259 0.0665218 0.642927
292 1 8.95252 2.7973 4.92435 -0.250414 0.114492 0.819935
293 1 4.16786 7.28345 6.92711 1.67913 -0.934354 0.347977
294 1 3.05365 1.59757 4.8282 0.0232806 0.423541 -0.645902
295 1 6.14949 2.30434 5.76276 0.990481 -0.230437 -0.303175
296 1 0.62446 8.07515 3.81643 0.768973 0.000591323 -0.940318
297 1 0.823039 6.236 0.329623 0.133177 0.963282 -0.571796
298 1 4.35708 8.69764 4.61052 0.842924 -0.352317 -0.942552
299 1 0.117901 2.28914 7.84304 1.18518 -0.608834 -0.0371717
300 1 4.59872 2.16936 1.68218 -0.888926 1.19144 1.62091
301 1 2.53658 4.91972 0.141193 0.0810617 0.623168 0.347284
302 1 0.605589 5.89193 3.89424 0.145963 -1.40818 -0.371465
303 1 2.56656 6.06076 4.68903 0.194569 1.08926 0.688513
304 1 0.91604 4.31887 7.20143 1.19405 0.154186 -0.55982
305 1 6.7512 1.40178 1.14552 0.600139 -0.496353 -0.566468
306 1 2.39885 6.9066 1.6169 -0.425569 0.480691 -0.332374
307 1 5.44654 1.5349 6.34473 1.02578 0.310212 -0.581605
308 1 8.97517 5.8124 4.75862 0.132342 -0.284181 0.106301
309 1 8.51675 5.82207 3.05874 0.268054 1.89401 -0.956792
310 1 6.15215 8.98445 4.98751 1.04582 -0.196908 -0.516129
311 1 7.76936 8.09229 6.49009 0.502274 -0.519553 -0.846057
312 1 4.45106 5.67648 4.11561 0.263278 0.0796684 -0.48812
313 1 8.24099 2.9002 3.91055 -0.63337 -0.494398 -0.0318106
314 1 6.94494 1.76225 6.84471 0.803389 0.943094 -0.314767
315 1 9.02159 0.66942 2.91692 -0.0313823 0.445981 0.276714
316 1 4.76792 3.3907 6.25392 0.274706 -0.128239 -0.834068
317 1 7.08836 0.804542 5.05421 2.17655 -0.0759543 0.0959769
318 1 6.6023 1.62968 7.63106 -1.5263 0.147958 -0.644273
319 1 7.9731 4.7078 5.71141 -0.361882 -0.639466 0.570739
320 1 4.23879 3.58335 1.73381 0.746495 -0.80912 -0.395145
321 1 8.23639 2.14131 1.24736 0.00627392 -0.325729 0.741428
322 1 0.410838 8.43562 7.56208 0.110209 0.440545 0.227086
323 1 7.95972 8.67828 8.06448 -0.186743 -1.00431 -0.606273
324 1 0.880335 5.06683 0.706238 0.144672 -0.63023 0.0349118
325 1 3.23979 8.36133 0.312898 0.570696 -0.640584 0.570948
326 1 9.33664 3.11721 7.43274 1.1896 0.221198 1.6927
327 1 8.47998 7.10857 4.28166 -0.390876 0.323274 -0.44013
328 1 4.37244 3.90597 3.51001 -1.0564 -0.424843 -0.271728
329 1 8.27012 4.14086 3.60453 0.309531 0.123102 1.69032
330 1 6.85016 7.69863 1.35154 -0.341043 -0.986199 1.85019
331 1 2.14028 3.13001 2.03398 0.123355 0.193617 1.13772
332 1 2.5572 9.25435 4.31976 -0.87438 0.400343 -0.0104199
333 1 8.83171 6.09252 1.67409 -0.854153 0.434026 1.89811
334 1 5.86994 6.70299 8.05427 -0.520902 0.150456 1.39414
335 1 5.34668 3.88374 4.28859 0.169578 -0.0344726 0.843261
336 1 5.79255 3.26471 6.60927 0.425467 0.167023 -0.936361
337 1 3.1133 5.3671 6.27033 0.0415116 -0.527577 -0.725037
338 1 9.11286 8.95246 1.02148 -2.08914 -0.821047 0.19761
339 1 4.85336 1.08772 5.04702 0.00925484 -1.32437 0.515346
340 1 1.38736 5.61314 6.56447 0.757539 -1.3685 0.632839
341 1 8.5303 3.3098 7.94441 0.222937 -0.615197 0.466176
342 1 4.0842 6.30023 2.17911 -0.443084 -0.495146 0.539618
343 1 9.17154 3.73124 2.10678 1.16951 0.410169 1.9492
344 1 2.70047 7.42851 8.0103 -0.426295 -0.524707 0.781673
345 1 4.1637 1.06217 3.96974 0.253657 0.0653795 0.134253
346 1 2.0576 1.65508 4.15519 -0.195206 0.682648 -1.07495
347 1 6.05987 8.11929 8.47613 0.898634 0.408273 -1.34439
348 1 5.48172 5.55959 1.3135 0.0936285 -0.564437 -0.700752
349 1 3.93787 6.1268 7.10383 -0.0645969 -0.232004 -0.488462
350 1 7.90913 3.95689 1.17287 -0.827951 -0.695727 0.969781
351 1 5.53604 6.97307 7.19318 1.14741 -1.27936 -0.118585
352 1 1.87161 0.0371731 3.65404 -1.28175 0.291067 -0.306709
353 1 3.40232 5.6232 4.35246 -0.118123 -0.399617 -1.02665
354 1 1.94264 2.99633 5.45061 -0.156266 -0.368215 0.385274
355 1 6.82046 4.02405 4.78449 -1.3499 0.653322 0.0494537
356 1 1.29451 2.70344 2.02406 1.17713 0.674684 -0.0162778
357 1 1.45372 0.0152007 5.80956 0.847697 0.1577 0.554492
358 1 6.7346 8.67114 0.551687 -0.52249 -0.387981 -0.45427
359 1 0.779897 2.39509 6.17799 0.174101 0.467788 -1.0351
360 1 8.7804 8.02233 6.23941 1.67904 -0.00858021 -1.2475
361 1 6.52664 8.90583 6.64692 0.496686 0.792639 -0.00411601
362 1 1.27734 0.953949 4.96098 1.16707 -0.728001 -0.170969
363 1 3.68194 3.04137 2.58133 0.871307 0.520727 -1.09082
364 1 7.02812 3.00663 0.453408 -0.586524 0.301491 -0.231134
365 1 1.3936 5.90634 7.47461 -1.2972 0.0237376 -0.0872257
366 1 7.75511 6.14929 3.61431 -0.800714 -0.166244 -0.723225
367 1 1.62871 0.638047 2.53752 0.260254 -0.0977542 -0.261809
368 1 0.942598 4.81326 6.38352 1.04391 -0.369743 0.554411
369 1 7.18699 1.48027 6.01219 -0.297087 -0.282695 -0.113132
370 1 0.355385 3.54311 9.31055 -0.411338 -0.00153718 -0.478923
371 1 8.88879 5.18375 2.50526 0.799902 -0.855676 0.0743198
372 1 6.54709 2.52661 4.94471 1.22641 -1.45326 0.998075
373 1 2.60343 6.8401 2.55803 0.00626057 0.405036 -0.410786
374 1 1.79877 8.03542 3.80745 0.157341 -0.468313 0.460761
375 1 5.89826 5.88034 6.25748 -0.182837 0.467649 0.591456
376 1 8.58613 2.46229 8.75973 0.185461 0.838934 0.570408
377 1 1.48348 3.70985 7.68992 0.744761 0.779978 0.367322
378 1 1.33907 6.4015 1.14935 -0.71696 0.784607 -0.000142063
379 1 4.68952 6.57906 7.31472 -0.344375 0.735446 -0.0129518
380 1 8.16204 3.41858 8.80163 0.846796 -0.0811678 0.425367
381 1 7.84059 1.45424 5.26864 -0.324487 0.093817 -0.263797
382 1 7.7204 7.53248 9.33828 0.0106963 0.802766 0.353903
383 1 7.04371 6.7337 1.28939 -0.0077995 0.405941 0.580774
384 1 9.18321 5.61459 3.86681 -0.12318 -2.06476 0.0469684
385 1 0.102078 1.14908 7.57802 0.293496 -0.535317 2.03684
386 1 8.05201 5.59115 4.83767 -0.621274 -0.0273678 -0.372316
387 1 6.30156 7.15997 1.84167 -0.217568 1.14611 -0.0335687
388 1 5.24379 0.273849 7.74666 -0.572254 1.28986 1.62203
389 1 4.52671 1.32705 3.09653 -0.534334 -0.00350672 -0.683199
390 1 3.75195 4.77693 6.83089 -0.40811 -1.23892 -1.14348
391 1 0.337333 7.83962 6.23369 0.199426 -0.112624 -1.53428
392 1 0.472403 8.6345 4.63568 0.809455 0.538014 1.21948
393 1 6.87996 5.93887 6.43076 0.438407 1.03427 -0.254026
394 1 2.88072 2.17202 8.07282 0.291971 0.61879 -1.23039
395 1 0.786356 5.31308 7.67557 -1.39752 -1.17021 -0.100691
396 1 6.96947 7.49684 0.496963 0.216967 0.477388 -0.198228
397 1 7.714 8.65692 7.13979 -1.34667 2.3978 0.395728
398 1 7.72887 8.36548 3.1827 0.47971 0.232168 -0.12684
399 1 9.30866 7.48948 8.0198 -1.04567 -1.19814 0.168678
400 1 7.76819 4.77695 4.13747 -1.03936 1.18713 -0.140843
401 1 8.90617 2.69752 1.86856 0.718762 -0.570147 -0.780799
402 1 0.348472 7.28083 9.03537 0.65317 1.98859 0.134767
403 1 6.88433 7.45515 3.51785 0.365688 0.191167 1.08253
404 1 3.04112 7.59768 2.08527 -0.821225 -0.632216 -0.583913
405 1 7.55935 0.175855 1.92102 0.661993 -0.925154 -0.943803
406 1 3.76264 8.45566 3.1645 0.609923 0.465109 -2.02609
407 1 9.02782 9.25548 2.54023 -0.148492 -0.662788 -1.26653
408 1 1.69039 5.99598 8.44945 -1.12123 1.40142 0.0493409
409 1 7.53166 3.04447 1.48302 1.6241 0.0290889 0.290918
410 1 4.23283 8.02471 6.1323 -0.243568 -1.25295 -1.34608
411 1 6.12079 7.03305 3.31316 -0.6465 0.124263 -1.50646
412 1 9.12569 5.63417 6.40146 1.2633 -1.46599 1.10412
413 1 2.24103 6.75194 7.30681 -0.195846 -0.562692 -0.621143
414 1 5.11594 6.52026 6.50796 -1.36743 -0.56845 -0.344277
415 1 6.43204 1.99562 2.93146 0.637602 0.108398 -0.314153
416 1 0.728635 5.32888 8.83488 1.23779 0.932741 -0.0387496
417 1 1.27916 1.71142 1.85314 -1.45314 -1.36196 -0.547158
418 1 0.403389 7.78387 4.72073 -0.517723 0.173147 0.338717
419 1 4.7879 8.27935 0.958906 0.0473145 -0.0597101 1.08872
420 1 2.24412 5.11554 6.4408 -0.212455 0.373187 -0.263969
421 1 3.75992 1.81089 8.27031 -1.35855 -0.170743 0.841925
422 1 3.20541 8.29779 5.88412 -0.231699 0.415491 -0.462817
423 1 9.33259 6.12301 2.52378 -0.793772 0.0873915 -0.789706
424 1 3.7679 7.62508 2.75819 0.573683 -0.0758806 -0.982831
425 1 5.60354 2.29718 1.52122 -0.58174 -0.0650449 0.983263
426 1 6.44996 5.0255 0.485144 -1.56241 -0.832649 -0.232797
427 1 6.03077 2.78923 3.4419 -0.214304 -0.542651 0.376617
428 1 0.499896 2.1953 3.39324 -1.12891 -0.656188 -0.393904
429 1 2.67804 6.68855 5.59017 -1.49644 2.47051 0.376305
430 1 7.62553 5.1714 2.93688 -0.389305 -0.130421 0.361288
431 1 9.04857 3.0967 2.69602 -0.391614 -1.6286 0.0538718
432 1 4.30162 0.397908 0.450152 -0.0751743 -1.25785 -0.817104
433 1 7.34873 4.0816 3.0242 0.375676 -0.0134035 -0.572456
434 1 2.29721 7.92565 2.63912 -0.0733721 -0.318343 0.373839
435 1 0.994965 1.79106 4.5919 -1.08446 -0.453006 -0.178312
436 1 3.6684 3.55299 5.05562 0.479478 0.835183 0.253666
437 1 1.02417 4.6072 2.72938 -1.30625 0.151496 1.30041
438 1 4.46779 4.28486 0.0663907 -0.266739 -1.36706 -0.361438
439 1 2.74869 3.70143 5.3271 0.34892 1.07874 -1.9821
440 1 7.26132 6.75155 6.79207 0.885695 0.45032 0.159407
441 1 5.46442 8.20487 3.47152 -0.335967 -0.196593 -0.168721
442 1 3.1774 4.55002 4.91463 -1.41773 -0.807292 1.44215
443 1 3.87514 8.79759 8.24628 0.166515 -0.471636 0.452181
444 1 2.12185 1.13906 6.74563 0.257119 1.49677 1.1456
445 1 7.56804 9.16883 0.60206 0.0751658 -0.570028 -1.16253
446 1 4.93954 2.92266 2.00745 -1.15677 1.02141 -1.54489
447 1 6.0991 7.22607 0.419979 1.53634 -0.0131485 0.358294
448 1 6.83342 0.49914 3.38893 0.330828 0.336959 0.353693
449 1 5.03873 2.55887 7.25199 0.690863 -1.06857 -0.18129
450 1 8.97554 8.47543 8.00527 0.925722 1.51494 -0.661069
451 1 8.77702 0.171007 7.51455 -0.624906 -0.700737 -0.865245
452 1 1.94103 0.0698127 0.996284 1.38394 0.603217 0.692768
453 1 4.09215 6.4738 6.28947 0.0838579 0.479167 0.652385
454 1 6.19723 0.944773 0.196717 0.567307 0.270972 0.33548
455 1 0.166998 3.15429 0.86804 0.455547 0.734902 -0.407805
456 1 3.92771 4.39529 8.70534 -0.0601162 1.26218 1.01096
457 1 5.36372 2.86576 5.69155 0.20572 -0.796254 0.554817
458 1 7.21668 4.50708 6.35741 -0.802227 -0.0700427 0.833481
459 1 3.52004 9.32269 0.791362 -0.476996 0.97546 -1.13408
460 1 3.11439 6.31519 1.94432 -0.114401 -0.308465 -0.734219
461 1 3.94329 1.05942 7.19936 -0.382898 -1.09817 0.195812
462 1 4.99614 4.6886 4.3249 -0.169046 -0.756243 1.53131
463 1 7.54885 0.525631 9.3868 0.256435 0.0690738 0.304607
464 1 8.36225 2.81631 5.89518 -0.0437675 -0.758999 -0.510315
465 1 0.0805666 6.28449 5.82164 0.361966 -0.2874 1.90409
466 1 5.88174 3.33187 7.70971 -1.23861 1.56055 -1.24805
467 1 3.48309 8.80826 3.92418 -1.21226 0.461916 -0.707647
468 1 8.84482 3.20239 0.299323 0.226664 0.230201 -0.384989
469 1 1.94093 6.1351 1.85087 -0.173484 -1.1367 -1.36493
470 1 1.22437 2.82823 7.29301 1.2037 -1.84749 0.319666
471 1 6.13157 1.99275 0.57001 -0.876823 -0.417767 0.713877
472 1 0.436641 2.20598 5.18782 -1.08836 0.620325 0.837064
473 1 1.83863 2.45987 4.68583 0.74293 -0.933423 -1.20568
474 1 1.41083 4.77426 4.28765 -0.692739 0.0245826 0.44232
475 1 8.23739 3.56261 2.00762 -0.479823 -0.178576 1.14917
476 1 0.927149 8.33188 0.558469 -1.12799 -0.340591 0.210879
477 1 6.38185 3.097 8.90466 0.850914 0.786111 0.45118
478 1 0.061723 2.69249 9.20817 1.11653 -0.749537 -0.861703
479 1 1.64292 8.98289 2.74797 0.181012 1.69128 -0.459448
480 1 8.71861 6.87281 2.16684 -0.408174 -0.11879 0.59817
481 1 4.87254 5.5581 6.67008 -0.880739 -1.49651 0.142353
482 1 0.704634 8.23688 5.45815 0.300153 0.511481 -0.421217
483 1 5.63263 4.29892 7.5014 0.127198 0.471812 -0.00860603
484 1 1.99275 4.9419 3.48935 -1.64257 -0.881819 0.546008
485 1 5.61733 3.7656 8.44961 -0.121615 0.105374 0.770736
486 1 4.70795 7.9301 8.28611 -1.14996 -0.0512359 -0.471361
487 1 5.76438 1.29892 4.61927 -0.597971 0.191152 -0.434808
488 1 8.62886 3.68588 4.57685 0.963389 -0.650076 -0.926809
489 1 7.40754 8.74543 2.03684 0.737269 -1.05145 -0.294094
490 1 9.34291 8.4311 0.327086 0.969018 -0.212003 1.79095
491 1 6.60336 3.50539 4.15029 -0.22852 1.37279 0.804159
492 1 3.08717 6.82646 9.40488 -1.27665 0.99684 0.563172
493 1 4.00581 3.48896 0.898015 0.347901 0.499474 0.0456145
494 1 7.36615 1.01534 7.8174 1.01719 -0.377315 0.309712
495 1 4.40378 1.69424 5.93506 0.0442891 -1.19565 -0.556555
496 1 5.85111 0.0311636 1.2678 0.250792 0.919945 -1.64686
497 1 1.9695 0.568826 4.40772 -0.496449 0.476093 0.528804
498 1 2.66109 4.36477 3.33348 0.321863 -0.721238 1.08789
499 1 5.63392 1.6936 2.38551 0.44164 0.410056 -0.923854
500 1 2.32216 9.20745 5.65489 1.09453 0.910218 1.1276
501 1 5.77142 8.90344 0.315861 0.0229013 -0.477013 0.959827
502 1 0.725015 0.379727 6.32288 1.15373 -0.615544 1.06166
503 1 4.91779 2.27188 6.36616 1.6358 0.20804 -0.00191335
504 1 3.29517 4.36592 6.02304 -0.187565 -0.610217 -1.51366
505 1 3.90222 1.86006 6.66668 -0.557738 -0.929178 -0.428092
506 1 8.24403 3.43014 2.99975 -0.659117 0.204915 -1.71868
507 1 7.40769 0.169796 4.03142 0.232108 -0.301315 0.0125024
508 1 8.78848 1.71074 7.07677 -0.0853425 -0.325521 1.36751
509 1 9.28474 3.21868 8.4274 -0.466472 1.26318 0.122953
510 1 2.17974 3.82606 1.58845 0.0308264 0.279822 -0.0381409
511 1 3.53679 2.27577 1.87044 -0.718132 -0.909768 0.560965
512 1 2.2104 4.56907 7.6033 -0.600175 -0.716236 0.57702
513 1 9.23647 6.79624 7.42162 -0.320674 -1.0403 -0.5315
514 1 6.36558 1.49818 5.4222 -0.0853649 0.592584 -1.0908
515 1 0.668695 3.10126 3.61606 1.3335 0.347554 -0.640721