ITEM: TIMESTEP
405100000
ITEM: NUMBER OF ATOMS
1000
ITEM: BOX BOUNDS pp pp pp
0.0000000000000000e+00 9.4000000000000004e+00
0.0000000000000000e+00 9.4000000000000004e+00
0.0000000000000000e+00 9.4000000000000004e+00
ITEM: ATOMS id type x y z vx vy vz
1 1 8.5141 7.22687 0.425921 0.278845 -0.193271 0.959113
2 1 1.6592 6.40652 4.0249 -1.03584 -0.637528 1.02384
3 1 5.893 5.66873 4.96435 0.0700004 0.101584 -0.363785
4 1 0.150604 3.66347 3.55428 -0.698354 1.6989 -0.241893
5 1 3.80902 3.80092 5.33707 0.777631 1.88579 0.915064
6 1 5.33234 8.53232 9.15092 0.216245 0.0237985 -0.899357
7 1 3.25433 0.587118 5.18444 -1.60321 -0.281044 -1.66129
8 1 7.67411 1.96802 2.6353 -0.00987247 -1.48689 0.805462
9 1 4.60093 2.20038 0.912098 -0.165435 0.799163 0.464525
10 1 5.05379 5.05254 3.81723 -1.88416 0.796511 -0.0787838
11 1 5.02228 7.74672 0.144927 -0.538919 1.2215 -0.452208
12 1 2.06936 3.93522 7.67005 0.992866 0.207859 0.81047
13 1 6.57989 1.69051 2.84429 1.19696 -0.291407 0.0462555
14 1 7.39278 5.79378 2.07932 0.948063 -1.49683 -1.52929
15 1 3.97456 3.58592 7.15098 -0.423378 0.104321 0.427945
16 1 4.45691 4.9969 8.78277 -0.930063 -0.330056 1.18887
17 1 2.30355 2.5019 7.13384 -0.72941 -0.0666991 0.304419
18 1 2.21767 8.9376 7.11549 0.86734 0.0429866 0.197766
19 1 6.63382 1.98812 7.36164 -1.53575 -0.600522 -1.58936
20 1 1.1671 1.64137 6.36327 -1.79591 -0.0758348 0.438493
21 1 6.20601 6.53369 7.71397 0.363189 -0.298001 -0.16585
22 1 4.74108 7.91527 4.93598 0.203184 -0.00149827 -1.02888
23 1 6.83823 5.54154 2.70338 1.7095 1.47472 0.496171
24 1 7.25503 6.6705 8.80695 0.471919 -1.70337 -0.17198
25 1 3.73662 5.54216 0.76815 -0.191751 -0.584858 -0.792204
26 1 1.20011 2.25223 0.718643 0.0377744 -0.14725 -0.49301
27 1 0.480124 8.94803 0.577791 0.838811 -0.0591551 -0.179534
28 1 1.86938 2.74811 0.308796 0.611757 -0.400435 -0.128232
29 1 2.70637 8.37531 5.76123 -0.704865 -0.155142 -2.50711
30 1 1.51742 0.412835 3.99454 1.02689 -0.134255 -1.41838
31 1 7.63019 0.0441025 0.704751 0.458888 0.368594 -0.784707
32 1 0.960862 5.00683 3.52982 -0.674863 0.809824 1.13479
33 1 2.59042 5.5649 5.3505 1.0004 -0.212381 -0.866181
34 1 8.63356 3.07378 3.80378 -0.893763 0.328098 -2.08425
35 1 1.76921 7.02967 3.27016 -0.0231182 1.76826 0.0974246
36 1 6.43545 8.6439 3.61848 -0.569402 0.605991 -0.36802
37 1 6.95222 7.20288 7.89032 -0.633412 1.34316 0.302659
38 1 7.18028 5.63209 8.58755 -0.213456 -1.48589 -0.564087
39 1 2.44521 6.41974 4.84394 -0.154199 -1.04493 -1.38775
40 1 2.00739 3.12496 2.9868 0.759411 -0.796028 -0.26359
41 1 0.612075 2.0829 4.60105 -0.282316 0.206993 -0.868431
42 1 1.9716 4.75408 0.100455 -0.577732 0.0810675 0.216144
43 1 0.80268 9.23238 2.95373 -0.665678 0.683366 0.350015
44 1 0.639321 1.02934 4.06776 -0.372754 0.0892087 0.169243
45 1 4.0835 7.49216 9.17182 -0.238728 0.796788 0.137169
46 1 4.38959 0.62623 3.34059 -1.06055 0.380817 -1.43935
47 1 1.37659 5.3116 4.41741 0.661596 -1.88757 0.72414
48 1 3.17087 5.4268 2.07697 -0.906574 0.0989016 -2.04332
49 1 3.03979 7.36131 3.01316 -1.28504 0.826291 0.698617
50 1 8.6866 3.60937 1.92986 1.43381 0.254173 0.394285
51 1 9.14114 7.6128 5.99547 1.2705 0.940097 -1.83699
52 1 5.41915 3.3685 1.30828 -0.51663 0.965504 -0.607455
53 1 7.22875 8.09854 1.62396 -0.580587 -1.58008 0.377005
54 1 2.66329 1.91964 1.37484 -1.03298 0.249746 1.5096
55 1 1.98944 5.12105 0.913708 -0.800199 1.04493 0.662912
56 1 5.62969 3.65116 3.05793 0.564873 0.308232 0.700376
57 1 6.76114 7.02561 5.38184 0.154106 0.526105 -0.130115
58 1 3.18078 2.0738 3.3569 -0.60336 -0.800704 -0.176659
59 1 1.7691 4.71418 3.65222 -1.13395 0.553115 -0.576169
60 1 8.82703 3.93961 7.47574 0.488042 -1.1566 -1.20982
61 1 2.25011 7.04036 4.15086 0.410314 -0.0112009 -0.553393
62 1 7.93776 2.86251 1.73003 1.49057 0.763199 1.33723
63 1 2.54564 0.117278 2.73395 -0.267867 -0.461945 -1.6227
64 1 6.13147 2.76655 1.78214 0.00855251 1.21456 -0.541087
65 1 8.80077 4.72349 8.94446 -0.394774 -0.861085 -0.0100611
66 1 2.81119 1.23588 5.67048 0.053464 -0.783954 0.924114
67 1 6.58746 3.97569 3.25566 0.17735 -0.314718 1.12798
68 1 1.18152 7.27887 7.59751 -0.23937 -0.106956 -0.566084
69 1 5.38746 5.29864 2.97193 1.64866 -0.909492 0.700724
70 1 9.36309 2.03268 5.3571 -0.438355 -0.488431 1.95767
71 1 3.1839 1.99115 2.07694 0.887972 0.336969 0.0375866
72 1 6.8938 2.56822 2.46512 0.0315098 -0.583269 0.871639
73 1 1.47373 4.29061 4.5846 0.0684686 1.21407 1.13532
74 1 7.62278 8.187 3.23499 0.263351 0.0813503 0.601434
75 1 7.3337 6.06698 0.218278 -0.095764 0.243908 1.12875
76 1 7.51911 1.09835 4.27836 -0.87425 1.05179 0.0417434
77 1 5.61869 0.769924 7.08065 1.14814 -0.276037 -1.30324
78 1 9.32372 4.56778 3.30515 -0.270473 -0.806272 0.161204
79 1 1.87124 7.47362 0.971602 1.11184 -0.0813341 1.85111
80 1 2.35251 7.78358 3.42083 -0.820051 -0.974454 0.187611
81 1 4.81948 2.19605 6.97727 0.849001 0.992373 1.71938
82 1 2.96947 3.10082 3.66155 0.807706 0.560413 -0.495273
83 1 3.92399 0.605989 8.57375 -0.304452 -0.440507 0.101222
84 1 6.104 9.01409 5.61451 0.554122 1.1903 0.348885
85 1 4.29754 6.18883 3.91119 0.150482 -0.459362 -0.746107
86 1 3.73165 6.60958 7.81635 1.4533 -0.186451 -0.658574
87 1 1.31185 5.63209 7.49185 -0.618576 -1.2218 -0.278013
88 1 4.57277 9.08005 2.83621 -0.332818 -0.272449 0.488279
89 1 4.18992 2.99238 0.583806 1.28595 -1.3451 0.625267
90 1 9.27696 7.95373 1.79201 0.340867 -0.318475 0.954181
91 1 5.30491 9.11854 8.27484 -0.442471 -0.32461 -0.822048
92 1 7.12161 6.12432 3.4138 1.44437 1.41341 0.751671
93 1 8.96943 0.404505 1.70142 -0.93843 -1.18137 -1.24064
94 1 8.95707 1.07575 8.02144 -0.57323 -0.0966033 -0.378791
95 1 0.604763 4.34427 4.08239 -0.641069 -0.113346 2.0015
96 1 8.37376 3.00957 2.60887 0.954269 0.0426378 0.251196
97 1 6.33589 1.88624 1.93263 0.566147 1.26941 -0.712103
98 1 5.08582 1.52306 4.36674 0.606867 0.30213 -0.213575
99 1 4.17757 4.36253 3.10573 -0.845661 0.420252 -1.34912
100 1 6.61677 0.0103806 9.06668 0.0873197 -0.824666 0.207579
101 1 1.68394 7.58415 2.44785 -0.431641 0.971123 -0.263774
102 1 2.77127 4.42979 0.814701 -0.311475 0.380525 -0.525258
103 1 2.28913 3.90946 8.54766 -0.635087 -0.096322 0.392789
104 1 1.57598 3.87356 5.45495 0.103955 -0.40695 -1.63623
105 1 3.31524 2.17223 0.329468 -1.33168 -0.111521 0.285809
106 1 8.40132 7.56697 2.24378 1.07885 -0.446443 -1.21181
107 1 6.91118 8.51904 8.98351 1.41756 0.421049 -0.603433
108 1 0.160307 4.88506 5.65986 0.383545 -2.1992 -0.30397
109 1 0.561594 3.96862 4.96007 -1.01904 -0.0876064 -0.931113
110 1 0.378214 7.49107 6.97014 -0.337993 0.918513 0.28881
111 1 1.15708 5.86574 6.41929 0.566441 1.27477 -0.346462
112 1 7.96012 8.66736 4.53715 0.449284 0.559587 0.633258
113 1 9.27031 6.35724 9.32124 0.130847 -0.182175 -1.42473
114 1 0.673395 8.50306 1.36452 0.492008 0.163779 1.50813
115 1 5.86825 2.26146 6.16574 -0.57581 -0.0266286 -0.0516606
116 1 3.60399 9.17907 7.47868 0.892524 0.813385 -0.949671
117 1 6.06658 0.350148 7.9899 -0.342772 -0.796806 -0.633144
118 1 1.44688 6.95991 1.71839 -0.283585 1.0966 0.982834
119 1 5.51408 4.32387 6.37218 0.303262 1.56659 0.643757
120 1 0.276817 5.16936 9.01326 -0.650681 0.0316114 0.720613
121 1 0.792918 3.6996 8.99447 0.314237 -1.08664 0.602521
122 1 4.48467 3.30661 5.71251 1.46033 -0.722667 0.402509
123 1 6.85401 4.57364 4.20347 -0.43442 0.227276 1.49297
124 1 6.31522 8.92287 1.95615 -0.42762 0.110765 0.267736
125 1 2.82915 5.25063 3.60956 -0.395133 -0.253093 0.194724
126 1 1.16772 6.64447 2.55418 -0.631602 1.52602 0.115386
127 1 6.42649 1.17828 6.52903 0.325756 -0.450268 -0.699974
128 1 4.14874 2.24817 9.24722 -0.549702 -1.16744 0.419215
129 1 5.43389 3.20187 2.19033 0.728146 1.57038 0.828551
130 1 5.78087 8.57475 2.80234 -0.760601 0.151832 -0.833738
131 1 4.21512 8.34349 7.40045 -0.750911 0.663986 -2.81975
132 1 4.05543 6.68117 2.09912 -1.72085 -1.50846 -0.271375
133 1 4.33868 5.72934 9.31059 0.406411 -1.09043 -0.409034
134 1 4.31956 8.13145 1.83712 0.468726 0.0591884 0.208826
135 1 8.26584 6.23664 0.500727 1.08719 0.505361 -0.247166
136 1 2.41262 5.56308 4.39162 -1.15646 0.230549 -0.546234
137 1 8.46016 4.98167 7.95053 0.601321 0.347238 0.36225
138 1 0.0916821 8.84866 9.19902 0.816362 0.448398 -0.822433
139 1 7.86367 1.39138 7.67298 -0.924522 1.29879 0.293093
140 1 0.645984 4.83072 4.81807 -0.337387 1.61911 -1.22957
141 1 2.27218 4.67938 2.85543 -1.046 -0.725021 -0.829137
142 1 2.57447 6.93326 8.39124 0.601962 0.109922 1.95199
143 1 3.16218 4.51088 1.9447 -0.510882 -1.41215 0.550788
144 1 1.81799 7.12823 4.87131 0.0266843 1.79606 -0.357542
145 1 8.02281 4.16823 4.96601 0.336519 1.27072 0.269447
146 1 6.82363 5.36186 1.61162 -0.804077 -0.454236 -0.466579
147 1 4.88063 7.04004 5.14979 -0.0118445 -0.501579 -0.127685
148 1 7.78865 3.38643 7.28212 -1.08158 -0.030277 0.425876
149 1 7.99495 4.75248 0.147581 -0.487482 0.650235 -0.450737
150 1 8.10815 1.77466 4.91318 -0.159747 0.793876 0.06259
151 1 6.8367 3.41244 5.12234 -0.640739 0.168339 -0.0590514
152 1 9.3309 6.76311 0.768936 0.870893 0.799515 0.649994
153 1 1.47595 4.19425 0.605936 -0.603439 -0.646364 -1.81748
154 1 7.76147 7.78806 7.75708 0.752704 -0.195951 -1.01188
155 1 8.68812 7.57732 3.35674 0.484166 -0.0878979 0.0937979
156 1 5.13295 2.90938 5.28889 0.108178 -0.652749 0.536274
157 1 1.42214 2.71402 4.05556 -0.361537 -1.57748 1.42872
158 1 8.46539 3.34433 5.01555 0.571963 -0.544426 0.849075
159 1 2.62563 2.20498 5.31401 -1.32804 -0.239969 -0.902864
160 1 1.55493 0.357292 1.44981 -1.11863 -0.300845 0.933687
161 1 5.64685 0.345225 8.91257 1.11003 -0.416303 1.33573
162 1 6.09207 7.2917 0.0599742 -0.105694 -0.840296 0.306891
163 1 1.80072 4.26377 6.38887 0.131038 0.580684 -0.369507
164 1 4.20769 1.72647 3.53891 0.56828 1.53211 -1.46499
165 1 9.03519 4.76153 4.24435 1.14019 -0.983952 -0.473209
166 1 8.60737 0.476822 2.78017 -0.477214 -0.302426 -0.490625
167 1 2.82733 1.07474 4.54625 -0.500983 -1.16986 -2.13284
168 1 4.01774 4.90842 1.73123 -0.59027 -0.264037 0.0640763
169 1 9.1074 0.390376 3.9794 0.880141 -0.0649395 -0.196857
170 1 7.20587 9.34565 6.27299 -0.932786 1.09899 -0.532214
171 1 8.22106 3.4484 1.03227 0.393154 0.658997 0.619674
172 1 7.78371 5.3906 2.72407 -1.0491 -0.55668 -0.595166
173 1 9.27295 5.4076 4.74492 -0.034114 0.59666 -0.544188
174 1 1.92793 4.70635 8.34629 0.357904 -0.509699 -0.894757
175 1 0.955674 2.93857 2.516 -0.070376 0.263343 0.0162287
176 1 6.59214 9.434 7.1377 0.897467 0.993402 -0.849611
177 1 1.34129 3.01205 8.61174 -1.60402 -1.77454 0.964516
178 1 1.30489 3.9433 3.64998 0.0635293 -2.28427 0.990483
179 1 7.37887 5.53124 0.956339 0.101641 -0.140714 -0.238154
180 1 6.35075 1.21399 3.8668 -0.252073 1.20595 0.446474
181 1 5.69026 1.67882 2.69813 -1.33098 0.292554 0.119685
182 1 5.71398 1.97401 9.19776 -0.250469 1.29693 -0.22937
183 1 7.206 1.43868 0.478945 0.030047 0.015294 0.794547
184 1 2.73716 8.7901 5.01992 -0.512078 0.523261 0.777501
185 1 5.55026 9.23571 4.74835 -1.20845 -0.87309 0.942154
186 1 5.08202 5.15211 5.2063 0.327383 0.186065 1.28467
187 1 1.11394 4.67727 1.42485 -0.525698 0.513145 -0.547981
188 1 9.25304 7.89728 7.93424 0.015494 -0.0784055 1.72368
189 1 8.87 5.36872 0.227523 0.415563 1.25057 -0.489544
190 1 8.5688 7.55351 8.36884 0.674722 0.147701 -0.228255
191 1 0.630812 4.07203 5.908 0.110811 1.20444 1.21308
192 1 0.47794 5.88005 7.95014 -0.171491 0.808791 -1.37462
193 1 2.3104 4.63028 1.64526 -0.0214695 1.28188 0.0948454
194 1 1.01591 0.876038 3.20655 -0.874166 -1.25204 0.875143
195 1 9.35068 1.39973 6.28467 -0.686953 -0.783159 0.195596
196 1 0.910977 0.888172 9.21487 1.4829 -0.196031 1.13588
197 1 6.07447 3.36718 9.12959 -0.403393 1.67866 -0.288577
198 1 6.36181 7.29048 7.11778 0.332618 1.13976 -0.0163924
199 1 0.0428733 5.043 2.51656 0.892499 0.492408 0.646076
200 1 0.959613 0.451264 0.650807 0.152672 -0.12603 0.02411
201 1 6.89344 1.83482 8.46687 0.224371 0.383363 0.364927
202 1 8.44367 5.59425 1.06898 0.101606 -0.914753 0.304319
203 1 0.115036 6.84314 5.59772 0.505418 0.103922 -0.260217
204 1 8.89881 9.01942 6.65793 0.315001 -1.78083 -0.149798
205 1 2.33405 5.571 7.99448 0.474624 1.06288 -0.169527
206 1 0.432272 8.82973 8.22612 -0.40009 0.821836 0.962358
207 1 3.16568 6.19254 0.605764 0.42227 0.76629 -0.233309
208 1 3.43377 7.32828 6.08046 -0.115005 -0.776277 0.518736
209 1 7.54992 8.48334 8.30589 -0.690609 -0.460092 -0.0115342
210 1 6.52187 0.938929 7.37567 -0.00541834 -0.570623 1.03491
211 1 7.98629 6.98739 8.11868 -0.166634 0.272401 0.659216
212 1 2.43297 6.12231 7.06578 -0.604721 -1.13497 -1.20428
213 1 3.08543 6.17385 8.28299 0.800182 0.00544641 0.124383
214 1 4.89615 7.6358 7.74389 0.809006 0.343543 1.12075
215 1 7.75396 2.27794 0.962557 -0.217342 0.3484 -1.03184
216 1 1.55483 1.2064 0.401364 1.13713 0.468974 -0.128872
217 1 8.01636 5.95893 8.21171 0.474691 0.127903 -0.0114888
218 1 2.14401 0.32536 8.36085 0.18937 -0.631214 0.140509
219 1 3.91272 7.95321 4.46598 0.620288 -0.428251 -0.653771
220 1 7.29915 9.28249 1.90578 0.874271 0.710617 1.42891
221 1 6.68483 1.19619 1.2265 -0.758764 -0.875142 -1.08614
222 1 0.703255 5.79099 5.59477 0.404191 -1.34948 0.318148
223 1 4.18346 6.36106 2.85879 -1.37844 1.01018 0.81626
224 1 1.74315 3.41887 6.91556 -1.1065 -0.239021 -0.854668
225 1 8.54177 4.97199 2.38997 0.945728 0.803574 -0.273778
226 1 8.06742 1.86702 0.15578 -1.11711 -0.68795 -0.508273
227 1 9.27074 6.11456 6.13161 -1.15685 -0.665213 -0.390475
228 1 2.5972 6.85293 0.822246 0.180719 -1.32083 -0.240726
229 1 7.11324 2.09415 4.27472 -0.424414 0.833526 -0.142632
230 1 3.48724 6.79122 3.57136 -0.247229 0.204967 0.200816
231 1 0.492139 5.2977 1.73279 -0.0187451 -0.0736591 -1.24446
232 1 7.14993 5.35975 4.39417 0.247913 -0.29179 -0.202461
233 1 2.58177 9.30039 6.45185 0.180442 -0.159171 0.151634
234 1 3.73317 4.77012 0.0602711 -1.00792 -0.051317 -0.229035
235 1 5.5857 6.54038 9.08436 -0.372368 0.91834 -1.98989
236 1 8.62811 2.0944 3.33411 0.510021 -0.342714 1.11212
237 1 5.34253 6.28964 2.73961 -0.27441 -1.17209 0.704518
238 1 8.41132 4.74434 3.46331 -0.40184 1.60175 0.108065
239 1 2.38607 7.91796 4.67652 -0.464617 0.0641816 0.271257
240 1 7.09186 2.42859 9.37921 0.0543986 0.0529589 -0.252849
241 1 8.64744 7.23836 4.27312 0.0632391 2.23296 -1.3557
242 1 4.69415 8.07558 8.62771 -1.11628 -0.315211 -0.878109
243 1 4.65641 0.766781 0.11022 -0.60623 -1.45305 -0.0772686
244 1 9.08423 2.28587 6.2192 0.05095 -0.170211 -0.868138
245 1 4.25908 5.33155 4.50212 0.0528186 0.640927 0.222063
246 1 7.74765 4.71544 5.7269 -0.325786 -1.1548 -1.85373
247 1 4.89703 1.21502 2.84433 -0.874594 -0.465097 -1.01346
248 1 7.09228 5.34689 5.30135 -0.289702 -0.625622 0.11344
249 1 9.22184 1.91729 4.06039 -1.18723 -0.516066 -0.80371
250 1 0.760502 3.3694 4.30767 0.313666 -1.58724 0.356705
251 1 3.65848 4.85847 2.63524 -0.829581 -0.0564687 0.184985
252 1 4.76156 0.949797 6.4558 0.826478 1.1974 0.506619
253 1 2.18719 8.51839 1.23091 -0.0170984 -0.264418 -0.733166
254 1 8.22357 5.67278 9.13834 -0.885496 -0.199974 0.9814
255 1 6.89277 2.50036 3.43625 0.074971 0.429596 0.726657
256 1 6.20327 5.87123 6.46697 -0.0829396 0.457483 0.0138479
257 1 5.84598 2.03709 8.24406 -0.411854 1.19292 -0.2869
258 1 5.84139 6.87347 3.29201 -0.3678 -0.41114 1.1739
259 1 3.18834 1.62003 6.45564 -0.647711 0.835223 -1.04041
260 1 1.45538 3.32508 0.934048 -0.20615 1.08684 -0.165085
261 1 3.86345 5.49772 6.75962 1.79894 -0.0452177 -0.36639
262 1 7.64787 5.33015 3.58072 0.79236 0.332049 1.14553
263 1 1.10252 3.82792 2.77437 0.0579675 0.886323 0.216347
264 1 6.25674 3.90986 5.8554 0.355369 -0.734825 -0.248963
265 1 6.40441 4.84235 8.52456 -1.01473 -0.0456301 -0.157422
266 1 0.161202 4.47562 1.369 0.699628 -0.713801 0.497854
267 1 0.917898 3.75099 1.74145 -0.287001 -0.487737 -0.17829
268 1 3.57984 3.10105 8.0448 1.00389 0.371078 1.14139
269 1 7.46227 8.40726 6.2858 -1.8838 -0.543945 -0.710051
270 1 1.81232 2.39138 8.16539 -0.994465 0.462733 -0.405903
271 1 5.49825 4.29666 8.58399 -0.634042 1.0863 -0.835124
272 1 0.594754 7.34332 3.03256 0.351452 -0.666205 -0.139461
273 1 5.77164 1.67784 7.08818 -1.27127 -0.416161 1.97305
274 1 8.50073 6.54854 4.94036 0.137756 0.952926 -1.13444
275 1 1.87737 8.20133 7.37954 -0.0577624 0.576103 -0.752509
276 1 0.561433 1.33976 5.25519 0.351765 0.0117736 1.24013
277 1 0.0778993 8.96199 3.63781 -1.30684 0.0574826 -0.542119
278 1 0.115643 4.54918 6.64797 0.539098 -0.0832298 0.253437
279 1 5.42942 6.48463 5.54885 0.431222 -0.175962 -0.419005
280 1 6.51084 3.1053 7.8443 -0.912072 -0.8617 0.645705
281 1 1.83029 1.20727 5.79279 0.444343 0.637474 0.75443
282 1 0.860805 6.91273 9.10915 0.100203 0.0245164 -1.35412
283 1 3.09642 6.59972 6.62199 -1.1699 -0.442947 0.166747
284 1 7.631 2.03499 5.95663 -0.358361 0.734757 0.453204
285 1 4.47031 0.137195 4.93279 0.955563 -0.155226 0.302134
286 1 0.589176 0.659222 5.91071 0.810288 0.262889 -0.800549
287 1 7.30357 8.95723 7.01678 -0.830378 0.592812 -1.00441
288 1 1.76447 5.86931 5.11709 -0.383204 -0.256226 0.0079379
289 1 5.1245 1.52697 7.67231 -0.216057 0.165218 -0.0858639
290 1 4.60369 -0.0214222 8.90955 -0.283046 -0.672401 -0.312791
291 1 7.88284 0.863881 0.507981 -0.318968 -0.326142 0.787912
292 1 4.3526 7.12793 8.33097 -0.481213 -1.05522 -0.0546352
293 1 1.72244 4.3785 2.16587 -0.412554 0.469323 0.673915
294 1 3.63594 1.5412 5.11601 1.15274 -0.458505 0.24428
295 1 8.99277 2.53443 8.57614 -0.470231 1.30859 -0.592254
296 1 4.05344 2.88109 4.98083 0.00480087 0.923425 -0.479947
297 1 0.509734 1.86363 2.62228 0.794021 -0.199685 -0.136213
298 1 0.436025 8.17292 5.06789 -0.233957 -0.420381 0.634001
299 1 8.68273 6.78718 5.88524 0.665765 1.04754 -1.33776
300 1 3.2529 4.0113 7.55578 0.306047 0.844001 0.029004
301 1 3.80445 2.51596 1.25916 -0.373997 -0.129236 -0.527966
302 1 0.933735 4.66038 8.91398 0.160821 0.349097 0.30271
303 1 6.48091 8.74911 6.51908 -1.35162 0.919966 0.13127
304 1 8.5315 2.48924 5.3421 -0.0310559 0.540045 1.1715
305 1 3.70969 0.808678 0.153925 0.960148 -0.33545 -0.7576
306 1 1.85103 1.01215 2.89021 -0.156952 0.641323 0.985565
307 1 8.94573 1.61163 0.0531466 0.614909 0.0440122 0.650478
308 1 6.18218 6.71978 6.17887 -1.30656 -2.72688 0.706061
309 1 0.665158 1.08432 1.2649 0.36533 -0.986099 -0.563109
310 1 1.65066 0.197547 9.10397 0.662594 1.41737 -0.0444356
311 1 3.52444 3.03984 9.21493 0.128492 0.521055 -0.117715
312 1 5.18618 4.47659 2.21157 -0.662871 -0.315065 0.901025
313 1 6.95589 7.72786 6.29889 -0.0655613 0.194254 0.639724
314 1 3.76157 0.286016 4.13895 0.404356 0.73101 -0.850709
315 1 6.47983 0.662173 5.5693 1.35958 -0.568096 0.390408
316 1 5.81625 1.00844 1.07385 0.945811 0.39837 -0.0126037
317 1 1.83319 3.44919 4.4854 0.506353 0.154461 0.280165
318 1 7.18753 4.14013 8.50941 -0.194816 0.0358885 -0.907225
319 1 7.46299 4.51849 0.996553 -1.97947 1.08238 -0.845213
320 1 8.5675 8.72343 3.57785 -1.21771 0.0926687 -0.567856
321 1 0.614026 7.5572 5.59835 0.931373 -0.492648 0.132539
322 1 8.66924 9.23893 4.47716 -0.710647 -0.0942441 0.242284
323 1 7.9875 6.06334 3.21814 0.753608 -0.657406 -0.247274
324 1 8.32294 2.87235 7.85215 0.77184 -0.225087 -0.316029
325 1 3.0375 6.84345 1.90331 -1.32269 -0.490475 -0.505764
326 1 7.41554 4.45801 3.48776 0.0320448 -0.147309 0.620264
327 1 6.43861 1.35813 9.33664 0.585551 -0.0615474 -1.2784
328 1 0.97581 0.32789 2.24661 0.760775 -0.369971 -0.0708714
329 1 2.49521 1.50767 7.32612 -0.871587 0.272671 0.469849
330 1 4.51584 6.05542 6.43476 -0.138162 -0.327415 0.338047
331 1 6.95773 5.63398 6.94195 -0.41883 -0.326118 -0.260194
332 1 3.76638 2.25048 8.28003 0.107962 -1.06805 0.925362
333 1 1.45476 2.35915 3.0911 -0.15151 0.0321749 0.860078
334 1 9.00935 3.85753 6.34285 -0.478161 -0.445501 -0.604769
335 1 1.96824 7.25012 9.00696 -0.358324 0.835849 -0.546497
336 1 2.36776 7.97402 0.500259 0.325429 1.004 -0.600584
337 1 7.91784 6.44921 7.30652 -0.59868 0.156057 -0.367219
338 1 0.54934 2.8925 1.70895 0.593464 -0.2281 1.54732
339 1 7.57984 6.98549 0.268573 -0.85941 -0.699609 -0.598642
340 1 5.52158 3.29913 6.34852 0.265785 -0.0255422 -0.0785459
341 1 3.45751 0.486755 2.89767 -0.238043 -1.90345 0.851481
342 1 6.40847 5.71226 7.66369 1.07939 -0.366291 0.617342
343 1 6.26277 1.98159 4.39881 -1.02246 -1.49655 0.767671
344 1 3.42886 7.39588 7.38024 0.301026 0.751803 -1.27873
345 1 5.14201 3.09761 7.25293 0.910483 1.17765 -0.569362
346 1 7.6584 6.28399 1.22955 -0.765197 0.481901 0.00130142
347 1 6.3429 0.323822 4.70815 -0.118204 -0.00857893 -0.559647
348 1 0.263835 0.506981 4.80305 1.1476 -0.896368 -0.0534956
349 1 2.56443 6.24901 3.96788 0.198033 -0.489539 0.374972
350 1 8.60876 3.59702 9.35176 0.427525 0.566748 -0.115368
351 1 4.0053 4.34221 8.29693 -0.128979 -0.661802 -1.78157
352 1 0.958108 4.10443 7.29703 0.0329626 -0.808263 0.0749237
353 1 0.920235 6.84975 0.825839 1.21157 1.25183 -0.0476915
354 1 6.96604 6.80725 4.0767 0.714786 -2.12105 -0.149089
355 1 4.66132 1.05235 5.50691 0.451564 -0.553716 -0.0739537
356 1 9.43062 9.00207 4.93051 0.990538 -1.43273 0.474571
357 1 5.4681 4.05781 5.46783 -0.084095 -0.0410834 0.0233887
358 1 1.70328 0.945546 6.7276 -0.0600695 0.912855 -0.844769
359 1 5.7007 8.38132 4.09992 0.613764 -0.846494 0.625769
360 1 3.51718 3.7127 2.62886 0.447688 -0.431614 0.373448
361 1 9.08128 1.29319 1.57765 -0.00244654 -1.45228 -0.137446
362 1 7.88352 2.60965 8.90518 -1.39782 0.265141 0.401891
363 1 2.95242 2.74545 2.68197 0.357943 0.799937 -0.0675371
364 1 2.98811 1.29479 2.88644 -1.52436 -0.827523 -0.0467527
365 1 6.19198 1.72617 0.664835 1.68554 -0.0121269 -1.24393
366 1 3.1647 8.38611 3.45359 0.252062 1.0854 0.0153948
367 1 9.27026 0.965666 5.59181 -0.885863 0.00426201 0.573923
368 1 0.181724 0.15001 6.53544 0.917257 1.39799 -0.265434
369 1 2.63972 5.54682 2.73079 0.494392 0.185019 -1.88105
370 1 7.63715 6.98629 4.6175 0.43179 0.241638 -1.11213
371 1 5.78322 0.0838062 3.07191 -0.00754524 -0.547031 -1.01996
372 1 7.13546 1.17797 2.42114 -0.37095 0.881857 0.0378709
373 1 8.94863 6.02569 7.65775 -0.634029 0.0567027 -0.213674
374 1 5.45283 2.9193 0.378503 0.43058 -0.386017 -0.817068
375 1 8.71335 3.07088 5.96016 0.822529 -0.996826 1.5226
376 1 5.01337 1.42958 1.01306 0.772411 0.126383 0.149595
377 1 1.20543 6.66125 5.60951 0.083343 0.247218 -0.274062
378 1 8.80842 7.03612 7.46505 0.480732 -1.24715 0.516568
379 1 6.19389 1.18092 8.35806 -0.0640981 -0.161879 -0.63302
380 1 5.45092 8.64463 6.4109 -0.0866709 -1.0626 -1.43592
381 1 2.8446 6.69588 7.53661 -1.07489 0.44398 0.15289
382 1 3.24028 6.73826 4.60329 0.0657774 0.54198 -0.502766
383 1 7.80111 3.05802 4.53239 1.44148 -0.866671 -2.10321
384 1 1.62027 6.62854 6.92171 -1.17295 2.30445 -0.709124
385 1 7.25645 6.35545 7.86351 -0.562879 0.257027 0.0406507
386 1 7.42115 0.757245 1.67859 1.13366 0.888413 0.357362
387 1 4.82541 4.85252 1.22537 -0.939372 -0.513134 -0.473902
388 1 7.18519 8.23782 4.46663 -0.243203 -0.134083 1.36219
389 1 1.9527 6.21333 2.93826 1.0351 0.857027 -0.0945962
390 1 5.84167 7.44168 5.39887 0.0622317 -0.0101197 0.487908
391 1 4.79877 7.05779 2.40758 -0.590101 0.193161 0.11428
392 1 5.86178 2.87608 4.78186 -1.00519 0.690922 -2.09337
393 1 3.54073 7.83031 2.34211 1.61023 0.106395 -0.351435
394 1 8.65657 5.70973 6.79709 -0.119831 -0.182363 0.721954
395 1 6.12246 8.4726 0.229312 -0.183892 0.624675 -0.026221
396 1 8.11405 0.51698 8.26653 0.225529 1.52867 1.11022
397 1 8.10005 9.34579 6.56162 1.41431 -1.1057 -0.350129
398 1 9.07199 8.28198 4.24931 -1.59051 -0.328248 -1.66856
399 1 0.0993413 8.07296 3.32167 -0.607148 -1.94326 -2.09424
400 1 9.0003 2.32455 2.53886 0.45552 0.222343 0.726017
401 1 3.55598 4.02102 3.75996 0.307235 0.691093 1.20155
402 1 6.05722 4.4944 3.80648 -0.803682 0.272044 1.23491
403 1 4.68453 2.64989 1.76849 -0.521917 0.474271 0.996992
404 1 2.12951 5.90607 0.456807 0.386202 -1.07722 -0.0265409
405 1 7.07377 3.29695 3.90758 -0.337119 -0.499868 -0.064106
406 1 9.14914 2.00482 0.807723 0.478107 -0.171088 -0.933949
407 1 4.94239 2.23458 2.56571 0.580546 0.624327 0.147948
408 1 3.21008 8.45659 7.63304 0.284278 0.607106 -0.0179978
409 1 4.99551 7.11921 6.0422 1.15533 -0.538355 0.444383
410 1 6.10777 5.91973 2.2355 -0.124943 -1.06646 0.0641678
411 1 4.27367 8.00664 0.944433 0.669873 -0.271443 0.562055
412 1 6.78579 8.08027 8.02108 0.67786 -1.19178 -0.613566
413 1 1.58999 0.796081 7.59785 0.0528954 -0.706294 0.881438
414 1 0.373064 1.42737 8.7019 0.881202 0.684008 -0.108987
415 1 7.35952 8.92958 3.75747 -1.09073 -0.343476 -0.766204
416 1 2.65086 3.56071 2.42945 -1.07487 0.11563 -0.54297
417 1 5.57296 6.65493 6.95639 -0.518755 0.324705 1.6112
418 1 2.41625 4.70303 4.385 1.25686 0.416943 1.0777
419 1 5.73408 6.97901 2.33956 -0.18196 0.25537 0.130499
420 1 7.33564 7.08774 1.50179 -0.0284839 -1.75999 -0.877529
421 1 6.82898 8.11821 0.793412 -0.473888 0.253117 -0.21923
422 1 6.31539 6.91685 8.62685 -0.38579 -0.374164 0.308945
423 1 6.41181 8.71091 4.79997 1.19922 1.30841 -0.351093
424 1 0.94207 2.69896 0.0302807 -0.22835 -0.767286 0.491737
425 1 5.97474 4.44942 2.5001 -0.0729396 -0.0806967 -1.12706
426 1 2.3984 7.19864 6.98548 1.45477 -0.32495 -0.00459854
427 1 6.56845 6.27518 1.19678 -1.77357 -1.18123 0.0475453
428 1 7.86876 3.69601 5.64618 0.873653 0.150516 -0.530208
429 1 0.548794 0.165162 1.40965 0.212849 0.329912 -0.405928
430 1 4.87254 3.5814 8.06388 0.0699198 -0.292532 0.404265
431 1 2.44325 1.65231 3.87623 -1.40567 0.286694 -0.259631
432 1 8.31374 8.43997 6.15005 -0.200056 0.35406 0.284713
433 1 1.77215 2.23829 5.74416 -0.00881239 -0.323588 1.49677
434 1 1.1423 3.79841 8.10655 -0.95246 0.568587 -0.063667
435 1 7.10714 4.09336 6.03437 1.63081 0.154858 0.207919
436 1 0.90994 8.37926 2.45595 0.138929 1.13998 0.776351
437 1 3.48244 2.1631 4.40133 -0.795189 -0.0253491 -1.5834
438 1 1.91193 9.06972 5.55831 1.20042 1.06401 1.11168
439 1 8.06542 0.207156 1.51437 -0.333678 -1.04084 0.795979
440 1 2.81231 5.97773 1.41687 0.871576 -0.429208 -0.245454
441 1 6.45015 0.648843 0.41064 0.544436 0.784689 -0.0935906
442 1 1.53876 5.47748 9.22313 -0.870089 0.149505 -0.0691719
443 1 2.99885 4.67809 5.15503 2.23928 0.843118 -1.10067
444 1 3.31248 8.75477 6.64324 0.417355 -0.401223 -0.689869
445 1 5.15732 6.83624 4.30809 0.462822 0.220288 0.298736
446 1 8.98764 5.50286 8.53454 1.12335 -0.873366 1.19279
447 1 4.77129 0.69486 8.2398 0.38172 0.997444 0.611477
448 1 9.23783 3.37278 8.18872 1.45726 1.37227 -0.326886
449 1 2.72165 2.72803 4.41986 -0.186867 -0.0608027 0.855804
450 1 0.665562 0.037344 4.13791 0.701947 -1.04724 0.530332
451 1 6.54916 5.04763 0.392961 0.609485 0.520753 0.437697
452 1 6.46629 2.81336 0.533844 -0.0608728 -0.570648 0.526173
453 1 7.52434 0.517029 6.96787 -0.0648269 0.934197 0.682611
454 1 3.12242 5.16146 8.33598 0.5943 0.433078 -0.43114
455 1 7.77746 3.30839 3.31188 2.11154 -0.321144 -0.592118
456 1 2.97325 6.49562 5.63131 -0.258765 -0.28625 -0.353381
457 1 0.685156 7.79619 8.23145 -0.142876 0.578116 -0.469049
458 1 3.93495 6.82036 6.84459 -0.407887 -0.921632 -0.127288
459 1 5.20092 8.60067 3.40341 0.177608 0.0829586 1.22622
460 1 1.88422 8.68226 8.26124 0.275733 -0.655003 -0.925537
461 1 7.0736 4.93045 6.35792 -1.17532 -0.163293 0.171679
462 1 1.01246 6.32566 4.61296 -0.228444 0.647793 -0.354094
463 1 2.68762 4.72158 7.77275 0.271389 -1.0248 0.749236
464 1 1.45613 8.00463 3.2547 -0.595066 0.71833 1.13569
465 1 4.27435 1.55352 7.13167 0.103413 -0.603996 -0.0943131
466 1 8.36138 8.80591 8.81971 0.128502 -0.583323 -0.0511356
467 1 3.5257 1.37225 3.88107 0.756781 0.349687 -0.230366
468 1 1.65234 6.70408 0.375647 -0.150742 0.429339 1.27131
469 1 3.6952 6.91209 1.13045 0.123386 -1.38071 0.0496823
470 1 1.94601 2.54357 1.27183 -0.246509 2.16054 0.115238
471 1 2.51965 0.280882 4.5235 -0.489965 -0.18943 0.56164
472 1 8.26761 1.1121 9.12528 -0.731866 0.314392 -1.12195
473 1 4.5935 6.7577 9.16464 0.502824 -0.422038 -0.436442
474 1 9.22045 7.53743 2.70306 -0.884108 -0.6884 -0.928689
475 1 2.31561 7.09367 1.67024 -0.325838 0.434651 0.241868
476 1 5.83143 5.46409 1.17666 -0.257098 0.233453 -0.165446
477 1 8.98495 3.20961 0.674327 -0.387039 -1.27962 0.550761
478 1 0.222201 8.48076 7.2347 -0.30274 0.189902 -0.0786909
479 1 2.99886 5.08796 1.22582 -0.401919 0.540321 0.516422
480 1 4.29194 1.01668 4.43769 -1.06893 1.76561 0.094785
481 1 7.05246 9.24742 5.17934 -0.236313 0.391856 -0.293944
482 1 3.93311 2.50538 2.39305 -0.0317127 1.21685 0.0445964
483 1 7.03382 0.415435 3.77459 0.755246 1.05179 -1.45995
484 1 7.54922 2.61327 5.15671 -1.07073 -1.24586 0.336833
485 1 8.01802 1.08877 2.22463 -1.60229 1.297 2.03525
486 1 6.30886 3.72978 4.28178 -1.37693 2.08668 -0.174111
487 1 6.02402 1.07581 2.08018 1.50082 0.900997 -0.121946
488 1 6.11028 6.70678 4.824 -0.937085 -2.52904 -1.17839
489 1 2.51601 7.32073 5.50324 -0.941739 -1.33533 -0.170907
490 1 0.437772 6.18253 7.04129 -0.522629 0.870802 -0.250798
491 1 8.94462 6.36252 8.46821 -0.203429 0.587812 0.286172
492 1 8.0562 5.58204 4.93169 0.661672 1.0075 0.195193
493 1 7.87195 5.30056 6.51529 0.125181 -1.27132 -0.990402
494 1 7.24296 1.39872 3.35881 -0.562739 -0.675845 0.85071
495 1 2.91314 2.88982 1.73716 0.119258 -0.67298 -0.350725
496 1 1.74382 9.24726 4.69776 1.14288 0.824435 -1.24875
497 1 7.64922 4.86404 1.89794 -0.469845 -0.462363 0.330828
498 1 3.61826 5.63885 3.20697 0.999588 2.1436 -1.81342
499 1 2.82338 4.57885 9.08886 -0.443506 -0.00525479 -0.313726
500 1 4.74603 5.98796 1.97155 -1.18876 -0.604514 0.280335
501 1 3.2426 8.43813 0.227797 1.3031 -0.740806 0.0146265
502 1 3.7199 6.7591 0.160276 -1.00204 -1.66991 -0.591087
503 1 7.04705 8.64203 2.50778 0.00562918 1.42456 0.0233467
504 1 8.65726 8.73199 5.32899 -0.71269 0.799398 0.599512
505 1 8.32341 5.78832 1.99114 0.59672 -0.782164 -0.48562
506 1 6.97355 7.466 2.27939 -0.447702 -0.319365 0.646284
507 1 5.58525 6.38043 1.63441 -1.40956 0.317934 0.215179
508 1 6.39914 2.76895 6.68835 -0.389664 0.449578 -0.554759
509 1 8.67945 8.51366 1.76761 0.468834 0.0423504 1.14044
510 1 8.37913 1.84509 8.48718 0.0155519 0.317847 0.456361
511 1 5.07522 0.447061 0.94467 -0.0241952 -1.69745 0.69501
512 1 0.00221966 3.57802 1.42128 -0.953551 0.113339 -0.669081
513 1 8.93961 6.57459 3.52782 -0.960544 -0.371613 -1.45136
514 1 1.78951 7.68822 8.19705 1.49377 -0.809496 1.7279
515 1 3.8228 7.07336 5.25539 -1.80797 1.66398 0.292269