ITEM: TIMESTEP
144150000
ITEM: NUMBER OF ATOMS
1000
ITEM: BOX BOUNDS pp pp pp
0.0000000000000000e+00 9.4000000000000004e+00
0.0000000000000000e+00 9.4000000000000004e+00
0.0000000000000000e+00 9.4000000000000004e+00
ITEM: ATOMS id type x y z vx vy vz
1 1 3.39939 5.70002 0.783982 -0.102718 -0.405018 -1.57855
2 1 6.39037 5.53527 7.65972 -0.0836839 0.689501 -0.410807
3 1 8.94498 1.61142 7.81657 -0.311788 -0.711668 -0.770611
4 1 0.545451 6.02354 1.58298 0.909469 -1.39156 1.07231
5 1 2.41372 9.13517 5.13031 -0.0301677 0.169443 -0.905905
6 1 2.30657 1.79319 4.7858 -0.262012 -0.694707 0.094727
7 1 7.58307 1.80686 8.46275 -0.170987 -0.402317 -0.495215
8 1 7.85617 3.9154 4.05937 0.152477 0.173447 -0.399807
9 1 3.29886 8.99998 1.55296 0.534936 0.696444 1.39159
10 1 8.79082 6.4485 2.38334 1.69109 -0.326353 0.195982
11 1 3.71014 3.13173 5.38775 1.27937 0.080015 -0.484491
12 1 6.45076 4.07323 4.2782 -0.29434 0.359693 -0.497007
13 1 0.493913 5.91622 3.66796 -1.56191 -0.564521 1.07715
14 1 2.17683 2.08606 7.1947 0.0466452 0.112639 -1.19888
15 1 2.82215 1.83361 2.02149 0.279155 -0.682109 0.170404
16 1 5.58874 7.2051 5.29074 0.521739 0.78876 -1.02433
17 1 4.32719 7.09412 4.71388 0.627603 0.751923 0.065466
18 1 5.07113 8.26293 3.69862 0.288715 -1.98461 -0.172691
19 1 6.73691 7.97358 5.1704 1.37355 0.780245 -0.0750973
20 1 6.41326 5.90383 0.0351651 -0.998837 0.472801 -0.314458
21 1 8.95424 8.07523 0.336922 0.370154 -0.687827 0.77042
22 1 5.50385 4.17192 1.36454 -0.698701 -0.0575286 0.479748
23 1 2.45542 9.31977 8.17724 -0.266146 -0.840539 0.0897534
24 1 6.36275 2.36768 8.09179 0.509382 -0.65904 0.0685112
25 1 6.69496 8.05584 4.31992 -0.237114 -0.38856 -0.0168361
26 1 1.0969 6.6947 5.61494 -0.441796 -0.377957 0.107781
27 1 7.89004 0.580788 2.48042 -0.784901 0.0705396 0.838699
28 1 4.59994 6.25493 0.921165 0.779314 -0.0622513 -0.353547
29 1 0.620037 1.6006 5.90433 -0.518913 0.229633 0.623778
30 1 3.03621 0.842915 2.33517 -0.171569 0.797794 -0.745152
31 1 0.183052 6.71932 8.50632 1.39229 0.52982 0.938158
32 1 9.22605 7.8489 4.60561 -0.817735 -0.294271 -1.41418
33 1 9.08408 1.95836 1.91207 -0.10058 -0.412571 0.144307
34 1 3.42223 4.15785 0.755133 -0.802497 -0.705695 0.682084
35 1 7.17789 0.413755 0.0818842 -0.911719 0.413093 -0.544743
36 1 4.08262 0.657537 7.3251 0.700387 0.650938 0.43506
37 1 6.30612 3.24288 7.37441 -0.00121904 -0.122529 0.178392
38 1 3.94848 0.337783 0.197065 1.45669 0.907325 -0.453976
39 1 4.34543 5.41843 5.27921 1.00242 0.78243 0.930385
40 1 7.48402 6.2521 5.48676 -0.596077 0.531481 -1.01585
41 1 5.22923 6.98436 1.65605 -1.28185 -0.762578 0.509417
42 1 4.5511 4.0961 5.4915 0.0668057 -0.660164 1.0049
43 1 1.86694 3.94586 1.25142 1.14996 0.12054 -0.0494813
44 1 4.68888 0.652778 5.22899 0.48474 1.02113 -0.136031
45 1 5.13017 0.495044 4.26955 0.420944 0.619553 0.554387
46 1 7.16315 2.04896 7.68567 -1.51902 -0.525929 0.599974
47 1 2.12036 2.96068 1.17092 0.257158 -0.183629 0.938124
48 1 4.06443 4.6887 8.63534 0.890478 -0.319864 0.211978
49 1 0.402595 1.84591 0.367676 0.248705 -0.858433 0.0519637
50 1 2.12152 2.721 6.38429 0.821011 1.61961 -0.618314
51 1 8.05919 4.81982 8.74622 0.519849 -0.0348375 -1.0228
52 1 9.06662 8.39274 6.56025 -0.0681459 0.832063 -0.50188
53 1 1.08979 3.14283 6.68357 -0.157753 -0.773111 -0.345445
54 1 0.177689 7.81702 0.908075 -2.26106 0.196682 -0.589336
55 1 3.61855 6.58825 4.95524 0.915002 -0.12106 -0.948471
56 1 4.16849 0.338424 4.60162 0.310743 0.165197 -0.0288769
57 1 8.71516 5.491 8.43441 1.14058 -0.22186 -0.500012
58 1 4.89731 5.47967 6.57162 -0.135719 1.06726 -0.822198
59 1 8.24196 0.731286 6.99904 -1.27819 -1.03792 0.375881
60 1 5.54995 4.91328 3.31585 -0.0293274 -0.571698 0.53078
61 1 3.3186 7.16014 3.5278 -1.39137 0.43785 -0.317972
62 1 0.883524 5.75446 8.88756 -0.117416 -1.33941 0.448349
63 1 7.24178 5.52381 2.02431 -0.106778 0.142403 0.315403
64 1 0.843039 6.19905 2.72029 0.557561 -0.925132 1.21811
65 1 2.20503 7.98328 6.40654 -0.165862 -0.268169 -0.221327
66 1 0.935875 9.20995 3.54459 0.0693127 -0.701626 -0.201543
67 1 7.2094 0.753793 1.51841 -1.15758 -0.750363 0.864614
68 1 3.16424 7.50446 4.31617 -0.341284 -0.583971 -0.265475
69 1 7.15792 5.10158 6.09651 -0.0835874 -1.46738 0.84614
70 1 7.1743 3.29688 7.64645 0.609952 0.20356 -1.40726
71 1 0.712715 7.82485 6.73534 0.155502 -0.486415 1.31225
72 1 5.13457 2.78114 4.12634 1.09973 -0.814457 -0.611307
73 1 2.79729 7.16664 0.646441 0.535787 1.00382 -0.265273
74 1 3.55293 2.35959 0.733948 -0.580065 -0.370299 -0.407685
75 1 5.69765 6.5494 3.62212 -0.0424351 0.219051 -0.0796768
76 1 1.38556 5.37062 3.78876 -2.58221 0.885669 -1.60113
77 1 0.303191 2.42518 5.14535 -0.273062 0.520282 0.695468
78 1 0.427863 4.72771 8.74105 0.718797 -1.40676 -0.783991
79 1 6.88379 8.52741 8.48776 0.301424 -0.880506 -0.29887
80 1 7.82678 6.92682 8.77797 -0.611245 0.520936 -0.132186
81 1 5.02763 2.68503 0.0948605 -1.15501 0.840611 0.529272
82 1 2.67364 2.89398 7.11171 0.404201 0.870011 -1.36285
83 1 6.43054 8.85345 2.97294 -0.187069 -0.50621 -0.260262
84 1 5.05471 3.11763 6.67069 -0.716787 -2.1539 -0.204463
85 1 1.64191 7.53212 5.21096 0.724951 -0.35203 -1.49602
86 1 0.340046 8.50736 7.1194 0.197033 0.254932 1.04295
87 1 2.55386 1.27808 6.31328 1.6173 0.881561 2.47706
88 1 7.71159 1.17915 4.08865 -0.16144 0.495521 1.14191
89 1 4.21351 7.50267 6.73324 0.17002 -0.245066 -0.168037
90 1 4.00046 3.52115 0.563082 -1.47722 1.03348 0.497786
91 1 8.52791 9.3184 6.35715 -0.366565 -1.31887 -1.99808
92 1 4.91323 4.91049 5.66065 -0.293674 0.964767 1.20638
93 1 4.71573 7.63098 5.54205 0.59662 0.767954 0.337059
94 1 1.982 7.37823 2.08159 -0.105793 -0.936117 1.92693
95 1 1.73319 5.20189 5.9219 0.322365 -0.861613 0.296706
96 1 7.26945 1.7185 5.79056 -0.452205 -0.175881 1.67565
97 1 7.30487 1.37325 4.76956 -0.529027 0.254534 0.223227
98 1 6.01982 7.40714 4.50142 -0.626071 0.646664 -0.00940457
99 1 4.57772 7.56206 9.23043 -1.46011 -1.20608 -0.632482
100 1 3.29783 8.29761 7.86695 0.101104 -0.51052 0.57859
101 1 3.62438 2.06543 9.25971 -0.416292 -1.88259 -0.0959996
102 1 5.71021 1.39304 1.18195 -1.14068 -0.24913 -0.877777
103 1 2.50109 6.67276 2.16968 0.05205 0.415798 -0.0895019
104 1 4.94337 8.69621 5.59751 0.912494 0.493452 -0.133502
105 1 6.33525 4.48715 0.44764 -0.736019 -0.671144 -0.810982
106 1 2.61832 4.82768 0.896605 0.277021 0.926383 -0.716672
107 1 9.06927 0.542475 0.617326 -0.0260314 -0.79298 0.446786
108 1 6.22995 5.84576 3.38505 -0.498461 0.643613 -0.616888
109 1 6.62563 8.06019 7.76237 1.76492 0.366972 0.209949
110 1 3.30553 0.556431 4.22756 -0.663893 0.332593 0.468031
111 1 7.61955 5.7501 8.27709 0.316839 0.283943 -1.86125
112 1 2.9577 0.503254 3.22378 0.634101 -0.350893 -0.143366
113 1 4.8305 8.32286 0.369179 0.200414 0.472968 -0.325768
114 1 5.86796 6.11025 4.74182 1.60715 1.39889 0.574134
115 1 2.62268 5.92587 8.49731 0.386886 1.52929 -0.669761
116 1 8.68265 2.50988 8.18213 -1.3376 0.752449 -0.68159
117 1 5.75238 4.24203 5.48068 -0.272498 1.20986 -1.39683
118 1 7.38065 1.25027 6.65379 0.108339 0.202686 -0.0317587
119 1 0.37662 7.20338 6.13778 -0.152775 0.71407 0.521266
120 1 2.6194 5.61666 0.029968 1.57964 -0.982743 0.0247931
121 1 5.21939 4.78479 8.71615 -0.122347 -0.543848 -0.200399
122 1 6.21843 5.47258 0.85311 -0.814551 0.438201 -1.37851
123 1 1.07571 0.270343 2.13365 -0.678315 1.1296 0.370824
124 1 0.63964 0.789505 0.461818 0.0343362 -0.522836 -0.37
125 1 8.19918 8.2061 1.87914 -0.369685 1.09334 -0.505461
126 1 5.4421 4.10559 0.373907 -0.187925 -0.474106 -0.360126
127 1 8.22958 2.35719 6.25662 -0.0685092 0.852563 -0.161147
128 1 1.1531 7.96515 2.02118 0.316207 0.414333 1.57455
129 1 6.87332 6.0949 8.07652 -0.0247804 -0.505697 -0.656408
130 1 8.42275 1.4666 8.55119 -0.0759791 -0.196289 0.941159
131 1 1.70515 6.78608 3.80686 -0.50531 1.001 -0.126071
132 1 8.73218 3.04097 7.22119 1.28563 -1.24232 0.733625
133 1 3.18499 3.11872 8.55719 0.150491 -0.68477 0.943609
134 1 6.99279 0.945737 8.5845 -0.0850263 0.451966 -0.0492203
135 1 1.26468 2.57326 3.61174 0.908696 1.07307 0.719618
136 1 9.25392 3.72357 4.64109 0.527407 -0.293196 -0.291655
137 1 7.25061 7.44509 3.76004 -0.665744 1.02175 -0.043106
138 1 2.16824 3.13985 2.02871 -0.101217 -2.07189 0.530482
139 1 0.00885553 0.569412 5.8908 -0.184895 0.61241 -0.0106065
140 1 5.09927 0.963724 1.87314 -0.120843 -1.26462 -0.796389
141 1 6.00433 0.315677 7.22749 -0.572766 -0.0648311 0.735122
142 1 1.76658 1.70979 6.37903 -0.285946 -0.299848 -0.388094
143 1 9.07209 3.87757 1.67789 0.934477 0.194024 1.10706
144 1 2.47776 8.14272 5.57175 0.405277 -0.266481 -0.450429
145 1 8.84544 4.22927 2.66743 0.448202 1.86671 0.693959
146 1 8.0276 6.87414 4.97056 -0.281275 0.605625 -0.406607
147 1 8.52809 8.11061 7.49526 -0.438641 -0.599597 -1.53508
148 1 0.715199 4.08558 8.24683 -0.496626 -0.714044 0.892046
149 1 2.76452 2.83493 3.57484 -1.11941 -0.85421 -1.23982
150 1 1.88745 6.98584 5.87047 1.51666 -0.259114 0.626209
151 1 1.60952 3.83428 6.97665 -0.10209 -1.73759 0.463309
152 1 9.28295 0.577283 8.40943 1.28155 1.62007 0.35574
153 1 4.14573 7.54453 4.04229 0.217177 0.178094 -0.293667
154 1 6.16605 3.70444 6.17597 -0.0483085 -0.165389 -0.809309
155 1 0.897875 2.41874 7.34219 0.685544 -1.54219 -0.39171
156 1 2.06852 6.90624 1.25388 0.694597 -0.377496 0.36813
157 1 0.81461 6.99902 7.50539 -0.207479 -1.41268 -1.19614
158 1 4.9202 0.124996 3.41461 -0.917484 -1.31257 -0.983446
159 1 1.86503 4.51261 2.09735 1.38847 1.11424 -0.104042
160 1 5.44364 4.48355 7.74952 -0.0526135 0.180599 1.61307
161 1 6.57724 1.845 4.06334 1.16123 0.491177 0.820081
162 1 9.17563 0.516008 6.74122 -0.171446 0.218249 -0.601034
163 1 6.13769 1.53727 8.92048 -0.553023 -0.912728 0.836051
164 1 6.62875 2.49685 7.10654 0.465201 -0.023543 -0.620993
165 1 2.16534 2.76634 4.25761 -0.562008 -1.46941 -0.128632
166 1 9.39761 6.56354 3.15635 0.198936 1.12063 -0.574296
167 1 4.30945 7.99556 7.70725 -0.829736 1.59501 1.12983
168 1 2.46101 0.546482 4.58777 -0.00558704 0.330652 0.194515
169 1 8.6303 4.90275 2.00304 0.511774 -0.33451 -0.686061
170 1 8.51386 1.9258 2.75688 -1.03654 0.294117 -0.398727
171 1 4.17443 2.23289 8.45989 -0.535444 -0.372605 -0.703295
172 1 2.58389 6.03259 0.775085 -0.685375 -0.736022 -0.126716
173 1 8.91339 7.35936 8.02713 -0.571279 1.26645 -0.176553
174 1 5.84174 0.793165 5.98464 0.652108 -1.10536 -0.858069
175 1 9.04568 6.89131 1.1351 0.0662601 0.863615 0.232213
176 1 6.89868 7.84681 1.83163 1.20953 0.493162 0.460711
177 1 2.85835 0.494028 5.8277 -0.239745 0.7085 2.11539
178 1 5.31368 4.41707 2.47949 0.00471622 -0.595293 -1.02643
179 1 6.37497 3.39361 3.08195 0.932023 1.1956 -0.893998
180 1 7.67097 1.20159 9.15291 -0.316469 -0.129186 -1.41338
181 1 8.29032 3.78871 0.762163 -0.63709 -0.347439 0.622055
182 1 8.07789 7.50341 3.23157 -0.0992917 0.0112604 0.863362
183 1 5.01625 6.62558 4.26766 -0.183947 0.820045 0.578979
184 1 1.03495 0.570119 5.65592 0.331969 -0.869498 -2.26472
185 1 0.180475 8.16877 1.82656 -0.220874 0.421763 0.230037
186 1 5.00152 3.42266 2.03334 -0.209649 0.352907 -0.111259
187 1 4.02511 1.42289 4.68337 0.187905 1.11667 1.29613
188 1 4.48959 5.07204 2.09765 -0.513797 -2.07245 0.393509
189 1 0.0681565 6.47772 7.62874 0.167962 1.37697 0.422451
190 1 4.56826 2.60679 3.31838 0.465243 0.759392 0.270055
191 1 4.1948 8.53026 6.72995 -0.921132 0.012293 0.73485
192 1 0.423 6.62159 4.91587 0.631057 2.19456 -0.470296
193 1 0.00707389 9.10968 4.12499 0.478289 -0.239327 -1.13157
194 1 1.91611 2.30255 2.00377 -1.58942 -0.0612817 -0.731619
195 1 3.32904 2.5979 7.82945 0.904316 0.313549 -0.967762
196 1 7.58241 9.29233 6.50933 0.0456364 -0.273562 0.82198
197 1 1.99331 1.24952 5.50541 0.603222 -0.926439 0.989254
198 1 8.98341 9.03298 7.25806 0.257548 -0.745667 0.331172
199 1 1.61464 2.83998 2.78649 -1.13684 0.0574752 1.84492
200 1 1.46605 1.4934 7.48062 0.807015 -0.50417 0.777569
201 1 2.43229 4.09816 7.38071 -0.964266 -0.54075 0.439977
202 1 6.48801 1.32236 1.73676 0.81707 -0.0703491 -0.603071
203 1 3.58183 3.95286 3.80286 1.26909 -1.22131 0.470507
204 1 7.01619 0.976416 2.41037 -1.81244 -0.834667 -0.0887862
205 1 4.57101 6.54745 7.02125 -0.343087 -0.515846 -0.559938
206 1 2.04768 5.86692 4.34835 0.956068 -0.390886 0.0768781
207 1 8.26685 2.15481 1.34735 -1.20047 1.31752 0.99718
208 1 4.73029 8.62512 1.25392 0.879093 -0.0748067 1.06346
209 1 3.32237 6.1424 7.94272 -0.0345292 -0.339064 -0.3373
210 1 0.674506 2.13591 4.34209 0.295533 0.564868 0.835385
211 1 5.8662 4.28168 8.74489 -0.994602 0.304935 0.747216
212 1 1.73231 5.92535 8.61831 0.349649 -0.0470145 -0.0231535
213 1 4.02667 5.77456 1.54081 -0.154544 -0.441384 -0.0498583
214 1 2.37187 7.72592 3.76877 -0.395653 0.314519 0.153476
215 1 5.49993 2.26362 5.01729 0.237606 -0.124865 0.946155
216 1 4.46148 4.3644 0.475354 -0.317637 0.0388509 -0.300543
217 1 8.81742 5.17928 4.9694 0.261989 -0.890771 0.0551695
218 1 0.740811 0.320368 4.20951 -0.772746 1.14512 0.232504
219 1 1.66744 1.29677 3.49338 0.537979 -0.316873 -0.644377
220 1 6.70535 6.5449 6.31326 0.0580435 -1.56459 0.531651
221 1 4.9079 6.09464 1.94701 -0.432891 -0.530571 -0.615143
222 1 4.83611 1.7518 7.67964 -0.282614 1.11125 -0.690576
223 1 3.72958 5.64659 4.4192 0.490354 -0.577285 1.16217
224 1 6.22273 4.06764 7.74987 0.530822 -0.461827 0.477747
225 1 1.3396 3.5466 2.35126 -0.896222 -0.269469 0.211625
226 1 2.78218 1.49788 0.418508 0.482987 0.851357 -0.705957
227 1 1.81912 0.72818 8.39298 -0.0292269 0.244702 -0.579337
228 1 6.61972 7.2763 6.96993 0.466285 0.12835 -0.050392
229 1 5.05568 7.21996 6.29748 -1.5458 1.23803 -0.861234
230 1 6.43979 3.87592 1.33787 -0.123817 0.446699 0.0736245
231 1 2.76407 6.65444 5.83096 -0.232176 -1.44458 0.292174
232 1 1.89152 2.75205 5.49495 -0.663166 0.0097862 -2.00295
233 1 2.07612 5.67243 6.72317 -0.973562 0.101446 -0.394715
234 1 5.25786 8.98003 2.0042 -0.125773 0.822821 0.0276238
235 1 1.11464 6.4404 0.944573 0.61356 -0.957461 0.126755
236 1 6.89362 2.99692 1.01872 0.321948 0.687437 0.695763
237 1 5.20864 2.14183 0.913146 -1.09092 1.46031 0.674513
238 1 9.13918 0.721135 3.9895 -0.555872 0.163714 1.91618
239 1 7.43466 3.71557 1.34521 0.76023 0.0306198 -0.769854
240 1 2.50738 7.95243 2.76829 -0.343813 -0.315135 -0.334543
241 1 0.890365 3.83272 4.65168 -0.0671087 0.205257 0.583379
242 1 8.50266 9.21097 0.765006 -0.0976995 -0.11146 0.374045
243 1 0.0825034 5.80839 5.14659 -0.385022 0.698692 2.67782
244 1 6.2964 3.5375 0.585743 -0.141607 0.694501 0.0537429
245 1 0.494325 3.41208 3.91279 0.207214 0.780709 -1.65568
246 1 1.5745 4.88764 0.690379 0.867889 0.0622189 0.83937
247 1 1.79865 0.744946 6.31184 0.333744 -0.010304 -0.692569
248 1 2.52649 3.7924 9.14402 -0.766574 -0.775332 1.79241
249 1 4.43746 1.17719 6.52047 0.151361 0.272814 -0.74254
250 1 2.71284 5.04908 7.92458 -0.59605 0.061141 -0.063781
251 1 1.76532 8.9427 7.56502 0.536716 1.18382 -0.0407246
252 1 8.76477 8.47743 1.18752 -0.869912 -0.156682 -0.115022
253 1 0.639351 5.95197 5.86033 -0.321833 -0.304249 0.588878
254 1 1.48503 6.16473 6.26104 1.24951 0.740655 0.000412396
255 1 1.58821 7.6719 3.19474 -0.739856 -2.20224 -0.613844
256 1 9.38994 4.07133 6.17204 -0.598959 0.724761 0.192455
257 1 0.108792 5.22829 1.65576 0.202522 0.657083 -1.19034
258 1 4.38526 4.33127 3.27117 -0.284468 0.702495 0.250191
259 1 6.11393 1.00663 2.5189 0.00943165 0.314484 -0.2793
260 1 7.05056 1.24525 0.65498 0.0263609 0.276511 0.339841
261 1 3.69068 9.23987 3.89038 -0.0361684 -0.918774 -0.719183
262 1 5.32737 8.72738 7.86979 -0.591336 -0.0358306 1.13232
263 1 0.0911043 3.83638 3.32935 0.149372 -1.22888 -0.159457
264 1 3.51694 8.37352 4.47135 0.29194 0.782599 0.194203
265 1 4.97739 7.52463 4.23454 0.226397 -1.28626 -1.90053
266 1 7.41812 5.45624 5.08097 -1.14331 0.448996 0.208188
267 1 4.00723 8.87048 8.09704 -0.332476 0.467075 -0.929845
268 1 1.10501 4.77102 4.51657 -1.40226 -0.159763 -0.957006
269 1 7.92393 5.4268 1.31672 0.724914 0.230222 -0.249972
270 1 1.76889 5.80172 0.801795 0.0934307 1.0927 -0.93414
271 1 5.44488 2.16728 7.03624 -0.0618857 -0.829058 -0.340072
272 1 6.33056 1.74361 0.596463 0.923349 -0.432327 1.04623
273 1 3.84148 3.25954 2.15308 -0.311875 0.266357 0.530144
274 1 4.54712 8.28293 4.81639 -0.207742 -0.773097 -0.523082
275 1 0.0442669 7.31118 7.21856 0.787044 -1.1523 0.286446
276 1 2.83751 4.77323 1.89122 -0.99203 1.31872 -0.187544
277 1 7.57073 7.32645 2.07093 0.723174 0.575839 -0.0270459
278 1 5.09558 7.85298 8.54383 1.60513 -0.394646 -0.729575
279 1 9.32647 5.5977 2.45086 0.318865 0.163362 2.16883
280 1 8.75562 3.49203 3.93787 -0.869969 0.765159 -0.501651
281 1 4.77018 6.03461 8.76272 -0.260467 -0.540033 0.0570192
282 1 3.95646 6.55418 4.0748 -0.632722 1.30027 -1.05702
283 1 0.979289 6.77517 6.63013 1.22022 0.571232 -0.936866
284 1 0.486715 4.29203 6.99943 0.390163 0.11285 -0.983502
285 1 1.92013 8.9725 6.69879 -1.03087 -0.0860959 -0.0634888
286 1 3.84966 7.7184 3.06824 0.856154 0.0614722 1.14244
287 1 7.88604 1.35812 3.21873 -0.0268106 0.231284 0.0876709
288 1 1.84409 3.51248 4.97103 0.561034 -1.00955 0.00439117
289 1 7.95967 1.43704 1.82725 -0.253732 0.945737 -0.319997
290 1 8.51309 5.03224 2.97635 -0.00680444 0.933583 -0.397841
291 1 1.69404 0.337139 3.15484 0.0914391 0.263409 -0.336251
292 1 6.14526 8.96788 8.54627 0.0206794 0.025027 0.600821
293 1 8.72666 9.09259 3.00081 0.327606 0.0125028 -0.233352
294 1 9.18606 1.37024 6.55545 0.15428 -0.38398 0.117097
295 1 1.91125 9.3463 8.86813 -0.352655 0.387379 0.277603
296 1 4.40147 0.0927942 1.81092 -0.506185 -0.522867 -1.92955
297 1 6.48967 5.84174 1.67934 0.511724 -0.605916 -0.977059
298 1 5.85295 2.59333 1.54057 -0.778626 0.79796 -1.9391
299 1 0.319101 0.185483 1.55508 0.356016 1.64069 1.06748
300 1 6.90145 2.25541 5.13358 -1.19617 -0.264028 -1.10397
301 1 5.28549 3.74019 3.76447 -0.0667142 -0.0307681 0.172982
302 1 1.89173 4.80645 7.5513 -1.51346 0.0189627 -0.399702
303 1 0.96386 9.33886 7.97963 0.0931618 0.545328 -0.0492025
304 1 7.84206 4.77756 4.16294 0.831013 -0.50041 -0.443204
305 1 4.14932 3.10034 6.88162 1.25333 0.431384 0.169229
306 1 4.73779 1.47286 1.13848 -0.343905 -0.74587 -0.0199199
307 1 4.09241 8.50839 3.76445 0.643378 1.87164 -0.224861
308 1 1.70452 7.23397 6.91362 0.482133 0.208295 -0.691181
309 1 8.14226 4.12452 2.04225 1.1249 0.176038 0.623323
310 1 1.36202 7.35343 0.409844 -0.871724 0.10243 -0.304548
311 1 7.98979 4.73377 5.25104 0.0712149 1.31165 -0.763125
312 1 6.51122 0.344825 3.1413 0.340035 -0.961296 0.900389
313 1 6.49431 6.81106 5.22745 -0.143288 -0.30503 0.0500374
314 1 6.61084 6.69604 3.25571 -0.424053 -1.02772 -0.357453
315 1 2.92773 0.545251 7.63132 -0.287955 -0.677072 -1.80211
316 1 0.565351 1.26107 4.1042 -0.431318 1.06759 0.205375
317 1 3.76425 7.39775 8.19983 -0.681779 -0.605238 0.213815
318 1 4.57208 8.92343 7.41752 0.154297 0.917651 -0.400726
319 1 6.32786 2.07058 6.41992 -0.748703 0.0158905 0.338652
320 1 8.24575 3.39959 9.25063 0.870192 -0.39843 0.0939858
321 1 0.252226 6.95972 2.30166 -0.326117 0.674491 0.217353
322 1 6.2573 2.20123 2.53819 1.07212 -1.37669 -1.22771
323 1 1.21762 3.20881 0.716418 0.19354 -0.89264 -1.88236
324 1 4.42427 5.18186 0.794949 0.79645 0.231445 0.306612
325 1 5.96758 7.25633 2.17897 -0.265014 -0.805571 -1.08469
326 1 8.55799 6.44292 8.36951 -0.277038 1.12582 -1.38912
327 1 6.38527 2.7102 9.2258 0.235277 -0.67133 0.0179546
328 1 9.34147 1.20367 9.30095 1.29729 -0.286779 -0.736147
329 1 2.39535 8.51123 9.06691 0.702976 -0.32298 0.439992
330 1 7.95196 3.03277 3.75052 0.967892 0.881697 -1.42681
331 1 9.07376 8.34545 2.72225 0.359556 -0.242271 -0.0569579
332 1 9.26028 2.53801 2.76749 0.375331 -0.49493 -0.566607
333 1 4.9456 3.0384 4.98071 -1.14966 -0.431825 -0.728328
334 1 6.20338 8.73339 1.91805 0.356316 0.482361 -0.162294
335 1 0.511548 1.02499 2.41585 0.802415 0.45112 0.797332
336 1 6.95952 4.10652 2.75238 0.458776 0.158545 -0.62437
337 1 3.10764 2.7876 1.84144 0.678929 1.0716 1.52064
338 1 8.17304 7.15186 0.40815 0.520607 -0.425567 0.232243
339 1 8.74268 7.48398 1.95126 0.204811 -0.889672 0.709273
340 1 5.79746 7.45788 3.64788 0.367536 0.0638376 -0.704496
341 1 0.459293 2.58305 1.56753 -0.666581 0.0978429 -0.904294
342 1 0.965738 5.25317 2.94454 -0.69857 0.0725577 1.06201
343 1 0.181025 3.06585 0.178196 -0.354131 -0.235303 0.119549
344 1 1.8552 7.45756 7.89462 1.59195 -0.690926 -0.425181
345 1 4.02561 8.94121 5.18898 0.233563 -1.01168 0.185466
346 1 8.39107 8.77914 8.12091 -0.176693 1.06621 0.358406
347 1 4.94688 6.9287 2.57707 -0.742109 0.831235 -0.784264
348 1 3.42897 1.4223 3.8551 0.358904 -0.568759 0.0899572
349 1 4.12096 5.67665 8.13707 0.362298 -0.451686 0.168309
350 1 2.92685 4.66614 8.71572 -0.496087 0.60293 -0.0495172
351 1 0.179101 8.91207 8.02531 -1.23923 0.292548 -0.0561896
352 1 2.67533 7.6211 1.58843 -1.59896 1.34298 0.0906221
353 1 4.34552 2.66273 7.70348 0.813755 -1.75704 1.21401
354 1 1.71035 0.284021 1.55001 2.02674 0.322281 0.377896
355 1 0.874869 8.29776 3.6129 0.0617298 -0.00810282 2.59046
356 1 6.90216 4.19465 8.30378 0.169049 -0.880904 0.33563
357 1 0.567773 4.49785 0.946616 1.16676 -0.579902 1.32018
358 1 0.949552 8.12606 0.958811 -0.648255 1.16114 -0.432514
359 1 3.05801 0.265797 8.78241 -0.0834961 -0.200979 -0.727125
360 1 3.12629 1.20681 4.77145 -0.473635 1.68595 -0.674494
361 1 8.11854 0.459283 0.30252 -0.598166 0.67631 -0.66739
362 1 3.12157 0.592793 1.57852 -0.0155965 0.691061 -0.357557
363 1 1.0963 4.58324 6.29853 -0.124639 0.371442 -0.558148
364 1 8.97792 3.02725 1.00908 0.787291 -1.23185 -0.548476
365 1 0.140615 1.60475 3.02355 -0.564402 -1.16148 0.798648
366 1 3.72216 6.7687 6.41586 0.683749 -0.449356 -0.52073
367 1 7.4971 6.42613 1.9967 0.32791 0.699783 -0.0625256
368 1 4.03364 8.26848 0.137 0.288609 -0.0361223 -0.015024
369 1 8.86694 5.24934 9.3072 -0.805815 0.599886 -0.611954
370 1 0.189683 4.37009 5.18527 -0.908965 -1.26804 0.740259
371 1 5.12781 3.25241 1.12898 0.240917 0.0670244 1.6132
372 1 5.11938 0.299074 2.55247 0.29013 -0.897829 0.421133
373 1 4.00411 0.860437 2.00682 0.331634 -0.394933 -0.178173
374 1 8.45182 3.66145 6.38931 -1.24116 -0.0240616 -0.382259
375 1 6.88286 5.37474 8.78523 0.668319 -0.850044 1.70009
376 1 0.359369 2.38763 3.55895 1.08088 0.982881 0.604451
377 1 2.7507 9.05864 4.07339 0.323551 -0.290052 -0.547728
378 1 6.93352 3.41599 5.70379 0.276723 -1.83592 0.835227
379 1 3.50876 6.16551 8.79738 -0.0562442 0.0388694 -0.87514
380 1 1.9933 7.13035 8.87196 0.71478 -0.289822 -0.0619997
381 1 1.19407 6.96218 2.26143 0.51735 -0.726269 -0.793949
382 1 4.31283 2.41281 5.19714 -0.407305 0.695245 -0.873927
383 1 2.65656 1.57977 3.1823 0.183499 1.69351 0.121871
384 1 6.42745 6.71588 4.24474 0.124085 0.611391 -0.0722016
385 1 5.50599 5.55996 2.66762 0.294271 -2.08138 0.46092
386 1 5.74291 8.49579 0.1518 -2.17382 0.702727 0.562294
387 1 3.72969 3.95511 6.14883 -0.12048 0.288496 2.01329
388 1 8.01297 1.44536 5.35072 -0.474409 0.267703 0.101676
389 1 5.47497 9.37704 9.10155 -0.793316 0.308884 0.499891
390 1 7.77664 8.75752 8.79701 0.177157 -0.480179 1.19687
391 1 4.4732 1.89603 3.91113 -0.699015 0.62699 -0.147873
392 1 6.65882 1.148 6.11269 -0.180933 -1.24655 0.868647
393 1 2.14974 7.98977 7.27783 1.05289 0.476007 0.650281
394 1 1.65099 4.01132 0.211642 -0.145747 -0.336224 -0.961804
395 1 8.80432 5.83058 7.55443 2.05649 -0.00206788 1.10671
396 1 6.55348 3.78334 9.1339 0.494056 0.852537 -0.347545
397 1 7.28107 6.74099 0.531301 -0.232821 -0.189345 -0.735136
398 1 2.74963 1.38592 8.14364 0.735285 0.604453 1.22119
399 1 6.14209 0.613013 8.80001 -1.10881 1.97843 -0.851498
400 1 3.15439 5.14515 7.14725 -1.07345 1.04206 -0.0752184
401 1 5.03 2.40187 2.59925 -1.26418 -0.741243 -0.844904
402 1 4.89991 6.89371 8.25848 1.55891 0.368911 1.31788
403 1 5.35978 3.24923 5.7441 -1.44654 -1.31485 -0.37447
404 1 0.121185 4.4865 2.1163 1.95414 -0.589519 0.322231
405 1 6.60202 4.96611 3.03015 -1.12187 -0.90891 0.162413
406 1 6.95396 7.28028 2.64064 -0.668399 -1.66703 0.898299
407 1 3.47497 1.02689 9.27032 1.36777 -0.688603 0.731172
408 1 7.26613 2.93118 9.36698 -0.532226 -0.319655 0.44626
409 1 4.13167 3.27927 8.50147 0.240048 0.773721 -0.744054
410 1 8.15999 0.474672 4.05154 1.35382 0.73182 -1.56277
411 1 4.74928 5.31748 3.30151 -0.114067 0.211888 0.825692
412 1 8.47204 2.21256 7.14352 -1.59729 -0.625668 0.721767
413 1 2.25835 7.05816 3.12944 0.0236053 -0.0993172 -0.218988
414 1 2.08467 8.35495 2.17461 0.5465 2.03864 0.802554
415 1 7.63425 8.78254 0.405285 -0.211135 -0.239216 -0.245661
416 1 6.32262 6.4224 1.02458 -0.415936 -0.972196 -1.71007
417 1 8.53305 3.54417 3.04282 -1.35687 -1.32704 -0.0202836
418 1 8.00592 7.9428 0.0281566 0.456097 0.521165 0.617917
419 1 2.89837 5.21004 4.81331 -1.21884 -0.20419 0.584466
420 1 9.16501 3.44165 8.65205 -0.238044 1.56095 0.727064
421 1 5.67879 9.20239 3.67231 -0.518099 0.472094 0.343596
422 1 7.30722 3.80339 0.396597 0.0579703 -0.222631 -1.64723
423 1 7.28867 7.78914 6.25019 -0.43443 -0.162871 2.15035
424 1 4.79516 9.07233 4.26546 1.02077 -0.0641642 -0.329837
425 1 6.34589 0.91719 0.266154 -0.179197 0.574218 -0.580816
426 1 5.5514 5.68546 8.50167 0.355985 -1.18707 0.483161
427 1 2.4209 0.976152 3.86228 -1.57699 -0.41106 0.79762
428 1 2.96272 5.32643 3.91822 0.436088 0.253462 0.617372
429 1 7.04285 5.3966 3.7511 0.232283 -0.0968551 0.114094
430 1 8.64477 6.39352 6.66197 -0.545977 -0.216412 -0.400161
431 1 4.35119 1.93856 0.426327 0.342265 -0.507983 -1.85782
432 1 1.27899 1.08153 1.13222 0.342264 0.245887 0.244557
433 1 2.51851 3.95049 0.729123 1.66695 0.267558 -0.41372
434 1 1.07397 2.54628 0.124677 -0.535152 -0.272038 -0.827433
435 1 8.47353 3.49127 7.95317 1.62788 -0.321031 -0.169956
436 1 4.67302 4.84816 7.95385 0.547479 0.19939 0.0248328
437 1 1.57407 6.13246 1.65669 -0.27877 0.365298 0.130417
438 1 4.15986 4.86332 6.28798 0.769517 -0.242098 -0.256784
439 1 0.744283 5.95802 7.3123 0.577628 -1.17446 -0.356731
440 1 2.41555 1.9837 5.72829 -0.374828 -1.14286 0.146434
441 1 9.10374 9.27701 9.3591 0.231761 -0.911747 1.07263
442 1 7.19494 6.14677 1.23518 0.0294224 0.539166 -1.83896
443 1 0.909896 0.861883 7.63557 0.143602 -0.165951 -1.01939
444 1 8.4982 2.36779 4.58617 0.521187 0.489124 -0.818776
445 1 6.70038 8.50278 1.04166 0.510303 1.11228 0.308135
446 1 3.20555 7.57867 6.37221 0.650009 -1.13767 1.22121
447 1 3.12741 6.99206 8.72547 0.825343 -0.332095 -0.57189
448 1 0.834028 8.83861 1.68498 -1.29013 -0.191419 -0.00601615
449 1 0.846525 6.88483 9.00592 -0.0520418 0.654598 0.0989679
450 1 0.928618 0.0106486 0.832569 -0.267703 -0.481803 0.651741
451 1 5.06953 3.04785 8.25523 -0.693572 0.594869 -1.10994
452 1 0.33158 1.99732 7.84283 0.340394 0.562456 0.0771677
453 1 9.12513 1.76645 4.6135 0.65675 0.59241 -0.417447
454 1 1.42799 8.26278 7.00266 0.378282 1.15712 0.681453
455 1 9.08481 6.23089 4.06989 0.0810351 -0.62687 -0.00776378
456 1 3.77583 3.8299 4.69917 -0.2201 1.2583 1.05868
457 1 4.65603 5.12929 9.29134 0.548034 1.35861 -0.886459
458 1 7.31276 8.84097 5.12477 0.403076 -1.02136 0.283194
459 1 3.01339 2.51562 6.36199 -0.992041 -0.775633 -1.03655
460 1 6.70865 4.64905 7.30455 0.354397 0.059929 0.193881
461 1 2.24334 5.71866 3.3826 -0.30925 0.905796 0.27941
462 1 1.31055 1.87628 5.3389 -1.52947 -0.309004 0.0129011
463 1 3.87272 7.80039 5.08924 0.62764 -1.52431 -0.589803
464 1 7.15349 6.37954 9.09065 -0.626422 0.0224613 0.513933
465 1 1.48514 1.8378 4.36184 0.955384 -1.11944 -0.264573
466 1 2.63793 7.77056 8.50814 -1.353 0.6322 0.309273
467 1 3.36238 3.50779 7.12661 -0.960216 -0.986126 -0.772787
468 1 0.0706296 4.98622 3.17165 0.602483 -0.567226 0.302255
469 1 7.48097 2.07595 0.769153 0.769234 0.0475329 -0.424329
470 1 4.02739 2.85957 9.33934 -0.578235 -0.22205 0.221595
471 1 6.15783 8.5432 5.41921 -0.665651 -1.24428 -0.427332
472 1 5.92569 5.0425 9.15414 -0.00613581 0.240694 -0.472594
473 1 4.25729 3.40297 4.0508 -0.832798 -0.228353 -0.852481
474 1 3.31164 8.73905 0.238341 0.986171 0.485996 -0.577286
475 1 5.52382 0.69601 8.1055 0.596 -0.137052 -0.204035
476 1 0.250781 4.97193 6.19796 -1.48914 -0.907009 0.348917
477 1 0.126288 1.21189 7.36195 0.6739 0.092535 -0.508656
478 1 5.6476 1.99398 4.00786 -0.59269 -0.926079 0.110661
479 1 2.34683 0.724575 9.27968 -0.312807 0.382062 0.377296
480 1 5.6778 2.77508 7.72347 0.164169 -1.01157 0.332162
481 1 0.823113 5.22863 5.4269 -0.444352 0.648104 0.129384
482 1 4.05234 0.631203 1.01407 0.763954 0.339066 -0.967283
483 1 2.80612 6.05277 4.84784 -0.241752 -0.0796327 0.543181
484 1 3.73767 1.59671 7.6913 -0.153445 -0.773423 1.01006
485 1 5.45206 8.99968 6.75876 0.221823 -0.668046 -0.0383835
486 1 8.61914 4.31007 3.67514 1.4849 -0.0348052 0.322115
487 1 8.90935 5.44942 6.05383 0.509958 -0.593873 -1.0771
488 1 7.87159 0.0969901 7.56047 0.920776 0.00824117 -0.326362
489 1 5.40069 1.56783 2.76049 -0.0988153 -0.711682 -0.90175
490 1 7.98672 4.83452 6.2484 -0.288655 -0.58336 0.169881
491 1 0.417288 3.58969 2.35689 0.668003 0.0808681 -0.181122
492 1 6.08416 1.53123 3.33598 -0.817103 1.14985 -0.414601
493 1 4.25522 1.02296 3.88416 -0.505324 0.0878151 -0.71872
494 1 2.72778 7.33327 5.21361 0.41574 -1.51919 -0.413769
495 1 8.12739 5.65012 2.4163 0.395301 1.01628 0.971209
496 1 0.140924 8.95268 3.2262 -0.0506781 1.55274 -0.595075
497 1 8.14054 3.21268 4.71173 2.20587 -0.949737 0.441958
498 1 6.04111 4.10172 3.35346 -0.42968 -0.441736 -0.279305
499 1 6.27326 5.13664 5.16691 -0.657303 1.24286 0.135196
500 1 5.71182 7.29688 8.17691 0.836138 1.23517 -0.178079
501 1 6.52554 5.26959 6.71314 -0.045425 -0.767025 0.386531
502 1 2.34515 3.96118 2.71952 -0.196355 -0.554395 0.256197
503 1 1.61914 0.405522 4.04416 -0.821175 0.680067 1.00483
504 1 3.61236 2.58458 3.52057 -1.41147 0.02845 -0.0876312
505 1 2.3405 1.18969 7.25348 -0.364311 0.383441 -0.00763653
506 1 3.47098 5.70733 5.28103 -1.72898 -0.444197 0.691431
507 1 9.31902 2.10772 1.05412 0.842405 -0.707934 1.13238
508 1 0.425002 3.39449 1.30102 -0.888581 0.00314253 0.522075
509 1 0.131503 6.344 6.59448 0.262999 0.22036 -0.49907
510 1 3.14079 3.20004 0.270502 0.784781 0.901279 0.575662
511 1 5.52238 5.58882 4.00931 0.852211 -0.365452 -0.796852
512 1 6.27684 4.6611 1.8193 0.87522 -1.34397 0.999179
513 1 8.16381 2.47036 2.15444 -1.15502 0.966952 -0.280031
514 1 0.269468 8.5601 5.06844 -0.463639 -2.33428 0.0135373