ITEM: TIMESTEP
141850000
ITEM: NUMBER OF ATOMS
1000
ITEM: BOX BOUNDS pp pp pp
0.0000000000000000e+00 9.4000000000000004e+00
0.0000000000000000e+00 9.4000000000000004e+00
0.0000000000000000e+00 9.4000000000000004e+00
ITEM: ATOMS id type x y z vx vy vz
1 1 8.50181 4.87193 3.25112 1.51163 -0.338523 0.97561
2 1 3.84194 6.29592 6.16765 -0.506215 0.531452 0.541202
3 1 2.88443 5.23294 0.788888 0.587294 0.171066 0.298105
4 1 1.19047 3.00433 1.6599 -0.776795 0.686845 -0.612105
5 1 8.12624 8.53431 1.98588 0.940323 -0.669386 0.172843
6 1 1.35915 2.85041 8.18163 -1.46962 1.53606 -0.438048
7 1 1.53137 4.66338 4.26941 0.187678 -0.120784 -0.264118
8 1 5.94025 3.93955 9.1729 -1.16037 -0.925977 0.723401
9 1 3.56802 0.0304836 5.40657 0.78789 0.131419 -0.0915762
10 1 1.25757 0.453409 8.34219 -0.904795 -0.0715379 -0.223069
11 1 2.34315 5.13975 1.42119 -0.379272 -1.19897 0.667785
12 1 8.91085 3.54409 4.13312 -1.06467 0.42713 0.815186
13 1 0.52601 7.80994 2.37717 -0.76802 -1.09045 0.395926
14 1 7.71056 7.34954 8.56979 0.366098 0.077817 -0.315729
15 1 7.45215 6.98187 7.02509 0.686785 -0.154377 -0.0398578
16 1 8.72275 8.26931 1.3641 0.0666488 0.197677 0.180808
17 1 5.6256 3.03504 5.41732 0.489471 -0.0994604 -1.12013
18 1 5.14156 6.70337 8.02493 0.191433 0.789028 -0.467278
19 1 9.1663 0.835406 0.257037 -0.715713 0.0686354 1.7594
20 1 7.23809 2.14372 9.0506 0.515223 -0.0865438 1.94202
21 1 5.86839 0.276212 0.687426 0.214203 0.0126889 0.065014
22 1 0.538842 1.06384 7.78004 -0.698885 -0.443769 -1.01917
23 1 2.7306 8.73252 0.59505 -0.606092 -0.25697 0.132754
24 1 7.10401 7.20926 6.14873 0.158411 -0.139631 1.22105
25 1 4.86445 0.908766 4.50346 -0.232465 0.978707 -0.66541
26 1 4.9486 3.26872 1.05934 0.815204 0.783477 0.0559447
27 1 8.14244 7.21716 0.242073 0.575279 1.03709 0.0519905
28 1 2.12328 4.42136 7.756 0.749588 0.119009 0.0641906
29 1 2.39481 4.35213 6.9186 -0.297458 -0.717071 0.0371869
30 1 7.42853 8.85417 2.36046 0.153017 -1.41953 -0.0859462
31 1 7.15289 2.10619 1.62706 0.327867 0.145968 0.084207
32 1 5.37156 4.38956 4.48726 2.04471 0.461429 0.854165
33 1 3.67779 6.30948 7.97529 -0.482755 -0.510088 -0.688698
34 1 6.14397 5.048 4.80632 -1.30112 -0.257201 0.907841
35 1 2.68353 8.9464 7.71583 0.369335 0.839798 -0.619627
36 1 8.42537 9.19489 7.9941 0.472713 0.0919815 0.106482
37 1 7.71752 0.213646 4.99515 0.0395034 -0.251512 -1.87884
38 1 3.46732 8.58935 1.01326 0.0198299 0.776305 -1.51032
39 1 5.43854 7.00295 2.12885 0.26322 0.178035 -1.14422
40 1 7.30085 0.891239 7.60828 0.277451 1.12424 0.671568
41 1 2.4476 8.73167 8.62152 0.498553 -0.787066 0.0457013
42 1 4.30013 1.7743 0.44443 -1.3311 0.204886 0.237306
43 1 1.48319 3.00413 6.64722 0.529288 -1.42901 0.0492025
44 1 8.55544 6.97968 3.67663 -0.581825 0.462752 -0.637471
45 1 6.55311 7.166 1.63079 1.02978 0.0451233 0.00661039
46 1 2.30852 3.05224 3.64377 0.0311786 -0.498167 0.211132
47 1 1.51468 0.688229 5.31706 -0.30074 -1.22496 0.686657
48 1 1.09965 2.86588 4.87128 1.38942 1.3724 0.0931171
49 1 4.25647 4.45209 7.21759 -0.00726099 -0.240733 -0.201692
50 1 9.28235 4.53548 3.49081 -0.30386 0.739321 0.661056
51 1 6.42158 5.95876 2.61709 -0.524642 0.476083 -1.02054
52 1 2.52936 2.04125 9.09354 0.037356 0.0237177 -0.646755
53 1 8.57481 4.20508 5.15267 0.492661 -0.339881 -1.12922
54 1 8.02223 0.914576 1.896 -0.913155 -1.0737 -0.490929
55 1 3.03358 8.55592 5.33968 1.06742 0.51762 -1.66576
56 1 3.83166 4.37116 6.23773 1.4182 -0.636532 0.244543
57 1 2.22183 7.21039 8.67541 0.761733 -1.47899 0.081106
58 1 7.31962 8.83076 8.40202 -0.743904 -0.655582 -0.612034
59 1 1.22535 6.48172 4.80569 0.311302 -0.176047 0.976895
60 1 8.56995 0.406649 5.36804 0.412315 -1.08956 0.715437
61 1 5.9765 2.7812 7.35982 -0.00381818 1.71078 -0.604297
62 1 0.0494079 9.21633 2.31583 0.80094 -1.11614 0.380631
63 1 9.07901 5.24336 8.27927 0.282276 1.22106 0.476619
64 1 5.78948 1.61973 5.07322 0.00189715 -0.520931 1.24679
65 1 4.62487 4.75676 5.96587 0.157746 0.111164 -0.499899
66 1 4.15558 1.25754 1.93996 -1.09187 -0.146002 0.385684
67 1 8.83912 2.43566 1.88993 1.341 0.0295107 -0.201602
68 1 2.8947 7.07713 3.75452 0.922344 0.500896 -0.502595
69 1 0.23155 0.803866 6.15555 -0.602287 0.454793 -0.720888
70 1 6.68785 7.00036 7.45542 0.105278 1.25192 0.340024
71 1 2.68472 1.56717 1.01445 -1.26687 -0.494603 -0.0939431
72 1 8.1028 6.79123 1.88797 -0.652734 0.863688 1.0896
73 1 2.32488 2.22204 4.17522 -0.597852 0.0802016 0.0376656
74 1 2.59252 2.32521 1.40492 -0.382357 -0.521565 -0.0853968
75 1 4.3856 7.62822 7.26422 -0.975172 0.166584 -0.799136
76 1 5.28649 1.85081 0.375393 -0.265947 0.62386 -0.78443
77 1 1.25741 8.32803 5.14626 0.549969 -0.106678 -1.28478
78 1 4.92786 7.64373 8.08727 0.265374 0.353364 -0.552713
79 1 0.000302548 9.31605 5.13694 -0.751568 1.27242 -0.593969
80 1 3.21686 8.03459 0.214943 0.785962 0.244966 -0.814354
81 1 4.91863 6.90196 7.11944 0.183587 0.127861 0.421495
82 1 4.57875 5.17962 6.82046 1.55192 1.47107 1.35234
83 1 9.33192 7.89969 5.31755 1.62375 -0.994166 0.953415
84 1 6.76184 0.481445 0.362733 -1.26423 -0.00417265 0.347553
85 1 3.45142 7.18515 7.62714 0.558951 0.257092 0.487787
86 1 6.07811 2.64533 6.48744 -0.343814 0.415127 -0.502521
87 1 6.34784 2.4397 4.50766 -0.809441 -0.53972 0.930156
88 1 8.18381 1.48548 0.557681 -0.804592 0.0993133 0.619781
89 1 8.79629 0.544803 2.26647 -0.502988 -0.189815 0.159533
90 1 4.71658 6.57557 8.84461 0.24427 0.128772 0.0884263
91 1 5.06848 0.495343 6.78569 -0.283496 0.601027 0.336934
92 1 6.78414 3.30401 7.01199 -0.296612 -0.812578 -0.458723
93 1 3.70466 5.28361 2.97016 -1.8132 1.16442 -0.207056
94 1 1.58285 3.47178 7.50171 0.00949614 -0.178625 0.655381
95 1 0.74704 0.447116 7.0965 0.358701 0.211663 0.199132
96 1 7.24736 3.994 4.15872 0.725945 0.227972 -0.0521136
97 1 5.56014 0.919724 1.45464 -1.82895 -0.350451 0.131875
98 1 1.94847 5.25953 0.67047 -0.726001 -0.504675 -0.755037
99 1 5.59716 2.97909 2.2023 1.30113 0.534879 -0.937606
100 1 5.17239 1.1634 2.54397 -1.35215 0.183991 -0.447859
101 1 7.00772 5.03956 7.44662 1.50369 -0.79353 0.408347
102 1 5.88795 6.02346 3.71621 0.341336 -0.668919 0.333281
103 1 8.37974 5.26864 9.13254 0.251561 1.1494 -0.85593
104 1 0.199039 4.48416 8.10266 0.848757 -0.24961 -0.00410534
105 1 1.82544 5.16824 3.6069 0.112706 -0.657295 0.173226
106 1 2.94393 6.47258 5.57651 -1.84206 0.177475 0.438901
107 1 8.34229 7.98203 4.81622 0.926556 -0.189509 0.956527
108 1 3.62888 5.43695 6.8174 0.268819 -0.799114 1.25998
109 1 1.5622 6.93896 0.939731 0.328635 -0.240297 -2.07548
110 1 2.36359 4.05718 8.54931 -0.226777 -0.352944 -0.335133
111 1 3.80504 7.1682 5.44205 -0.257317 -0.830131 -0.979947
112 1 7.486 1.86627 7.26711 0.472217 0.487637 -0.554688
113 1 3.12498 2.6405 5.72873 0.24521 0.379793 -0.195829
114 1 2.99966 3.70443 3.55322 -0.149132 -0.133385 -0.606551
115 1 3.73551 3.98836 5.31588 0.824842 -0.251606 0.762639
116 1 4.88021 0.414574 1.73147 -0.500812 0.802349 -0.269783
117 1 9.34018 4.63148 5.34467 -0.832871 -0.757482 0.769052
118 1 1.53804 4.48605 0.887928 0.274011 0.930697 -0.955981
119 1 0.215346 7.55241 3.65801 -0.492185 0.529121 -0.295839
120 1 6.8842 2.6296 7.67613 0.445122 0.177306 0.513686
121 1 8.60503 0.923725 6.1099 -1.4167 1.03902 0.695975
122 1 1.36398 5.86601 6.09374 0.675244 -0.466185 0.300445
123 1 2.98869 7.11137 2.78801 0.393807 0.150011 -0.829676
124 1 6.95461 5.49197 9.37296 0.087728 -0.71192 0.601506
125 1 6.37193 3.64922 1.9546 0.466473 2.00947 0.186939
126 1 6.17122 2.06457 3.57989 1.29096 -0.0318216 0.105862
127 1 3.08948 6.34031 2.40754 0.399732 0.849628 0.0470002
128 1 4.87791 7.04063 3.87592 -0.0804562 0.25677 1.15348
129 1 1.41719 2.6196 3.85015 0.189953 0.266137 0.16481
130 1 3.05933 6.59365 0.712549 -1.18864 0.283902 0.535162
131 1 2.91073 6.70353 6.92923 -0.504436 0.5631 0.171361
132 1 3.42959 4.42045 4.06871 -0.43682 -1.52834 -1.04281
133 1 8.24621 8.8548 4.6398 -0.312778 1.38981 -0.221307
134 1 8.86584 6.42628 6.33776 0.225411 0.232173 1.48736
135 1 5.50187 2.51053 1.27971 -0.496051 0.0525203 -0.155664
136 1 4.27036 2.73157 8.25559 -2.25123 0.584891 -0.195977
137 1 1.26356 8.77047 0.871422 1.04958 -1.33354 0.541529
138 1 4.35598 7.14717 0.268502 0.468012 -0.49443 -2.07872
139 1 1.42791 8.50257 7.47337 0.560515 0.181418 -1.19249
140 1 0.26773 3.0215 1.76599 0.282676 1.66631 0.0709606
141 1 1.81661 9.18111 5.45962 0.295507 0.755511 0.344922
142 1 6.73737 0.192838 5.40408 0.83538 -0.435198 0.871833
143 1 2.86786 1.48008 2.83667 -0.244226 -0.26906 -0.678994
144 1 7.24734 8.8162 5.18715 -0.638559 -1.87193 1.37086
145 1 3.56858 2.10226 2.79279 -0.579782 1.04028 -0.308477
146 1 5.15422 5.35936 4.42946 0.798949 -0.898646 0.416558
147 1 6.73381 6.41409 5.46317 0.182437 -0.383514 0.436822
148 1 8.25174 5.53991 2.47846 0.721476 -0.93405 -0.498189
149 1 4.72205 2.11102 7.85592 -0.607612 -0.288525 0.61012
150 1 3.02242 5.90394 7.42419 -0.0633778 1.56079 -0.775778
151 1 5.84437 6.29686 6.11895 -1.22069 0.887555 -0.74758
152 1 1.28429 3.31278 0.0762921 0.885146 -0.454583 -0.0932089
153 1 4.24283 5.69359 8.50211 1.44746 -0.395599 -0.053849
154 1 7.86082 7.31191 4.5801 0.106297 -0.886851 0.288946
155 1 7.79764 0.331534 6.04979 -0.422208 -0.293648 -0.957391
156 1 8.44399 3.03736 7.83955 -0.360799 0.512938 0.512412
157 1 0.332591 1.816 2.71945 1.60476 0.794856 -0.622206
158 1 4.12361 0.132319 8.62787 -0.764135 -0.684055 1.05579
159 1 4.06543 0.087921 0.930084 -0.20126 -0.885453 0.93872
160 1 8.63156 2.10434 7.30508 0.870141 -0.642674 -0.745636
161 1 1.70057 5.66888 4.368 -1.26434 0.26843 0.555997
162 1 0.271886 8.66513 9.22815 0.0753738 -0.2693 0.41617
163 1 8.50526 4.99862 0.798232 -0.290467 -0.274085 0.378632
164 1 2.11752 9.3497 3.89198 -0.899651 -1.10605 1.53046
165 1 1.39173 6.93928 9.37904 0.414576 0.693925 -0.260537
166 1 0.363296 6.21696 5.9837 0.435812 -1.11071 0.451074
167 1 0.529008 6.93966 5.47083 -1.25465 1.19658 1.24827
168 1 5.94234 0.122759 2.06674 0.0201308 0.598972 0.9197
169 1 6.83993 0.920732 3.02648 1.26097 0.119925 -0.0309003
170 1 0.0726144 9.30165 3.84197 0.212476 -0.750459 -0.614474
171 1 2.44512 3.26749 2.7369 -0.59079 -1.00825 -0.548195
172 1 7.50191 4.49872 6.73397 -1.42541 -0.0422253 0.196585
173 1 8.22064 3.40719 3.46735 0.32209 0.652398 0.200355
174 1 0.618535 3.68802 7.97829 -0.45665 -0.189878 0.703234
175 1 4.47773 7.71413 5.55345 0.391829 -0.123243 -0.684077
176 1 9.295 8.78494 8.35354 -0.719283 -1.15797 0.0293112
177 1 4.42988 4.91032 4.14579 -0.0475382 -0.555661 -0.501269
178 1 2.47334 4.39941 2.0253 1.13647 1.05613 -0.259716
179 1 7.95605 2.64274 6.33002 -0.0597026 -0.344467 -0.334979
180 1 2.63361 1.69823 5.10891 -1.12477 0.251424 -0.649342
181 1 6.79966 2.43291 2.94021 0.425886 -0.0269256 -0.287557
182 1 7.29046 6.56999 4.69469 0.905198 1.89 0.992431
183 1 4.96216 3.54915 4.95476 -0.932997 0.19319 0.248636
184 1 2.27295 2.98337 7.99926 0.813828 -0.359094 -0.606568
185 1 9.37077 4.66598 8.9776 0.410058 -0.391204 -0.162971
186 1 2.46771 2.32893 0.539271 -0.549228 -0.117645 -1.68947
187 1 4.0977 2.20267 5.60747 0.921472 0.772949 0.111295
188 1 5.81712 6.73696 1.33687 1.43526 0.725221 0.362464
189 1 7.32398 7.99196 5.79293 0.768561 -0.318834 1.10532
190 1 4.88832 6.98014 1.13242 -0.441456 0.645621 -1.4266
191 1 3.66786 3.34587 4.11717 -0.912699 -0.67157 -0.257293
192 1 1.54935 0.527778 3.12661 0.741838 -0.609953 0.0946075
193 1 8.68134 7.52022 1.89675 1.28419 1.25535 0.266774
194 1 4.61393 6.16037 0.452502 -0.0547642 -0.19635 -0.471869
195 1 0.913298 9.20279 3.60563 0.221542 -0.128357 0.932897
196 1 5.05423 7.82557 6.57408 -1.10029 -0.629466 1.17302
197 1 6.59409 5.88705 0.738027 0.425552 0.180551 0.122977
198 1 5.95413 7.7751 8.16546 0.0608124 0.580515 0.371197
199 1 6.74249 6.38334 6.63622 -0.427789 -0.0932032 -1.1697
200 1 4.53814 8.67424 0.337335 0.0201497 -0.854195 -0.539202
201 1 7.18909 1.33329 8.48415 0.030431 0.660827 0.240701
202 1 7.04279 2.77413 0.492721 -0.381598 -0.47374 -0.0107658
203 1 8.93887 5.00342 2.46823 -0.558818 1.03087 -0.103156
204 1 8.19553 5.97076 3.27095 0.906726 -0.0552517 -0.0346722
205 1 7.03062 7.15555 2.99104 -0.281271 -0.587727 -0.376013
206 1 8.19892 5.18814 5.17682 -0.733987 -0.136446 0.424218
207 1 0.673246 4.81302 4.8256 -0.739316 -1.08796 0.0512592
208 1 6.1639 1.08658 2.21628 -0.766923 -0.753995 0.637122
209 1 5.54375 7.78798 2.53679 -0.618779 -0.420579 -0.49895
210 1 0.83602 3.30244 0.841892 -0.329128 1.0685 -0.317655
211 1 0.540488 1.24718 4.42261 -0.381634 -0.0680487 -1.15197
212 1 2.1453 8.521 4.79129 0.900382 -0.964208 -1.01737
213 1 6.31357 8.67163 5.37521 -0.535225 0.481672 1.61437
214 1 7.33711 3.94801 1.92276 -0.820296 0.0992429 0.103791
215 1 6.40919 2.56072 8.51105 -0.778417 -0.466312 -1.16609
216 1 5.95133 3.03703 3.13723 -0.375147 0.363451 1.70708
217 1 5.60381 8.06654 4.08368 -0.755005 -0.0444182 -0.451751
218 1 4.25594 5.15403 0.528225 -0.286674 0.0912146 0.0195102
219 1 1.66897 7.08891 3.75434 0.130858 0.090244 0.0840077
220 1 0.0594685 3.9331 6.49527 1.08707 0.632308 1.60827
221 1 7.9199 2.60619 7.17328 -0.821029 -0.298546 0.842425
222 1 1.54826 7.52714 6.17803 -1.00671 0.3774 0.43428
223 1 5.77774 6.34236 8.80873 -1.25816 0.467146 1.03052
224 1 5.20474 6.93883 0.156242 0.669872 0.138671 0.0353892
225 1 3.75898 1.75939 6.30272 0.395777 -0.727562 -0.556489
226 1 3.75521 8.68035 7.60071 -0.967103 0.376752 0.536007
227 1 1.53498 7.69872 7.13023 -1.62802 0.183474 0.86564
228 1 3.93813 6.82035 2.70927 0.618264 -0.283838 -0.00316048
229 1 8.60999 2.84856 4.69238 0.0907449 -0.0271446 -0.619443
230 1 4.58668 0.114784 0.0269851 0.470745 -0.466997 -0.744279
231 1 5.79104 1.31353 6.68919 0.0420789 -0.207711 -0.63457
232 1 1.81207 6.79854 7.21284 0.42175 0.21896 -1.20152
233 1 2.0374 6.79117 5.49975 -0.413093 0.131182 -0.582447
234 1 5.49961 1.62214 3.95206 -0.48565 0.0109895 0.719583
235 1 2.89582 4.27534 0.646973 -0.860807 -0.965045 0.218686
236 1 3.15976 0.617035 6.16299 -0.0257309 0.344789 -0.117059
237 1 3.68802 1.83991 8.44139 1.31943 0.0235002 0.117584
238 1 4.77754 7.87358 3.5189 0.138524 -0.36316 -0.846032
239 1 8.4617 2.73449 2.75695 0.556807 1.34979 0.281955
240 1 2.87328 9.02841 1.75651 -0.123781 1.80016 -0.416416
241 1 2.92797 2.53964 2.20673 0.031129 -0.697768 0.516033
242 1 3.41968 4.79505 8.4847 0.164618 0.273812 0.586687
243 1 5.91821 1.70763 8.83097 -0.440278 -0.993817 0.351468
244 1 0.892373 4.49043 0.218054 1.39058 -0.101412 -1.39952
245 1 0.0350721 5.10229 1.36746 0.393212 -0.335248 0.589076
246 1 7.56707 7.64259 0.993191 0.0581825 -0.723048 -0.65304
247 1 8.49354 8.35312 0.225599 -0.642497 -0.62098 -0.591338
248 1 0.66007 8.1151 6.77581 -0.539853 -0.0797208 0.304525
249 1 2.89916 3.84114 7.64206 -0.257829 -0.681288 -1.00544
250 1 7.12258 6.42176 0.243458 -0.0581162 0.938218 -0.941218
251 1 3.60925 8.79903 6.08682 0.305311 1.15127 0.306545
252 1 4.17828 7.73487 2.67929 -0.769387 -0.823877 -1.05245
253 1 3.79799 2.66302 6.86895 0.188933 -0.672387 -0.128774
254 1 4.07264 7.97253 8.25342 -1.22291 -0.430548 0.344009
255 1 9.10008 7.14909 7.227 -0.0625394 -0.527287 -0.269066
256 1 5.46276 8.25919 0.98177 0.504531 1.58515 -1.51237
257 1 2.7288 5.31345 5.25013 0.222657 -0.866819 0.134941
258 1 9.12079 0.528716 6.94889 0.563601 -1.20553 0.893442
259 1 2.73952 1.08718 4.35318 -1.48369 0.358781 0.0180027
260 1 6.12266 1.27201 0.442123 0.655912 0.0707897 0.134881
261 1 8.66824 6.2628 9.4024 -0.106996 0.837103 0.743911
262 1 0.96447 4.8071 5.93401 -0.353881 -0.626355 0.126513
263 1 6.9517 0.585013 6.23174 -0.342943 -0.120383 -0.56103
264 1 2.42811 4.27996 3.94158 1.04781 -1.009 0.274381
265 1 3.50623 8.68095 8.55344 -0.0562362 0.0845366 0.688632
266 1 7.22983 1.83028 4.62285 0.45118 0.301993 -0.256089
267 1 6.8569 4.1098 9.11839 -0.140544 -0.865147 -0.433617
268 1 2.34617 5.17203 8.45561 0.222356 -0.0694682 -0.633231
269 1 3.96015 8.33898 3.78064 0.0954478 -0.177482 -0.47234
270 1 9.11534 6.4646 2.80455 -1.34321 -0.347146 -0.473877
271 1 3.99267 3.35612 3.22013 1.52138 0.939293 -0.340709
272 1 0.193597 0.0953274 7.87418 1.3263 -1.93912 0.785978
273 1 2.49121 8.41844 3.34838 1.82087 -0.753415 0.77343
274 1 4.02136 6.28098 4.89131 0.912414 -0.18378 -1.20883
275 1 7.09852 1.47147 2.2561 -0.394712 -1.7751 -0.108589
276 1 1.97465 1.06106 1.4783 -0.178405 0.470104 -0.56436
277 1 6.01636 6.6043 0.325751 -1.15516 1.43715 1.36669
278 1 0.57188 7.37049 7.45414 -0.779097 -0.329675 0.680339
279 1 3.00553 2.52338 8.42121 -1.36871 -0.493453 -0.230542
280 1 6.02389 6.8225 4.27107 0.506774 0.406221 -1.06264
281 1 7.27153 6.59088 2.30373 -0.0091396 1.14174 1.35514
282 1 3.94174 1.60475 7.46843 0.34022 -1.05664 0.363243
283 1 7.97473 7.86202 2.63756 0.140867 1.9659 0.272492
284 1 0.354714 3.90625 4.51532 -0.12338 -0.285264 -0.525454
285 1 1.17072 5.39177 7.5938 0.139012 0.507372 0.0908388
286 1 2.33626 8.21776 1.45848 -0.68731 -0.748051 0.0460301
287 1 4.66072 1.40828 8.47059 0.462267 -0.950485 0.372117
288 1 0.971078 9.1605 5.12583 0.507749 -1.20596 0.0124406
289 1 1.47052 6.15807 3.29873 0.163083 0.723866 0.369312
290 1 6.23562 0.0157165 6.92608 -0.705761 -0.856532 0.673152
291 1 7.04975 9.20816 9.23729 0.425397 0.209278 -0.375964
292 1 6.6607 5.12617 1.32568 0.113798 0.553663 -0.402312
293 1 4.77146 6.36112 2.11711 -0.498594 -1.18838 -0.184776
294 1 6.6282 0.615572 1.29848 1.12118 -0.0959501 -0.70638
295 1 2.78505 0.55504 5.2261 -0.991359 0.482102 -0.339381
296 1 4.07316 0.563271 7.88937 -0.286298 0.711069 -0.883142
297 1 3.78808 0.424596 3.67979 -0.534905 -0.34852 -0.780643
298 1 6.23985 9.34649 8.8868 1.07216 0.152698 0.356273
299 1 3.15402 8.96352 3.62177 -0.483791 0.415339 0.0813088
300 1 5.57166 7.53221 7.25411 -0.097322 0.0921594 -0.0448296
301 1 8.63203 1.81173 5.60181 1.92502 -1.07936 0.549451
302 1 4.01604 6.51292 7.00105 -0.935484 -0.0770087 0.393387
303 1 5.78404 2.24949 7.99222 -1.23021 -0.749056 -2.23804
304 1 9.06171 5.89691 4.92543 -0.996161 -0.0212787 0.0414106
305 1 4.62539 7.5501 8.92481 -0.551186 0.523326 -0.754986
306 1 2.19739 5.80408 2.09075 0.0131773 -0.17602 0.313185
307 1 4.55729 8.70119 5.67356 -0.124269 0.413483 -2.08601
308 1 2.41616 3.23961 9.12261 -1.48273 -0.470332 -1.10163
309 1 0.236767 8.64041 2.92303 -0.158444 -0.325481 0.185415
310 1 3.37091 1.16528 6.90897 0.663762 1.24782 0.500783
311 1 7.40163 2.99992 3.53892 -0.98856 0.879524 0.111959
312 1 1.02981 4.35541 3.49681 0.00468866 -0.451431 0.580719
313 1 5.29532 5.38876 6.19113 0.995689 0.500424 1.44563
314 1 2.35703 6.37693 7.71425 -0.13253 1.81969 0.198765
315 1 5.97097 8.37602 3.27101 -0.95124 1.23265 0.601109
316 1 1.94162 1.46211 0.271456 -0.295571 -1.07328 0.605841
317 1 4.21685 4.153 2.41901 -0.355906 -0.0171308 0.945483
318 1 6.33886 8.57317 0.172278 -1.07159 0.558323 -0.745276
319 1 0.777262 4.20849 8.72132 -0.534305 1.13523 -0.347232
320 1 3.81965 9.19732 4.34557 -0.0417795 0.192451 -0.346695
321 1 0.295089 3.0169 4.18796 0.123544 0.614143 -0.304733
322 1 4.70118 6.96803 5.15534 -1.10842 -0.208635 0.226456
323 1 8.9944 4.86215 7.22897 -1.72352 -2.06629 -1.45818
324 1 0.640364 2.23262 9.24303 -0.160015 -0.140081 -0.00663483
325 1 8.94112 2.86876 1.0483 0.0282556 -0.185643 -0.593949
326 1 4.79394 2.77809 5.33854 -0.263985 -0.0142659 0.611469
327 1 9.25164 2.77476 6.94174 -0.201935 -0.497176 0.46972
328 1 0.10062 6.3398 0.237644 -0.0457783 1.09973 -0.478841
329 1 3.47024 6.45618 9.20758 -0.608915 0.423412 0.637955
330 1 2.48455 0.498354 6.94442 -0.569957 -0.0164389 0.403536
331 1 0.0504641 2.2813 0.469179 1.14602 -0.527487 0.36604
332 1 1.49706 8.41593 6.30685 -2.06367 -0.320617 -0.310695
333 1 6.62785 0.461945 3.79822 -0.566289 0.936273 0.846504
334 1 4.92737 6.80994 6.16671 0.604531 0.513664 0.304561
335 1 4.73732 1.12361 3.61689 1.30767 -1.2009 0.793122
336 1 1.44407 4.77689 8.39798 0.0752583 -0.567877 1.35394
337 1 8.2835 2.35445 0.431348 -0.590255 0.268111 -0.350886
338 1 0.708646 1.32721 6.8291 0.16034 -0.996711 0.187514
339 1 5.30526 2.20462 6.10407 -1.03519 0.252252 0.63024
340 1 0.666665 4.76649 1.97775 -0.034112 0.984155 -0.430318
341 1 1.97571 1.71806 5.76451 0.982402 0.249149 0.239392
342 1 1.17711 3.19716 3.08015 0.172568 -1.98093 0.251132
343 1 3.30612 2.97902 7.62781 0.299675 1.06914 0.651307
344 1 4.40417 0.14422 6.18489 -1.27873 -0.6888 0.0473737
345 1 2.47142 0.404653 1.98813 -0.294127 1.38287 -0.565177
346 1 2.30477 7.50094 6.64712 -1.07329 -0.665084 1.11773
347 1 5.04735 1.33968 5.93202 0.683659 0.49447 -1.51547
348 1 2.88831 5.23156 2.19488 0.0198394 -1.20323 -1.40393
349 1 0.77328 6.38697 8.84488 -0.159218 -0.94184 -0.330049
350 1 4.67072 7.80549 0.985579 0.505635 -0.813116 1.1417
351 1 3.82533 1.3037 3.91195 0.543821 0.762813 -0.231269
352 1 7.8167 2.9474 0.943435 -0.298089 1.21402 -0.0717133
353 1 1.55886 5.06657 1.79823 0.578815 0.799308 -0.979062
354 1 8.95635 1.42627 4.70528 -0.80554 -0.479433 -0.339111
355 1 6.67342 6.06652 1.67304 0.549104 0.606053 -0.0767928
356 1 9.32521 5.691 9.05594 0.815032 1.24047 -0.503735
357 1 5.58318 7.37527 3.41052 -1.50418 -0.905552 -0.563449
358 1 7.91936 3.66206 8.55257 -0.083022 1.03202 -1.04522
359 1 5.1393 8.23319 7.55562 -0.0577807 -0.415975 -0.503205
360 1 1.23802 5.53145 5.19583 0.710018 1.43061 -0.761066
361 1 1.68634 5.94758 0.0905032 -0.827606 0.608928 0.527821
362 1 6.92253 4.82057 5.95732 -0.0667312 -1.4312 -0.374705
363 1 8.53894 1.58597 3.7663 0.735114 -0.072712 0.297213
364 1 2.62187 5.81121 3.04209 0.206275 0.233431 1.98108
365 1 5.80589 5.89711 1.9296 0.454682 -0.796787 -0.30906
366 1 7.16795 5.76926 7.96237 -0.651923 -0.914401 -2.17145
367 1 5.46716 9.07661 0.162109 0.711878 0.0702578 -0.425223
368 1 0.923859 3.97007 2.64642 0.311597 -0.185532 0.152826
369 1 5.68214 9.34012 5.32374 -0.257251 0.00459658 -1.46547
370 1 0.734677 7.20796 0.70642 -0.0641571 -0.449915 0.0938347
371 1 2.20208 6.42046 3.79141 0.29171 1.06636 -0.368895
372 1 9.1074 2.92702 3.47197 -0.878884 0.0286406 -0.930139
373 1 5.36933 0.788531 5.25837 0.507107 -0.900315 -0.0829219
374 1 3.67663 0.661916 4.55478 1.05446 -0.727175 -0.196574
375 1 9.06628 5.90407 0.985915 0.268282 1.17831 -0.56842
376 1 2.45013 7.37255 7.69041 -1.29585 0.361769 1.19303
377 1 8.60988 4.28102 8.59844 1.73971 -0.512192 0.0489544
378 1 7.68098 5.79396 4.85456 0.61745 -0.502103 0.923452
379 1 3.70594 5.75132 1.17565 0.283895 0.00641046 -0.409965
380 1 8.09928 0.740505 3.93982 0.695392 0.888861 -0.218889
381 1 5.31801 4.75174 3.50846 -0.541433 0.172097 1.33929
382 1 7.22275 7.88128 3.64973 -0.214467 0.932308 0.439606
383 1 6.16485 4.38789 3.40687 0.161895 0.954857 -0.299815
384 1 7.87904 6.98187 5.60214 0.65634 -0.477355 0.169071
385 1 8.20048 6.14083 7.0773 -0.345203 -1.23962 0.141782
386 1 3.11362 6.77998 4.71904 0.375894 -1.62771 0.51374
387 1 0.944051 6.20424 0.625529 0.403079 0.581353 0.746963
388 1 1.08672 0.408006 4.37471 0.535018 -0.519999 -0.794784
389 1 0.234389 3.52394 3.02923 -0.74725 0.0561416 -0.866651
390 1 7.76476 3.45197 7.62169 -0.128334 0.0243898 0.964185
391 1 0.165625 0.617938 1.75452 -0.723876 0.842932 0.875367
392 1 8.56758 0.711351 8.83459 0.311486 -0.614644 -0.543132
393 1 1.1304 7.72893 8.10509 0.417989 -0.932176 0.196239
394 1 9.11418 4.0997 1.55061 1.61473 -0.0885165 -0.16547
395 1 7.01128 2.34938 6.70243 -1.25975 -0.765354 -0.989688
396 1 3.00937 5.71597 8.6126 1.15486 -1.0431 -0.182121
397 1 3.86145 7.4439 3.53968 0.818777 -0.0217605 0.685076
398 1 5.91892 8.4645 6.90013 -1.81645 0.125594 0.128831
399 1 8.79743 0.456652 4.52016 -0.00219197 1.33478 1.99391
400 1 2.15159 0.715769 6.03479 -0.383051 -0.470324 -1.40989
401 1 5.19047 1.03518 0.642631 -0.958898 0.819053 -1.56332
402 1 6.63137 1.75666 7.98337 -0.807848 0.784714 0.760853
403 1 6.3665 8.78184 2.56191 0.495371 0.747471 0.20955
404 1 8.93316 7.56323 4.27922 1.34704 0.419952 0.596839
405 1 7.98792 1.96758 3.16368 1.1926 0.334491 0.0749611
406 1 6.87503 0.415164 2.26654 -1.34773 0.908726 1.87952
407 1 4.06543 6.56209 1.11487 0.292571 1.43078 -0.496379
408 1 3.83303 4.68071 1.24281 -1.25514 -0.56872 0.95881
409 1 9.01172 7.07977 0.41964 -0.842966 1.85697 -0.0456734
410 1 9.37387 0.962511 2.83431 -0.795428 1.59288 -1.39305
411 1 9.20573 3.39011 8.42705 -0.20694 0.242152 0.621395
412 1 8.7687 3.97673 0.752667 -0.94819 -0.496564 0.642382
413 1 3.01148 3.87153 6.24596 -0.993111 0.767851 -0.995579
414 1 7.32646 4.21862 3.31684 -1.69972 -0.633759 0.384213
415 1 3.98944 8.88131 3.09556 0.325425 0.523256 -0.0718826
416 1 6.00132 0.772715 5.9192 -1.22684 0.774215 -0.277583
417 1 7.2964 5.66135 6.81564 -0.999181 -0.0621003 -0.174449
418 1 1.68864 5.99523 6.98559 0.584721 0.954359 -0.297942
419 1 7.4627 0.174824 1.42378 0.463398 -0.748204 0.138523
420 1 7.88723 4.57799 7.91663 1.40188 -1.1365 1.00222
421 1 8.10306 7.13652 6.40781 0.885941 0.280916 0.774027
422 1 6.6589 6.36171 3.45098 -0.450505 -0.450338 -0.368952
423 1 8.04421 3.56998 4.83647 -0.618451 -0.0867534 0.659478
424 1 7.97559 1.53744 8.75039 0.261739 1.14276 -0.463113
425 1 3.10868 0.406724 7.80245 0.788749 -0.13847 0.719241
426 1 1.54862 8.99812 8.33451 -1.05824 1.33205 -0.316239
427 1 0.426661 8.97426 6.12248 0.126446 0.95233 0.432692
428 1 0.710948 8.09795 5.87367 -0.509739 -1.10175 -0.196074
429 1 6.4448 4.32902 6.86119 0.368493 0.350716 -0.656155
430 1 3.50492 4.91863 0.0319457 0.352829 0.231497 0.524952
431 1 4.6516 2.78883 3.234 1.84654 1.20256 0.324959
432 1 3.72616 8.93512 9.39597 -1.08201 0.266597 0.139862
433 1 6.79299 6.22731 8.78447 0.480733 -0.554429 0.438475
434 1 3.56926 0.348933 1.66031 -0.412834 0.375381 0.563788
435 1 4.66778 0.0718773 3.91915 -0.26468 -1.22145 -0.386177
436 1 5.64117 4.89744 1.71544 -1.2653 -0.470943 -0.68283
437 1 8.86765 1.85527 1.06718 -0.0820496 -0.733485 -1.24014
438 1 0.186989 8.72218 1.51786 0.0108788 0.104769 -0.301557
439 1 6.16355 5.21956 3.92226 1.25157 0.640377 -1.3793
440 1 4.89525 8.43256 2.77061 0.0752578 -0.364103 -1.04578
441 1 6.3353 4.35398 1.38931 1.06661 -0.285633 -0.960581
442 1 0.0643807 4.30158 2.52305 0.061096 1.38341 -0.477103
443 1 8.47911 3.90123 6.94719 -1.24543 1.84937 -1.27197
444 1 3.90072 5.69906 9.30214 -0.516459 0.877459 -1.31395
445 1 2.92318 3.62682 4.63874 -1.23595 0.58396 0.329059
446 1 1.88265 4.85827 5.17779 -1.53275 -0.0592007 1.15263
447 1 6.42126 2.61543 1.17753 0.483099 0.771234 -1.13638
448 1 1.70462 4.06338 9.19975 -0.610986 0.642004 -0.763969
449 1 6.32417 0.895295 7.55535 0.0540614 -1.05105 0.56137
450 1 7.44428 0.33851 8.65052 -0.0156143 -0.832631 1.23437
451 1 2.58965 1.42648 6.63814 1.01493 -1.17427 -0.0882793
452 1 9.32298 5.23455 4.28795 -1.04622 1.226 2.16982
453 1 5.32648 4.87646 8.50847 0.626689 0.388726 -0.373984
454 1 0.303102 2.81084 7.92345 -0.302756 1.62349 0.783724
455 1 7.58345 3.28849 9.3858 -0.391838 0.211224 -0.405511
456 1 1.76759 4.70462 2.51541 0.392884 0.695411 0.69244
457 1 3.41091 2.2137 0.886845 -0.170258 -0.35555 0.0746354
458 1 4.9597 5.05318 7.63157 1.00846 -1.04423 -0.47917
459 1 3.2448 3.72662 2.56381 -0.30493 -0.0335231 0.121286
460 1 5.80958 6.48281 7.10748 -0.476833 -0.556058 0.706544
461 1 1.43728 6.93135 8.17384 0.697864 -0.827883 0.514032
462 1 2.9388 0.63509 3.47578 0.818886 0.173179 -0.87306
463 1 1.37252 1.56137 8.76174 -0.577033 0.656304 0.67086
464 1 3.2036 7.98665 3.24816 -0.554557 0.591548 0.033522
465 1 5.32241 6.40162 2.94275 1.38127 -0.38237 -1.1261
466 1 3.61956 7.83853 5.90171 0.471485 -0.00849781 -0.242544
467 1 5.79243 2.16705 2.67791 -1.26763 -0.30837 -0.235141
468 1 2.48849 0.966456 8.97556 -0.581818 -0.420592 0.299431
469 1 8.93685 2.75505 5.51217 0.626233 1.59535 -1.84427
470 1 2.09137 4.08767 4.69909 -0.0844447 1.1561 0.17561
471 1 6.41605 2.31839 2.01274 -0.213061 0.237883 0.636286
472 1 3.23312 8.46767 4.43486 0.178227 1.38733 0.0460558
473 1 8.89939 6.00507 7.6425 -0.378747 1.06631 -0.96499
474 1 5.84322 4.4526 7.4918 -0.0421885 0.288665 -0.0480046
475 1 8.81971 7.00936 5.39673 1.38896 0.286926 0.343921
476 1 1.60746 2.51474 8.99659 0.880521 0.520774 -0.961272
477 1 1.68477 0.990921 6.78866 -0.286081 -0.638131 0.566216
478 1 4.29973 7.01146 8.02694 0.0153053 1.14354 -0.350613
479 1 1.18517 2.44 5.87461 -0.272807 -0.676278 0.432795
480 1 5.94734 6.02273 4.91251 0.776964 -0.00397842 1.16367
481 1 4.57873 1.95369 3.99301 -0.490718 1.89775 -0.561062
482 1 7.28682 2.99165 8.53205 -0.620843 -0.655241 -0.697636
483 1 5.02967 0.502564 7.73103 -0.170121 0.785426 -0.110096
484 1 2.93106 8.15566 6.27799 -1.17915 -0.522844 -0.966376
485 1 5.45269 7.43204 5.68369 -1.90798 -0.51821 -0.451904
486 1 8.63566 1.31493 6.90673 0.814693 -1.15819 -0.345616
487 1 8.84717 3.65944 2.79642 -0.206193 0.516947 1.47955
488 1 1.68028 9.1933 6.80023 -0.209631 0.605764 -0.057723
489 1 1.72084 2.90302 0.898868 -1.31359 1.52388 0.544729
490 1 8.63125 0.899329 1.21954 1.019 -0.399861 1.25077
491 1 3.93696 6.89841 4.21669 0.504034 0.832342 -0.507966
492 1 4.3173 8.58963 1.35874 -0.726427 2.12724 -0.403484
493 1 8.62438 2.19367 8.15961 1.85916 -0.0857076 -0.210773
494 1 6.3646 1.54768 1.2902 -0.561414 0.473754 0.45259
495 1 8.75202 9.02019 2.73224 -0.982226 -0.393068 -1.06964
496 1 0.590727 8.4256 4.05017 0.119197 -0.0398737 0.0493816
497 1 1.66967 3.91437 6.50103 0.396598 -0.487887 -1.26103
498 1 0.583244 0.774891 3.57786 -0.536868 -0.00880399 0.350462
499 1 0.715121 5.52603 0.0475036 -0.593236 -1.25024 -0.577428
500 1 6.37572 4.26894 4.29608 -0.49232 -0.237182 -1.10765
501 1 8.07177 0.661095 8.04083 -0.415363 -0.910909 -0.305266
502 1 6.83632 8.7162 3.43965 0.44384 0.21186 -0.85733
503 1 7.17364 3.29025 5.16784 -1.27821 -1.16367 1.35833
504 1 2.41683 7.00758 0.133185 -0.0755127 0.625632 -0.225636
505 1 7.88676 8.8779 0.957204 0.428823 -0.894159 -0.113393
506 1 3.68387 4.4121 3.16512 -1.61356 0.953857 -0.534857
507 1 4.44884 6.03711 2.82179 0.632207 0.566561 -0.883204
508 1 8.21301 6.17115 0.918352 -0.084697 -0.0634269 0.802987
509 1 7.42609 7.49211 1.8783 -0.654419 0.112224 1.32434
510 1 5.02993 9.31875 8.62485 -0.0454386 0.117114 1.18572
511 1 6.03976 9.32506 3.29191 0.747594 -1.00475 -0.628955
512 1 4.39553 4.73253 8.99551 1.45095 -0.361549 -1.13267
513 1 6.79526 3.88416 5.7093 -1.25695 0.595425 0.956764
514 1 2.49415 0.0606654 3.00316 0.487555 1.20626 0.386126
515 1 2.23864 0.551245 0.575006 -0.275179 0.537279 -0.87666