ITEM: TIMESTEP
128750000
ITEM: NUMBER OF ATOMS
1000
ITEM: BOX BOUNDS pp pp pp
0.0000000000000000e+00 9.4000000000000004e+00
0.0000000000000000e+00 9.4000000000000004e+00
0.0000000000000000e+00 9.4000000000000004e+00
ITEM: ATOMS id type x y z vx vy vz
1 1 0.885299 6.05292 1.9656 -0.238227 0.296599 -0.811019
2 1 3.18365 7.88899 8.35459 0.105172 -1.03873 -0.603211
3 1 8.53441 6.7202 2.69077 -0.0189226 -1.38098 1.55614
4 1 3.36049 3.0205 1.8435 -0.244746 0.735062 -1.06274
5 1 7.94482 2.9204 8.63774 -0.841759 0.286628 -0.162238
6 1 9.19375 8.31089 2.88127 0.525275 1.41804 0.536999
7 1 8.5403 7.36198 0.910489 -1.80694 0.190773 -0.417618
8 1 3.32699 5.19444 6.32607 -0.458724 1.99442 -1.59802
9 1 0.690489 8.34823 1.32584 0.174164 -0.52424 -0.847084
10 1 7.7339 6.7395 8.49198 -0.678018 -0.4384 -0.069196
11 1 6.50625 3.11964 6.36326 0.715863 -0.11163 0.0671063
12 1 8.12849 0.455204 2.27424 0.241836 0.958233 -0.226414
13 1 0.389619 4.75279 7.46158 -1.50051 -0.871623 1.74873
14 1 0.155002 3.79281 9.07994 -0.0754824 0.0434412 0.603126
15 1 5.68523 2.25968 1.18137 -0.870756 -0.239847 0.044072
16 1 2.24199 0.258318 8.52944 0.192427 2.03478 1.07397
17 1 3.35274 6.74937 6.92447 -0.265996 -0.150645 1.59922
18 1 7.08591 2.47106 9.02823 -0.581875 0.160189 -1.01482
19 1 9.12361 8.51956 8.08167 1.14661 1.58538 -1.1147
20 1 5.56361 4.68971 1.88223 0.97574 -0.709546 -0.427512
21 1 1.69055 7.46201 6.76889 -0.252602 0.375884 0.676418
22 1 3.31629 8.65832 2.10151 -0.453206 -0.605007 0.425896
23 1 8.25668 1.41953 7.53582 0.163612 -0.656149 -0.964644
24 1 4.31025 6.30264 4.1123 1.32299 -0.636468 -0.721337
25 1 1.92534 0.854357 9.1127 0.813276 1.06309 -0.53939
26 1 2.43214 7.36109 7.45373 0.586968 1.11142 0.916955
27 1 7.52533 3.05332 3.87688 -0.562441 0.182232 -0.392803
28 1 4.94326 8.60452 8.88046 -0.792533 -0.38728 0.462314
29 1 7.16047 2.90274 5.41858 0.000556683 -0.974884 0.311106
30 1 3.46735 1.69945 8.86567 1.34813 0.380697 -0.75973
31 1 3.73572 7.91222 3.83461 0.00132378 -0.438397 -0.705336
32 1 5.04459 3.84331 4.25796 -0.27339 -0.387232 0.341445
33 1 3.29808 4.87034 2.30315 -0.933337 -0.0699822 1.74023
34 1 5.2866 3.08066 8.48421 -0.538661 0.247772 -0.0749134
35 1 3.67794 3.87489 2.05872 0.106061 -0.816271 1.45359
36 1 3.54189 0.532466 4.35763 -0.599806 0.729848 -0.0221113
37 1 6.82719 0.668298 7.37134 -0.580007 -0.641023 -0.349917
38 1 0.202394 5.82979 8.4548 -0.0752899 0.317615 1.09339
39 1 7.05256 0.112474 4.31699 -0.0403165 0.179567 -0.63146
40 1 9.12516 1.83086 7.70439 0.074364 -0.0996596 -1.29022
41 1 6.39862 8.09921 3.30325 -0.654946 -0.682081 1.17285
42 1 2.41689 6.79815 4.49556 0.255976 0.229097 -0.307313
43 1 8.83432 3.15009 8.44331 -0.760441 -0.878045 -0.300831
44 1 4.37416 6.90235 0.155824 1.83058 -0.972688 -0.7323
45 1 6.111 0.0391332 1.4792 0.108879 -0.173131 1.37857
46 1 5.8211 9.28622 4.65882 0.489592 -0.208421 -0.819623
47 1 8.90888 4.5174 7.53141 -0.138698 -0.785519 -0.254175
48 1 2.90362 2.70328 1.06712 -0.691894 0.197773 -0.146545
49 1 5.28225 2.10274 6.07863 0.439503 -0.150189 0.344629
50 1 5.92923 5.51861 3.25331 -0.605158 -0.685373 -1.51195
51 1 1.71398 6.30449 1.24645 -0.702941 -0.376148 0.278904
52 1 3.8393 8.32971 6.7724 -1.28309 -0.391655 0.13694
53 1 6.16816 3.79081 2.24972 0.815686 -1.25025 0.720522
54 1 7.61817 4.15276 4.67275 -0.927165 -0.0288969 -0.51312
55 1 4.8887 8.96655 3.37337 0.995903 0.788864 0.266705
56 1 0.425564 9.20756 3.89124 0.222463 -0.479633 -0.269372
57 1 7.8098 0.37621 7.28722 -1.34698 1.30948 -0.455316
58 1 0.288552 3.7997 2.80362 0.636084 -0.452491 0.89381
59 1 0.559293 7.32562 4.47724 0.904712 0.0430211 -0.868688
60 1 8.78193 9.27393 0.884184 -0.805026 -0.411068 -0.302865
61 1 9.37147 7.50185 2.55553 0.81203 -0.757879 0.568789
62 1 5.86689 3.80807 9.34035 -0.707457 0.53581 0.117346
63 1 0.00219267 8.87141 9.11442 -0.398721 -0.51863 -1.03276
64 1 2.70476 2.88871 7.42539 -1.57859 -0.285627 0.361402
65 1 5.32231 6.81413 1.91591 -0.388776 -0.162463 0.375397
66 1 2.40901 0.590999 0.71357 -1.11334 0.480557 -1.01729
67 1 3.91363 6.75996 2.03058 -2.39831 -0.681763 0.0936937
68 1 7.22985 6.86549 9.3674 0.312024 0.219738 0.599326
69 1 6.89583 1.87529 2.96481 -0.180228 0.395221 0.0601966
70 1 4.56768 2.5136 4.57938 0.714341 -0.520605 -0.688494
71 1 5.97911 4.50203 4.6448 0.107778 0.359555 -1.68732
72 1 0.499062 8.1105 2.15575 0.19509 -0.47699 -0.558562
73 1 7.33942 1.06614 0.184014 1.15009 1.88613 0.377643
74 1 7.86662 5.77077 8.26114 -0.868992 0.28545 -0.637155
75 1 6.90991 7.22203 1.72283 2.41821 0.221422 -0.0424038
76 1 2.41469 7.61445 4.61476 0.298892 0.580128 -0.788975
77 1 6.83518 4.43415 4.38829 0.327068 0.292603 -0.718241
78 1 2.78377 3.37331 0.324291 0.301587 -0.173197 -0.39233
79 1 3.38114 7.92477 6.15892 0.503019 0.297176 0.298096
80 1 4.78188 5.91157 8.58571 -0.445946 0.22377 1.31104
81 1 1.24871 9.35277 3.7635 0.487855 0.0529721 -0.506354
82 1 1.51752 1.07838 4.32864 -0.061991 -1.4775 0.17903
83 1 4.04643 7.75334 7.43875 -1.46716 0.251069 1.24377
84 1 7.34651 5.18211 5.69259 -0.270101 2.18006 -0.59743
85 1 4.21823 5.86289 1.30869 -0.441765 -0.237404 -0.165967
86 1 0.454605 4.35723 1.69341 -0.104683 0.178552 0.0237677
87 1 8.61277 7.26139 4.96259 -0.625734 -0.541421 0.324647
88 1 1.2463 1.70251 8.55806 0.95155 0.886214 1.03618
89 1 0.141993 1.22955 2.98783 -1.42377 0.273876 1.45482
90 1 7.42937 8.43524 5.91052 0.533216 -0.0570957 0.0647124
91 1 6.20222 2.26255 3.51784 1.04233 0.61568 -0.312423
92 1 7.21847 7.63214 7.8362 -0.302019 0.41682 -1.04915
93 1 8.69757 9.23879 2.71843 -0.30845 1.18899 1.01527
94 1 9.11177 0.443904 6.13217 -1.77591 -0.351753 -0.276126
95 1 4.08826 1.66036 8.17351 0.466342 0.63137 0.693825
96 1 4.67002 1.85595 8.87009 -0.404739 -0.203793 0.804081
97 1 3.58992 4.80057 8.9145 0.780647 0.512449 1.1891
98 1 8.24267 3.66066 4.39043 0.444005 0.208831 0.599701
99 1 7.70642 5.92184 2.23734 0.547309 -0.443127 -1.11049
100 1 1.88673 0.170688 6.92036 1.5218 0.566732 0.191488
101 1 7.36534 0.909922 4.87216 -1.102 1.46855 0.0640762
102 1 3.29565 8.97539 7.48711 0.0761563 -0.87269 1.17118
103 1 3.87128 7.23686 8.63677 0.30629 -1.15155 0.537797
104 1 5.36882 4.73553 7.13842 -0.0564842 -0.360038 0.876251
105 1 3.01682 7.63448 3.31872 0.251886 0.708419 -0.617726
106 1 5.44969 6.45717 8.89668 -0.798994 -0.063023 1.66082
107 1 2.4599 3.87454 5.78071 -0.464026 0.782464 1.3669
108 1 2.39376 3.6941 6.77971 -0.284595 0.661698 -0.0561175
109 1 3.62154 1.99115 1.8748 0.0996646 -0.294575 -0.58456
110 1 2.92191 3.67369 1.31233 1.16147 -0.334842 -0.760664
111 1 7.54949 2.07848 3.61463 0.791186 0.79323 -0.749983
112 1 1.87811 7.26783 5.45324 1.08328 0.80216 1.03866
113 1 6.74694 5.59485 3.24041 -0.672751 -0.138626 -0.70359
114 1 5.209 9.09469 2.32999 -0.597379 0.422575 -1.0538
115 1 5.79713 3.55299 0.702619 0.81626 -0.841935 -0.306992
116 1 5.51376 1.04756 7.50178 0.410398 0.33393 -0.13964
117 1 3.83843 7.1693 6.28588 0.606953 0.21311 -0.518118
118 1 9.37241 9.2057 1.53387 -0.404015 -0.0689374 -1.1462
119 1 7.03025 4.15203 0.180468 -0.127995 -1.7578 -0.246485
120 1 6.91469 7.83381 5.23775 -1.13316 -1.18913 0.217494
121 1 2.91341 6.94366 8.87259 1.29783 -0.0625187 -0.32021
122 1 8.6956 0.0804585 6.96155 -0.435819 -0.977405 0.313877
123 1 5.54906 4.94623 5.54862 -1.49986 0.150752 0.421897
124 1 0.406508 2.9207 2.27673 1.07611 -0.946193 -0.664051
125 1 4.60755 6.5857 4.91889 0.113499 0.0462321 0.215372
126 1 8.45759 1.64973 3.36724 -0.915571 0.599807 -0.267415
127 1 3.47117 2.57064 8.47197 -0.280193 -0.316836 1.16498
128 1 8.3223 4.77832 8.57187 0.958029 -0.145361 0.550946
129 1 6.70651 8.05619 1.29429 -0.458384 -1.32933 -0.156663
130 1 0.182547 1.85666 4.45451 -0.776351 1.24681 -1.20723
131 1 8.33903 0.932364 6.58808 -0.692622 0.976357 -0.833411
132 1 2.47045 0.842576 2.84826 1.78022 -0.0854319 -0.415632
133 1 6.98539 6.04501 1.46517 -1.05915 -0.551106 -0.209186
134 1 7.36999 4.53728 2.93416 0.0263283 0.567538 0.638005
135 1 3.87939 1.24616 3.61505 0.544885 1.07391 0.614163
136 1 1.22895 3.51505 5.05912 -0.696939 -0.19746 0.578383
137 1 2.66426 4.04569 2.23374 -0.230361 -0.212185 0.85107
138 1 1.9649 6.26702 5.04838 -0.84377 -0.139952 0.355622
139 1 8.58471 0.579431 7.75722 -0.577336 -0.0901948 0.0588013
140 1 6.68928 6.0523 0.330858 -1.79297 -0.334957 1.12884
141 1 6.00559 7.31448 1.23928 0.309935 -0.741628 0.786382
142 1 7.91596 1.34131 5.84901 -0.37117 0.0437339 0.678227
143 1 5.65787 4.19393 3.64258 -0.517448 0.0629572 -1.22672
144 1 8.49448 1.89694 9.18335 0.79183 -0.53898 0.00670728
145 1 1.79192 7.9461 1.22825 -0.712394 1.48903 0.371876
146 1 4.26223 4.40367 2.57898 -0.219214 -0.181391 -1.20242
147 1 0.078947 6.97169 0.512579 1.16084 0.050375 -0.478757
148 1 3.23602 4.5613 7.23498 1.09859 0.64561 -0.606485
149 1 1.66773 5.73983 7.18098 0.330688 -0.7291 0.837217
150 1 1.01241 5.34281 5.35052 -1.05331 0.253132 0.563715
151 1 1.81394 8.58218 4.09067 1.21447 0.141408 -1.13503
152 1 4.84932 1.24424 0.2214 -0.182169 -0.730906 0.665546
153 1 6.53153 4.69598 3.60689 -1.89528 0.398545 0.845126
154 1 1.96892 2.94604 3.26117 0.385085 1.46931 -0.237646
155 1 4.53054 3.53088 6.8302 0.387685 -0.0593209 0.721634
156 1 6.35648 4.20016 8.63426 -0.16024 -0.501529 -0.597166
157 1 6.709 0.336827 8.20704 -1.85226 1.80698 0.280178
158 1 1.75249 6.3053 3.97373 -0.360837 0.61795 -1.35783
159 1 4.77769 9.09013 5.83276 0.734 -1.12205 1.30783
160 1 4.1939 8.70751 7.57401 -0.152062 0.108688 -0.577319
161 1 5.84629 8.63553 7.23879 -1.2084 -0.260097 0.326157
162 1 1.42811 7.88686 4.99067 -2.35123 0.701356 0.576108
163 1 4.70341 5.5371 4.68164 0.788117 0.128277 0.00403912
164 1 9.15986 4.8311 9.23274 -0.810722 0.536983 0.516468
165 1 8.7295 8.19219 8.91605 -1.70846 0.197833 -0.748026
166 1 2.78176 5.01521 1.27262 0.123223 -1.03471 -0.502149
167 1 2.35912 5.64159 5.71379 0.468856 -0.836566 0.742572
168 1 1.2302 2.78516 7.99535 -1.04549 -0.528515 -0.931778
169 1 4.82553 3.56955 0.942275 0.936381 0.475571 -0.941247
170 1 5.00835 1.81911 2.80848 0.107639 -0.885915 0.515034
171 1 7.56099 1.26206 3.20957 -0.867181 -0.321969 -0.928493
172 1 6.38503 0.901557 4.85867 0.0534933 -1.01794 0.0639104
173 1 8.62191 2.76662 4.83741 -0.487669 0.320358 -0.139087
174 1 0.32194 0.69375 0.851372 -1.15849 1.73978 0.510184
175 1 8.06806 1.03763 4.33726 -0.0694964 0.570023 0.0919504
176 1 8.57101 5.58329 7.81427 0.644588 0.0895025 -1.01556
177 1 8.94916 8.64751 6.34291 -0.809956 -0.281112 -0.327971
178 1 5.27942 7.37725 0.260873 -0.287604 -1.0135 1.38587
179 1 7.24049 0.567575 2.5599 -0.0354922 -0.520816 0.405047
180 1 8.01583 9.31953 5.02266 0.0394167 0.354634 -0.894132
181 1 1.55142 8.77397 1.45265 -0.632107 0.663818 -0.768541
182 1 0.823912 1.67755 3.51815 1.21228 1.13377 0.344056
183 1 0.59508 4.4594 6.60842 -0.577112 -1.11121 1.40232
184 1 2.0447 4.12487 3.71476 1.36799 -0.43458 0.194441
185 1 6.46177 5.17525 1.41881 0.292939 0.0210055 0.140886
186 1 6.78484 8.95252 0.766616 2.70081 -1.24248 0.161246
187 1 4.05018 4.03796 0.785217 0.728829 -0.204496 -1.00077
188 1 3.7078 9.11611 6.24058 -0.910717 0.236791 -0.248018
189 1 7.27449 1.79363 5.42411 -0.901327 -0.637754 -0.735434
190 1 4.00416 3.34343 2.78384 -0.401696 0.322058 -0.560421
191 1 9.20462 2.11135 0.443359 0.382625 -0.341109 -0.64047
192 1 3.1433 7.57181 6.8712 -0.317719 1.22244 0.0649187
193 1 5.0927 2.16148 0.254663 1.12934 -0.148095 0.158618
194 1 3.77529 7.05447 2.87952 0.156134 -0.713449 -0.0374909
195 1 2.87137 3.94434 8.83687 -0.300613 0.569591 0.57409
196 1 6.44553 0.3392 6.51145 0.628498 -0.0068949 0.757269
197 1 7.68845 6.21661 6.90416 1.20065 0.770856 0.370282
198 1 6.70103 3.3258 0.205208 0.859103 -0.114383 1.33734
199 1 9.19632 2.2618 5.17875 -0.531179 0.371958 -0.942861
200 1 0.810247 2.38545 5.29242 0.609689 -0.290734 0.852009
201 1 2.11982 5.62528 7.99076 -0.0295411 -0.405436 0.521695
202 1 7.23861 4.96835 6.89821 -0.374591 -0.930757 0.486153
203 1 8.91268 4.59297 5.77813 0.346631 -0.601132 0.655276
204 1 6.8222 3.66657 3.91017 -0.411156 -0.471274 -0.19182
205 1 2.76664 4.62783 3.03728 -0.735899 -0.153286 -0.163138
206 1 1.39051 6.87539 4.74063 -0.138593 0.496609 0.488769
207 1 3.36256 6.19481 7.8329 -1.08075 -0.13258 1.28988
208 1 0.801175 2.17862 9.12911 -0.330428 0.827005 -0.30264
209 1 3.21869 3.636 5.31027 0.347594 -0.331744 0.815873
210 1 2.81203 1.43644 4.32987 -0.200586 0.926983 0.313754
211 1 5.55662 5.66189 6.53872 -0.50768 0.915486 -0.00652472
212 1 5.13557 2.69731 7.684 0.0393817 0.242717 0.402471
213 1 6.88605 0.532373 1.19063 0.54591 -1.56093 1.35448
214 1 5.83523 7.44265 2.79686 0.0896624 -0.157694 0.356221
215 1 6.0723 4.78632 9.28076 -0.750285 -0.869757 -0.116442
216 1 1.29517 4.90079 7.26389 0.0543143 0.355751 0.307392
217 1 5.28818 3.1658 3.54375 1.68161 -0.811755 0.235321
218 1 2.67162 2.80897 8.91132 1.82999 -0.825151 -0.709971
219 1 4.67899 4.92472 8.22663 -0.59848 -0.0638802 -0.398056
220 1 6.00108 6.48654 1.40364 -1.61999 1.01519 1.43932
221 1 3.22102 8.05317 4.58708 0.167078 0.637674 0.831886
222 1 6.67551 8.21223 7.39151 -0.811789 0.421507 0.795093
223 1 9.10419 2.74014 7.72956 0.48258 0.835327 -0.239187
224 1 5.36618 4.01172 2.5493 -0.0464669 0.262201 -1.8784
225 1 7.32629 1.96971 7.24369 0.278979 -0.0106506 0.208885
226 1 8.87449 1.3293 5.96258 -0.844913 -0.406222 -0.156726
227 1 6.89677 6.66914 6.26256 -0.974553 -0.708419 -0.211293
228 1 6.68892 2.53333 7.15615 0.171898 -1.61345 0.540032
229 1 5.33971 8.3069 4.60739 -0.24129 0.0695838 -0.685589
230 1 0.105076 9.03018 2.39633 -0.670952 -0.0514105 -0.805243
231 1 8.80401 8.28395 0.422603 0.906695 0.341318 0.445361
232 1 6.04917 6.8035 0.278196 -0.323184 -0.526615 -0.440752
233 1 4.93079 3.66017 6.08804 -0.367296 -0.733896 0.68201
234 1 5.27285 0.455307 8.10534 0.335434 -1.09942 1.55095
235 1 8.80674 1.30287 2.33296 -0.230464 0.824901 0.502059
236 1 1.20709 4.57145 0.81458 -0.16234 0.885427 -0.0450307
237 1 6.10313 8.64291 5.63131 0.370053 -0.679218 -0.641806
238 1 0.390829 2.22669 6.02803 0.999368 -1.31118 -0.622592
239 1 0.850151 8.4455 3.16754 1.13742 0.415354 -0.491809
240 1 0.29771 4.51682 4.98195 -0.710543 0.010243 -0.86069
241 1 2.07581 3.03921 6.3202 -1.35757 -1.50751 -0.515999
242 1 8.93476 4.05683 8.45583 -0.373185 -0.106353 0.0246874
243 1 9.28201 3.83804 4.56075 -0.14813 -0.0347216 0.570738
244 1 4.10048 1.27495 1.0123 -0.553234 0.189831 -1.43102
245 1 5.1836 4.89272 3.29594 -0.888927 -1.06072 -0.957332
246 1 4.66431 1.42718 6.15666 0.114928 0.37396 0.0222564
247 1 5.95941 1.29914 6.02352 -0.0774771 0.759413 -0.136286
248 1 9.01752 4.59941 2.45855 -0.0762185 0.791549 1.47861
249 1 5.64571 0.580604 3.03359 0.152387 0.834916 -0.54197
250 1 7.24802 3.81034 5.50887 0.942785 -1.30152 0.0383507
251 1 7.89317 2.52705 5.75914 -0.118825 -0.619332 -0.515225
252 1 0.202887 1.4654 2.0556 0.251857 0.0310748 0.467847
253 1 6.01084 5.65369 7.2961 0.297459 0.164441 -0.495442
254 1 9.20366 7.75767 6.76325 0.75906 0.862817 0.404589
255 1 9.27813 5.91755 0.0758862 -0.559603 -0.580178 -0.410246
256 1 0.601792 2.57565 3.97945 -0.569385 -0.848201 1.00515
257 1 3.50291 2.63473 2.78136 0.398849 -0.614406 0.744398
258 1 2.98294 6.59669 2.0709 -0.415806 0.296253 0.32645
259 1 0.222126 3.48618 8.08221 1.03537 1.44341 0.962961
260 1 3.58187 2.92932 0.593994 0.506857 -0.0720127 -1.48885
261 1 6.33547 8.42725 -0.00499799 0.542514 0.286699 -0.902453
262 1 3.11629 4.47534 4.07586 0.513597 0.569686 -1.26595
263 1 5.39359 0.550604 1.95226 -0.108893 0.74279 1.22793
264 1 7.27834 0.848136 8.65488 -0.249771 -0.186012 -0.06094
265 1 3.81089 6.02191 4.87077 0.561088 -1.30939 -0.360382
266 1 5.05481 7.427 4.867 -0.838007 -0.174738 0.654594
267 1 2.67915 8.34874 2.82599 0.794946 -0.66522 -0.0857177
268 1 2.48392 1.64988 0.570996 -0.827358 0.622342 -0.239666
269 1 8.86973 3.58929 3.66872 -0.833574 0.586372 0.0267329
270 1 8.67456 0.891486 4.88042 1.03577 0.222344 0.700442
271 1 5.81652 1.50498 3.42976 0.16822 0.177083 1.2085
272 1 0.479673 7.08924 7.07033 0.951827 0.195255 -0.256344
273 1 5.55244 8.08331 3.7766 0.888631 -0.57182 -0.0500337
274 1 5.86362 8.60547 1.44408 0.571171 1.44484 -0.467397
275 1 2.94062 1.30557 5.51873 0.642652 0.338165 0.353228
276 1 8.39422 2.17197 8.32722 0.338312 0.492386 -0.428141
277 1 8.69319 0.593048 1.4249 -0.858442 0.0396566 0.0568638
278 1 1.50469 4.952 3.81084 0.727925 0.95058 -0.775133
279 1 8.61586 2.76582 0.72538 -0.600402 -1.60125 0.114785
280 1 1.7494 4.80296 9.33146 0.976214 0.575464 -1.21334
281 1 2.56436 5.79813 6.52968 0.0167565 0.257405 -1.12236
282 1 0.0978923 6.13805 6.56308 -0.566244 0.431135 0.187773
283 1 4.50991 8.8585 0.888845 -0.515726 -0.237534 -0.602928
284 1 8.05634 4.09361 1.05525 -1.38076 -0.290516 -0.773777
285 1 6.54181 2.75059 2.5639 -0.24412 0.528573 0.979253
286 1 1.04986 1.17828 5.27341 0.558261 0.66395 -0.308959
287 1 1.51936 4.34446 2.11118 -0.145419 0.658628 -0.715957
288 1 8.16467 1.58517 0.657949 -0.0284982 0.632458 -1.87341
289 1 2.09502 6.78682 1.79752 -0.0361042 -0.622502 -0.319673
290 1 0.257047 5.80803 3.97041 0.317589 -0.426129 -1.57339
291 1 0.23365 7.80431 0.780232 -0.628786 0.211408 -0.305901
292 1 8.35926 1.99472 2.4161 0.275685 -0.344113 1.45247
293 1 7.76557 6.50908 1.35754 -0.313788 0.731559 0.588773
294 1 8.09333 0.561057 0.802666 0.41866 -0.0385392 -0.0919752
295 1 2.30123 2.55365 4.20364 -0.818471 -0.321574 -0.21462
296 1 7.08205 8.72217 4.87545 -0.331327 0.0957895 0.175471
297 1 5.31498 1.89731 1.85905 -0.151842 0.672639 -0.381137
298 1 2.47727 4.36496 4.76362 -0.324616 0.570401 -0.871721
299 1 1.97213 8.12529 5.93382 0.953578 0.74027 0.213581
300 1 4.22307 4.49401 6.75467 0.394674 0.141454 0.542363
301 1 7.37758 4.95297 8.50932 0.655447 -0.612152 -0.246839
302 1 2.01384 0.419943 3.55563 0.0585672 -0.359902 -0.84057
303 1 9.33019 1.59078 1.17561 0.00150689 0.36022 1.8053
304 1 7.09748 -0.0190511 5.64848 0.282506 -2.41537 0.128199
305 1 7.98015 1.23888 1.68772 -0.303477 -1.00149 0.409156
306 1 4.10939 2.99743 1.31721 0.474451 -0.335657 -0.790013
307 1 9.09005 2.76277 3.89617 -0.24506 -0.500051 0.958976
308 1 0.097502 0.396777 8.71839 0.120692 -0.8964 1.38644
309 1 3.31179 9.1751 3.21686 -0.661288 0.117348 0.05025
310 1 2.35451 6.46889 8.05438 0.612083 0.236044 0.644342
311 1 6.51647 6.78076 5.38958 1.16239 0.673063 0.356826
312 1 7.32277 9.17882 6.59664 0.474907 -0.377766 -0.938541
313 1 6.0753 2.19861 0.209957 -0.445001 0.533877 -0.606814
314 1 5.25697 0.432229 0.399501 0.275348 -0.185234 -0.795209
315 1 9.04061 1.07108 0.143115 0.0820868 -0.604693 1.0561
316 1 0.88158 5.9555 4.61311 -0.225558 -0.124026 0.705175
317 1 3.04605 0.966176 3.55316 0.395375 -0.855439 -0.949177
318 1 5.45343 8.91095 0.531369 0.0167641 -0.592621 0.226326
319 1 8.87717 0.0980441 4.14647 -1.11704 -0.12019 -0.066953
320 1 2.7349 5.87978 2.6288 -0.58607 -0.208452 -0.935823
321 1 3.51565 1.18334 7.74986 1.11329 0.423785 0.943104
322 1 2.10941 3.12697 8.26888 -0.423611 0.937569 0.489845
323 1 4.03369 2.98264 5.98728 0.261813 0.619499 -0.0101496
324 1 7.26614 6.49346 2.87794 0.334661 -0.989375 0.596692
325 1 1.1797 7.51853 8.88926 0.920849 -0.764314 1.11391
326 1 9.07806 8.15004 5.38729 -0.238719 0.460468 -0.525618
327 1 1.65894 0.304219 1.42033 0.420963 -0.498067 0.229373
328 1 7.97642 5.92747 3.95753 0.28795 0.259135 0.204089
329 1 4.53723 2.19345 0.922553 -0.116924 0.491202 -0.58314
330 1 1.19348 8.57737 0.584438 -1.46931 0.16735 -0.782545
331 1 7.55673 6.75327 5.30108 -0.187408 -0.939849 0.124123
332 1 6.83473 5.27709 7.62363 0.588993 -0.483838 0.27548
333 1 4.2807 3.28811 4.238 1.42521 1.09961 0.194377
334 1 1.1444 6.31491 8.79022 0.950613 0.896723 -0.452833
335 1 3.69683 4.49871 5.80727 0.183908 -0.251223 -0.621898
336 1 3.77971 4.87093 0.472807 0.650691 0.437548 -0.826874
337 1 4.61868 7.07029 1.48439 0.820818 0.123808 -0.687921
338 1 6.49222 6.63274 2.21368 -0.934782 -0.80592 -0.119644
339 1 8.69054 7.47843 3.18485 1.32037 -0.772571 1.08992
340 1 6.78079 5.92588 5.63216 1.1163 0.841786 1.1706
341 1 4.87933 1.33685 3.49339 0.162818 -0.418771 -0.445674
342 1 8.48322 5.41751 1.00182 -0.664613 -0.526214 -0.693641
343 1 8.63656 1.97509 4.33543 0.289725 -0.246804 0.761188
344 1 6.48392 4.05043 3.04509 -0.633544 1.29245 -1.081
345 1 7.9408 6.16103 4.7859 0.327234 0.637826 1.37661
346 1 5.49393 1.13893 4.53273 0.203469 -0.554666 -0.302171
347 1 9.12774 3.34808 6.30959 -0.762337 0.586192 -0.200146
348 1 5.12656 0.410365 4.92506 0.446475 -1.23727 1.08235
349 1 5.97648 0.198255 5.48313 0.468275 1.14213 -0.145459
350 1 0.689803 1.71443 6.98035 0.889125 -1.28508 0.849033
351 1 6.55239 2.05506 1.37941 -1.14628 1.21077 -0.589175
352 1 1.95651 3.53595 4.54165 1.20766 -0.328882 -0.0654683
353 1 1.75619 2.49361 5.66078 -2.50454 0.496942 -0.362744
354 1 1.11155 4.11456 8.74641 0.875039 -1.8005 -0.532008
355 1 0.991471 -0.0237002 6.60852 0.51468 -0.77583 1.23458
356 1 1.61725 2.78442 4.77076 0.324776 -0.34723 1.45145
357 1 0.773121 5.40884 6.69697 0.061644 0.434751 -1.27375
358 1 4.2211 7.32162 4.62345 0.587538 -1.15706 -0.436922
359 1 8.42321 2.96378 6.87154 -0.132831 1.27012 0.146254
360 1 6.70796 7.67533 8.75692 1.01872 -0.274319 0.258957
361 1 3.69579 0.709956 5.22653 0.495492 -0.351944 -0.0877551
362 1 7.94675 0.543077 9.35559 -0.907909 -0.197604 0.243804
363 1 2.16333 7.7907 0.303556 -0.41041 0.094123 0.789729
364 1 4.07266 2.2363 3.38636 -1.08308 -0.63536 -0.323498
365 1 4.38049 2.76106 0.284562 0.686724 0.18553 -0.706692
366 1 5.27274 2.65351 6.80924 0.00892742 -0.287229 -0.910503
367 1 7.07783 4.49419 1.22819 0.724224 -1.12642 -0.0416434
368 1 7.96417 7.93897 5.40357 0.448699 -0.340408 1.06558
369 1 9.03529 2.95565 1.83131 1.56315 0.981122 -1.53279
370 1 1.41543 5.37165 2.14722 0.465527 1.00676 0.757365
371 1 2.95203 2.13123 4.99792 0.447632 0.852461 -0.464684
372 1 2.0896 3.30658 1.82849 -0.0499081 -0.236472 1.19845
373 1 1.61687 2.42152 9.04644 0.412534 -1.0667 0.539647
374 1 5.54561 2.02796 5.12553 -0.170329 0.961449 -0.63841
375 1 3.04218 4.28819 6.45633 -0.738534 -0.38936 -0.301821
376 1 5.07218 4.73376 4.20345 0.08208 -1.41606 -0.50034
377 1 6.55785 1.54495 7.45533 -0.48874 0.0485955 -0.0759611
378 1 2.91505 2.35722 0.219242 0.998219 -0.187063 0.214548
379 1 7.74011 4.27132 6.88485 -0.0792666 0.24671 -0.328828
380 1 8.57982 8.64234 4.68423 1.30376 0.0304746 -1.19525
381 1 3.85462 0.836049 0.278371 -0.976722 0.935277 -1.09654
382 1 2.40088 1.81867 9.06376 -0.529546 -0.390385 0.000436197
383 1 1.92838 5.80945 8.95565 -0.301106 0.217872 0.292853
384 1 4.97157 3.16957 2.48924 -0.861425 1.17372 0.242852
385 1 0.936115 0.426971 4.65091 -0.787152 1.21392 1.06474
386 1 2.59754 0.684421 7.68988 0.316704 -1.29239 0.504937
387 1 4.35374 3.04244 8.64517 0.153861 2.26046e-05 -0.445824
388 1 2.28129 4.1994 0.295787 -0.176922 0.143767 0.578322
389 1 8.52962 8.30316 7.12219 -0.604217 -0.711676 -0.48514
390 1 9.28439 1.2212 6.9853 1.39527 -0.310301 1.11874
391 1 7.24865 0.164903 0.419765 -0.0776766 0.394 0.478889
392 1 0.516508 0.846121 3.86169 0.911102 2.00221 0.433711
393 1 4.97852 2.90804 5.62583 -1.00689 0.345862 -0.667319
394 1 0.440769 6.26621 7.3304 -0.853483 0.302345 0.575237
395 1 1.83271 8.30205 3.21842 0.0840443 -0.684446 -0.244044
396 1 0.517907 1.50975 0.355119 0.50442 2.27787 0.457197
397 1 3.47307 2.29935 6.64824 -0.317829 -1.36739 1.00835
398 1 0.547713 2.63723 7.21274 -0.668188 0.00577238 1.57376
399 1 6.4048 2.85711 0.967773 1.01634 0.429287 -0.819168
400 1 5.57116 6.81205 5.27654 -0.181744 -0.583192 -0.158436
401 1 3.62473 5.80215 7.09079 -0.626381 -0.825973 -0.344758
402 1 8.75737 2.47899 6.03226 -1.0681 -1.39522 -1.39857
403 1 4.57859 6.75436 8.51809 -0.330218 0.00309758 0.619428
404 1 5.3374 5.8739 5.4898 -0.432733 -0.333561 -1.35257
405 1 4.70438 0.610835 2.85229 -0.321683 0.0800442 0.0914323
406 1 5.63125 5.42087 4.54634 0.297757 -1.30261 -0.0387427
407 1 8.72269 3.59452 2.72809 -0.347375 0.135808 0.107117
408 1 0.596734 3.23767 6.51239 -0.043578 1.0682 -0.533962
409 1 7.84266 5.17842 7.54751 1.00202 -0.0690477 -0.0144917
410 1 7.69673 7.18275 3.29751 -0.124952 -0.0138299 -0.451341
411 1 5.1972 4.32546 0.429089 0.196424 0.878405 -0.331163
412 1 6.93939 1.22219 1.96208 0.426863 -0.44916 0.140841
413 1 7.58159 3.27554 7.57225 0.15341 0.17986 -0.542349
414 1 5.02163 4.98499 6.26194 0.108453 0.954931 -0.0165824
415 1 6.7556 0.977422 5.68628 -0.0771933 0.283905 0.647453
416 1 5.796 8.14666 0.703268 0.976909 -0.431621 0.267565
417 1 3.47117 7.61114 0.181701 0.747193 -0.880129 1.45666
418 1 4.54795 8.94698 6.72217 1.19247 1.19709 0.997075
419 1 0.428264 8.86389 7.14526 0.340887 -1.61276 -1.41354
420 1 1.21478 6.39737 5.53003 -0.274704 0.587264 -0.91516
421 1 7.86072 5.80249 0.603812 0.361898 -0.168952 -0.0203048
422 1 8.59491 5.49485 4.5284 -0.0927234 -0.998885 1.01983
423 1 9.3577 5.39956 6.96591 -0.86761 1.13482 0.643061
424 1 5.67106 5.41086 1.04927 -0.138669 -1.18988 -0.169872
425 1 4.43485 0.835339 4.4964 -0.042489 0.790154 -1.02591
426 1 7.7655 5.18234 4.79301 -0.375517 -0.0507208 -0.302654
427 1 7.00133 5.76702 4.76989 0.863434 0.49655 -0.538612
428 1 1.73055 6.18062 2.48767 -1.17366 0.590621 0.555034
429 1 5.07839 4.26775 8.70837 -0.778395 -0.143513 -0.239787
430 1 5.45095 1.46386 6.69897 -0.940956 -0.649912 -0.775215
431 1 0.893786 2.09149 2.61756 0.529746 0.123003 -0.503966
432 1 5.21476 0.407318 4.00589 -0.169324 -0.685311 0.314166
433 1 8.01922 8.94204 0.549754 -1.57842 1.01287 -1.10097
434 1 0.0469962 0.909987 4.53376 -0.671366 0.437108 -1.19172
435 1 5.88258 2.959 1.88294 -1.20255 -0.508515 -0.479713
436 1 0.686455 0.350873 5.59759 0.430494 -0.84508 0.604413
437 1 4.96018 5.57592 2.66717 -0.132233 0.105339 0.018328
438 1 2.51827 2.20012 5.85922 0.289686 -1.04948 -0.855918
439 1 8.25343 7.99246 6.21875 0.0893035 -0.227312 -0.691492
440 1 6.40409 2.3186 7.98723 1.14888 -1.06668 -0.38862
441 1 2.937 1.62946 6.44554 -1.82084 -0.199943 0.618737
442 1 7.80112 4.92046 2.30571 0.35395 0.923728 -0.78916
443 1 8.75826 0.103707 0.0186295 -0.617756 0.232257 -0.298933
444 1 4.21576 9.41873 9.30136 0.308682 1.56918 -0.526933
445 1 1.90702 5.50978 3.10494 1.06256 -1.09301 1.91374
446 1 0.984138 1.17305 2.32189 -1.07426 -0.90985 -1.3279
447 1 5.12766 0.100305 8.87988 -0.633083 1.04069 -0.443415
448 1 1.60629 1.59657 6.77395 0.13124 -0.280229 0.776821
449 1 7.12342 3.54174 2.78312 -0.523703 -0.0958358 -0.758157
450 1 3.45151 5.5942 0.841186 0.535878 -0.750566 -0.644091
451 1 4.00362 9.27303 2.65954 -0.313931 0.76855 0.385526
452 1 3.65072 7.66345 5.39856 0.378708 -0.125375 0.250691
453 1 4.43275 6.0749 2.13039 0.75643 1.50427 0.437293
454 1 6.30682 2.60657 5.34968 0.0609819 -0.242397 -0.616183
455 1 3.62964 6.10838 6.17561 0.0328913 -0.975896 0.986756
456 1 -0.0195012 5.21453 1.74992 -1.46326 0.329655 0.226767
457 1 0.435088 6.55148 4.98646 0.946719 0.735632 -0.655394
458 1 0.431381 4.50423 8.40993 0.291771 -0.10118 0.0593105
459 1 3.99415 9.05863 1.52227 0.381006 0.823248 0.518885
460 1 0.871773 6.59246 3.85106 -1.13139 1.03875 -0.126032
461 1 2.07258 1.02797 5.12136 -0.336313 1.5696 -0.701288
462 1 2.90654 5.45168 7.56202 0.0221883 1.18014 0.0106019
463 1 4.60701 6.67424 6.90741 -0.318505 -0.305894 0.675101
464 1 0.180367 9.05289 0.568105 0.705018 -0.663441 -0.637427
465 1 5.67358 2.45624 4.42198 -0.257486 0.297337 1.06733
466 1 1.15701 7.56003 3.76866 -0.0268144 -0.9524 -0.423695
467 1 6.02791 7.67087 5.3447 -0.0878783 -1.16164 -1.2975
468 1 3.2401 4.17293 0.356334 0.490746 -0.374177 -0.359987
469 1 2.43763 -0.0460585 2.91031 0.809801 -1.88187 -0.0527231
470 1 9.33765 6.3079 2.80764 0.670703 -0.773197 0.506652
471 1 4.29276 8.4192 0.147665 0.480159 0.354208 0.767765
472 1 2.3363 9.08876 5.56586 0.197844 -1.05615 0.104487
473 1 6.8428 5.79469 6.78673 0.31981 0.53539 1.17164
474 1 5.99053 8.6214 2.46736 -0.586373 1.45738 -1.09558
475 1 2.11129 6.66387 6.98935 0.709937 0.565256 0.10869
476 1 6.19542 6.4168 6.79612 -0.334657 -0.202473 -0.0710425
477 1 5.93588 9.06196 3.53779 -0.208717 -0.301052 0.447072
478 1 6.34 7.31661 6.89777 -0.931679 0.224638 0.346198
479 1 3.78952 0.288892 7.73313 0.66573 1.43269 -0.359523
480 1 1.2673 6.6285 6.60007 0.81362 0.408038 -1.34106
481 1 0.957637 5.54379 1.25323 -0.0457838 -1.01843 -0.279177
482 1 6.1133 6.13989 4.89135 1.57034 0.452751 -0.523373
483 1 7.26852 5.52425 9.19452 0.00675024 1.08268 -0.0722395
484 1 0.630204 4.36511 3.77159 -0.791806 -0.97787 -0.0275327
485 1 4.41886 4.69354 9.33242 0.913213 -1.26666 0.0456788
486 1 7.98485 3.2605 5.18317 -0.00588943 -0.978086 0.272725
487 1 1.94792 2.58609 1.24749 -1.39275 -1.03434 1.14803
488 1 9.168 6.66746 3.60916 -1.45616 0.172697 0.0694452
489 1 7.41197 0.569496 6.24501 0.720966 -0.377248 -0.771872
490 1 1.51421 7.15497 0.413778 -0.0184866 -0.141615 1.09061
491 1 8.41342 9.01049 7.81828 0.731426 0.0753904 -0.0793525
492 1 4.00929 6.79604 7.82428 -0.676166 -0.258702 -0.565559
493 1 5.16707 6.08759 0.294635 -0.368926 0.603497 -1.10388
494 1 4.79074 8.19361 7.97991 -0.773113 0.432028 -0.762481
495 1 6.02101 5.77967 9.07904 -0.3535 -0.937733 -0.536279
496 1 0.416739 8.88339 5.93541 0.189883 0.394317 -0.808467
497 1 2.66407 8.84197 0.9612 -0.966599 -0.935346 0.488806
498 1 1.72038 5.38075 0.533785 0.551218 0.986276 1.48837
499 1 1.03892 3.39687 7.27298 0.658656 -0.047304 -0.556769
500 1 7.03759 7.40483 2.74441 -0.573939 -0.164918 0.612664
501 1 5.32969 5.49785 7.92982 0.156799 -0.677642 0.0840978
502 1 8.20771 2.96077 2.30053 0.648944 -0.426082 0.0718353
503 1 0.464452 0.837096 6.38684 0.721567 0.893443 0.120754
504 1 7.53797 5.2042 1.38696 -1.50129 0.365989 0.109464
505 1 3.37579 0.710192 8.64927 -0.247668 -1.43496 1.03767
506 1 5.20736 9.32353 1.25085 -1.17381 -0.29059 0.148229
507 1 7.67913 2.08158 1.87927 0.511914 -0.178179 0.974914
508 1 6.77523 8.51667 6.52059 -0.655125 -0.487152 0.879978
509 1 0.815854 6.51516 0.282585 -0.41533 -0.650725 -1.13891
510 1 3.43482 3.58775 7.19337 -0.359778 0.520658 0.40699
511 1 1.61969 2.52121 7.22391 -0.394075 -0.0123179 -0.105912
512 1 3.53432 6.2257 2.76927 0.463751 0.669561 -0.0798742
513 1 6.55326 3.57234 7.11791 1.24988 0.654359 0.858441
514 1 4.67943 4.05287 3.22694 0.262375 -0.332485 -0.649238