ITEM: TIMESTEP
204850000
ITEM: NUMBER OF ATOMS
1000
ITEM: BOX BOUNDS pp pp pp
0.0000000000000000e+00 9.4000000000000004e+00
0.0000000000000000e+00 9.4000000000000004e+00
0.0000000000000000e+00 9.4000000000000004e+00
ITEM: ATOMS id type x y z vx vy vz
1 1 4.63739 5.49408 0.657573 -0.398543 0.504651 0.336609
2 1 6.12985 4.16362 6.51978 0.506211 0.411956 -0.539503
3 1 2.9168 7.83742 2.76097 -0.382334 1.1194 0.190933
4 1 4.85301 6.67918 4.63635 -0.643964 -0.298238 0.097387
5 1 0.242715 1.69735 3.46239 1.08241 -0.443959 -1.01453
6 1 1.92501 5.10245 4.82332 -0.243713 1.09624 -1.24206
7 1 3.62667 6.39115 4.50913 -0.489266 -1.09334 0.800445
8 1 2.46004 9.38055 3.72206 -0.133293 -0.0217152 -0.96342
9 1 6.4436 0.425527 9.28141 0.00956389 0.545428 0.0549458
10 1 5.73662 1.388 3.93251 1.39357 -0.377507 0.281959
11 1 8.35922 8.22725 4.01738 0.962825 -0.577667 0.529166
12 1 0.0492061 6.35403 0.573844 0.4468 -1.02738 1.24883
13 1 3.49073 4.76639 3.94229 0.861374 -0.364803 0.240395
14 1 7.98389 4.8388 9.09391 0.491694 1.38644 -0.628304
15 1 0.507611 0.0806074 8.85664 -0.0789227 -1.61676 -1.04149
16 1 5.10834 1.00541 4.45646 0.79426 0.0746888 -0.385254
17 1 0.610805 5.82049 5.3723 1.78186 0.169088 1.28155
18 1 1.51773 7.57103 7.9979 0.984358 0.163235 -0.350948
19 1 6.02772 8.44941 2.98313 -1.22121 -0.286776 1.11559
20 1 5.04057 4.47318 7.82535 -0.25025 0.786684 -0.432662
21 1 1.26368 3.90125 5.59076 1.11043 -1.16062 0.37426
22 1 4.37829 7.81243 7.31424 -0.550822 0.0457264 -0.0821097
23 1 4.56025 5.30602 6.23588 -1.19465 -0.778031 -0.403078
24 1 8.27297 8.03318 3.10139 1.15352 0.137128 0.196836
25 1 5.44814 2.37434 2.16746 -0.700881 -1.34379 1.98121
26 1 8.13554 1.25 9.44122 -1.21828 -0.491283 1.42342
27 1 4.32396 1.10196 4.96148 0.299742 0.0945656 1.70005
28 1 7.54868 1.74252 8.97089 -0.769224 -1.54919 0.298297
29 1 5.57866 0.524375 2.46618 -0.755943 0.32539 -0.738186
30 1 6.94614 9.12784 8.67335 0.918155 -1.25665 0.558086
31 1 4.98208 5.48027 7.16804 -0.787232 -0.288132 0.255901
32 1 7.58457 9.25022 0.946594 0.469735 -0.83209 0.113369
33 1 3.08995 8.36204 8.92266 -0.906611 0.121767 -0.162217
34 1 1.65571 1.40744 2.26948 -0.990819 1.2071 1.19263
35 1 5.82831 5.96821 4.89829 0.214011 0.716131 -1.15326
36 1 0.829536 6.02848 0.248573 0.535977 -0.645053 -0.231471
37 1 1.15506 0.167397 0.243265 0.23537 -0.568035 0.162758
38 1 3.62126 0.62 2.3329 0.0187852 1.34049 0.294851
39 1 3.99892 0.605502 1.41272 0.227974 -0.313523 -0.755247
40 1 1.46046 4.39574 8.66341 -0.68884 -0.251464 0.504735
41 1 2.98234 3.90552 4.80202 0.115111 -0.276732 -0.614826
42 1 4.84638 4.50888 5.08708 0.708138 0.846384 -0.540275
43 1 4.35363 8.59587 2.23739 -1.81443 -0.031073 -0.659395
44 1 1.20998 7.73722 3.9382 -0.518223 1.1977 0.134435
45 1 9.03798 4.27741 3.49867 -1.01314 -0.0999767 0.333652
46 1 2.99874 5.34742 1.84485 -0.805088 0.322052 0.778477
47 1 9.13539 8.42886 2.3591 -1.21869 -0.0871028 0.541533
48 1 4.48418 7.68818 3.61802 0.691468 0.470832 -0.995034
49 1 9.32465 8.74414 4.60516 1.24677 -0.0351583 1.00013
50 1 8.36605 7.51155 4.85566 -1.65713 -0.665068 0.903693
51 1 9.0745 3.60131 1.14842 0.144298 0.135976 -0.284483
52 1 8.81215 9.25236 6.25961 1.10608 -0.520479 -0.517609
53 1 5.93215 4.26857 3.92322 0.165992 0.289903 -1.01121
54 1 1.57916 1.0833 0.151483 0.3381 -0.310381 0.328182
55 1 4.69257 2.14977 7.99033 -0.353786 -0.546784 -0.819391
56 1 2.47254 2.88027 0.826549 -0.703947 -0.121364 1.17067
57 1 3.24956 1.91713 2.05795 -0.215913 -0.13242 -0.0673203
58 1 2.49291 5.15358 6.52416 0.218177 -0.164934 0.619845
59 1 5.64352 7.29134 7.13535 1.20907 0.134853 -1.03099
60 1 2.04638 1.62399 3.86647 -0.0602908 -0.0353676 1.22227
61 1 0.448377 7.88489 2.44127 0.907445 0.643205 0.573122
62 1 3.68651 3.15187 9.07989 0.6946 0.135856 -0.112329
63 1 5.23558 3.18141 0.379823 0.148428 -0.346596 0.92578
64 1 7.83463 2.02156 0.452367 -0.380258 -0.0673704 1.86416
65 1 3.78019 4.84317 2.23813 -0.990595 -0.0477713 0.0287829
66 1 7.28263 5.2945 7.80376 -0.357214 -0.282914 0.458172
67 1 9.05693 3.82207 7.72534 1.14163 -0.399351 0.091255
68 1 7.34475 0.292914 0.201089 0.141792 0.88754 0.102118
69 1 6.89369 5.78815 6.6424 1.35782 -0.0578189 -0.824036
70 1 -0.0159013 2.7938 1.76566 -0.842742 -0.387357 -1.07014
71 1 1.15 9.09419 6.60441 -0.259787 -1.04524 0.900686
72 1 0.37676 4.93324 4.76474 -0.199279 0.334763 -0.435853
73 1 2.56651 4.90374 3.86545 0.452753 0.59752 0.0885279
74 1 1.80941 -0.00985466 7.17705 -0.194168 -0.502709 0.429539
75 1 6.84393 6.30183 4.87952 1.06076 1.20352 0.207041
76 1 8.84258 3.39482 0.308717 -0.381091 0.269728 -0.88219
77 1 8.15408 5.68372 3.75883 -0.276338 0.0369473 1.41225
78 1 3.81988 9.32057 0.803471 -0.509498 -1.54013 -1.0296
79 1 7.73698 8.9483 2.95974 1.46984 -0.015109 0.013841
80 1 7.57571 7.83637 0.393718 -0.515493 -0.0455445 -1.08564
81 1 2.54719 3.28197 2.3566 -0.795975 -1.29661 -0.350216
82 1 0.512886 1.88723 8.58437 -0.0878578 0.331599 0.0262659
83 1 6.66959 0.0135452 7.57848 -0.154987 0.0497075 -0.573762
84 1 9.38725 5.78198 7.58743 0.564084 -0.221121 -1.51099
85 1 1.22991 0.761245 0.891931 0.162004 1.1087 1.42232
86 1 6.37047 7.30427 2.7568 -0.60924 0.527601 -0.197738
87 1 9.18779 5.23117 3.71588 -0.11213 0.177545 0.119774
88 1 1.92797 9.27544 0.671499 -1.40899 -0.156659 0.340438
89 1 5.9114 7.68608 6.12095 0.0966584 -1.08486 -0.269633
90 1 2.29421 5.52129 9.14821 -0.571023 -0.854836 0.807481
91 1 0.828521 8.84612 2.46386 1.09884 0.00194121 -1.49496
92 1 4.92049 5.78614 4.51253 0.30978 -0.794103 1.06024
93 1 1.0936 0.168574 5.32254 0.342928 0.0185364 -1.74088
94 1 6.85365 2.68846 2.17627 -1.3047 1.03488 0.012024
95 1 2.591 5.81505 7.20343 -0.224335 -2.15834 -0.709315
96 1 7.5286 7.95675 6.73228 -0.194031 -0.889455 -0.312216
97 1 7.26338 2.45438 1.11863 -0.833215 0.888605 0.361117
98 1 4.98158 5.52055 3.15593 0.917846 0.193778 -0.543507
99 1 2.71157 1.97294 4.51163 -0.0432338 0.403196 -0.799406
100 1 1.55587 1.61344 1.25006 0.571408 1.48456 -1.08274
101 1 3.00991 7.17916 1.85456 0.345898 -0.818826 0.105923
102 1 5.3963 2.65352 8.20619 -0.00290241 -0.184577 -0.299149
103 1 0.139367 9.31433 0.503718 -0.553202 -1.00477 0.101474
104 1 8.89603 4.41506 5.64775 0.507541 -1.1723 -0.964209
105 1 6.58632 6.39512 0.0824018 -0.457335 0.401787 0.943594
106 1 2.45455 7.06318 2.72627 -0.150747 -1.41081 -0.260881
107 1 6.32799 3.76398 5.47369 0.761911 1.21847 -0.741004
108 1 2.98414 3.86843 9.33355 0.601494 0.0345993 -0.0188677
109 1 8.41432 0.593208 1.49702 -0.785582 -0.81849 0.789365
110 1 8.8348 2.30347 7.60813 0.194541 -0.0369599 1.0039
111 1 7.67488 6.07207 7.92928 -1.10364 -1.73479 0.277267
112 1 7.56476 4.32042 8.54512 -0.199428 -0.63051 -1.63789
113 1 8.66504 0.274872 8.28147 -0.528679 0.3823 -0.169811
114 1 8.12055 1.55109 7.73218 -1.5791 0.23458 -0.254809
115 1 1.39989 5.17683 8.03297 0.0533595 0.021108 0.569685
116 1 3.73129 5.33274 8.6078 -1.68815 0.162021 -0.163072
117 1 0.561534 1.93324 1.26487 -0.470607 0.177891 0.465954
118 1 8.20539 5.67837 1.97554 -0.673765 0.529155 -0.628929
119 1 2.14173 1.38994 6.90628 -0.539971 -0.0661544 0.109411
120 1 4.46822 6.83696 2.47102 0.795803 0.391099 0.806967
121 1 0.409033 6.38285 8.21055 -1.48078 1.54022 0.259547
122 1 0.472191 3.47025 3.7366 -0.606271 1.14107 -0.297392
123 1 0.547964 4.74954 3.8692 -1.55876 -0.519757 0.289514
124 1 4.98917 0.2677 0.671968 -0.559421 0.0425088 -0.765015
125 1 0.562831 9.40555 7.34432 -0.948139 0.971625 0.488698
126 1 5.46056 4.34714 1.02243 -0.228477 0.46499 -0.600123
127 1 4.61425 4.26941 0.578515 0.769671 0.936425 0.392265
128 1 9.44584 1.93666 6.92833 0.808153 1.71969 1.02428
129 1 8.0463 6.20488 0.835576 0.415245 0.0773151 -1.93326
130 1 6.34417 8.71004 9.19457 -0.0314988 -1.36945 0.659998
131 1 8.21427 1.27483 4.29225 0.0203207 -0.280588 -0.00988221
132 1 6.79327 9.05246 2.60574 -0.785013 1.36874 0.0782674
133 1 8.37827 2.84958 6.44628 0.707042 0.554885 0.38067
134 1 3.21095 8.37642 0.666373 0.225815 0.947165 -0.0834659
135 1 6.55672 8.46047 6.37373 -1.32577 -1.8185 -1.88427
136 1 3.51038 6.857 0.713464 0.389636 0.930078 1.19701
137 1 0.26269 7.07578 6.73581 -0.362095 1.23145 0.607022
138 1 4.45549 5.79555 2.23658 -0.666307 -0.535638 -0.155482
139 1 3.96064 5.662 0.0486366 0.28195 -0.377997 -0.8847
140 1 8.90242 6.88175 4.21851 -0.290228 0.127924 0.305339
141 1 1.00804 4.42206 4.80281 0.0397895 0.107032 -1.23669
142 1 6.51265 6.36931 8.24681 0.108985 -1.52179 -0.10073
143 1 6.69525 7.79221 9.39795 -0.720073 -0.56942 1.32945
144 1 5.76259 0.844793 8.60947 -1.08111 -0.877774 -0.958714
145 1 8.57184 5.38827 0.114285 -0.982972 1.6861 0.186127
146 1 2.7132 9.26447 0.0170841 -0.197227 0.329775 -0.895474
147 1 5.67965 2.70008 9.04714 -0.656491 0.594556 0.526202
148 1 5.01684 4.48327 3.72798 1.15128 -0.214784 0.0548639
149 1 2.33885 8.48568 2.56051 -0.65086 -0.965965 0.349244
150 1 3.00498 0.608534 1.53481 0.0360154 -0.154731 0.435339
151 1 2.96353 4.82484 4.95461 -0.273373 0.245567 1.78526
152 1 6.34096 5.1697 4.27874 -0.00354528 -0.178371 0.185804
153 1 6.9539 8.11512 1.4181 -0.0273007 0.027398 -0.613999
154 1 7.34936 3.15685 4.27635 0.259538 0.00617271 -0.298686
155 1 6.9569 8.49207 7.42334 0.922729 0.14658 -0.55205
156 1 8.92825 6.56134 1.24831 0.127412 -0.98972 -0.217679
157 1 0.182361 0.215745 4.60362 0.456791 -0.424569 0.0908651
158 1 4.07651 1.33845 2.13571 0.781937 1.32213 -0.146196
159 1 0.1155 2.79532 7.86093 0.0887616 -0.311117 -1.18808
160 1 5.23555 6.27973 1.93269 0.856925 0.843325 -1.22371
161 1 0.667033 3.49472 4.86772 0.827514 -0.334214 -0.441764
162 1 2.96827 5.94031 8.57763 0.0659808 0.0109519 -0.335514
163 1 3.2205 2.13398 0.33239 1.447 0.430711 0.865302
164 1 2.73736 2.78846 9.37083 1.49178 -0.40376 -0.912268
165 1 5.47212 3.75651 4.93124 0.237166 -0.0307843 -2.12811
166 1 9.12423 0.582104 7.17547 -1.00312 -1.12464 -1.16217
167 1 4.6647 9.34617 1.44148 -0.811695 0.553891 0.925394
168 1 0.497512 2.8745 0.811081 0.759496 -0.000443631 1.12114
169 1 1.89708 7.14297 4.07066 -0.130621 -1.32248 1.33675
170 1 5.13807 6.43889 2.82478 0.0694288 -0.502496 -0.920501
171 1 1.01341 5.53299 4.60131 -0.0107465 -1.22522 0.279211
172 1 8.2023 8.43209 9.21888 -1.01527 0.0524526 0.453035
173 1 0.616154 5.61375 8.49281 0.344275 -0.593157 -0.425757
174 1 3.66212 8.58881 6.99313 0.461328 -0.114822 0.419573
175 1 6.81521 7.32958 0.924985 1.0315 -0.195232 -0.684169
176 1 9.20184 3.33049 5.05238 -0.0625834 0.0828335 -0.955311
177 1 4.16706 1.93804 4.56639 -0.95232 -0.360057 0.379088
178 1 1.68652 6.84666 3.31384 0.513044 0.0970417 -0.0819254
179 1 7.90092 2.38474 8.18412 0.47291 0.615026 -0.248025
180 1 4.5723 6.49125 0.139777 -1.30879 0.48095 1.46033
181 1 7.97905 2.57871 7.29704 -0.665547 1.39053 0.219434
182 1 2.30652 3.1861 3.34737 0.329343 -0.893679 1.05529
183 1 4.90011 2.35859 6.21332 -0.62825 -0.188453 -0.61075
184 1 0.971259 6.9985 0.344698 0.124593 0.347455 -0.11254
185 1 0.304556 1.10622 0.842781 -0.253751 0.569469 0.286355
186 1 4.28003 2.32354 1.82529 0.356323 -0.237215 0.66207
187 1 7.32512 0.57711 4.37289 1.18569 -0.470307 0.407921
188 1 2.65278 0.798359 2.45713 0.316976 0.644063 0.68168
189 1 4.36573 0.0634305 -0.0529469 0.219404 -0.960458 -1.62206
190 1 4.75473 6.21589 7.65547 1.20526 -0.348296 1.38576
191 1 5.85082 2.4998 4.62515 -0.21466 0.690214 1.14601
192 1 8.32494 8.38491 6.90715 0.876941 0.865398 0.393406
193 1 5.13237 4.73737 1.74129 -0.214486 -0.221871 -0.93908
194 1 4.74691 8.57127 6.82801 -0.0961517 -0.251824 -0.033094
195 1 3.86662 4.70225 7.75806 -0.324694 -1.14711 -0.808288
196 1 8.01542 8.98869 3.81944 1.01043 -0.0826813 1.08389
197 1 6.79815 4.04077 2.19735 1.34356 -0.631479 0.838314
198 1 1.57773 6.01843 5.62646 -0.589175 -1.06702 0.0515067
199 1 0.385792 6.82163 2.83052 -0.252036 0.880411 1.0256
200 1 1.41265 8.59651 1.72103 0.37143 0.334877 -1.17368
201 1 4.95427 1.60769 1.72255 -0.953411 -0.981912 0.270726
202 1 0.0766182 1.8432 0.322826 -1.08203 -0.952312 0.470636
203 1 9.05259 1.90064 8.37781 0.622229 0.684225 0.655213
204 1 0.603041 2.97587 5.666 -0.853932 0.645591 -1.61774
205 1 4.45355 1.87965 0.124648 -0.533934 0.526397 0.188617
206 1 1.51933 0.438324 7.92509 0.55999 -0.438981 0.321902
207 1 4.71296 6.84545 3.6379 -0.331561 0.441409 0.498476
208 1 0.760642 2.42558 3.57978 1.10739 -0.830238 -0.458505
209 1 3.46792 5.73054 3.84451 -0.334037 0.481028 -0.115137
210 1 4.14766 2.70011 0.335486 0.992966 0.854659 -0.457537
211 1 8.04569 1.40552 6.23552 -0.333455 0.624409 -1.32528
212 1 6.38299 3.30328 4.49139 0.276728 0.115968 0.286973
213 1 0.49197 5.57206 1.2914 0.108977 -0.760928 -1.21956
214 1 5.83765 1.99812 6.67124 0.850807 -0.58396 0.172026
215 1 2.49033 0.852074 -0.0213902 1.3279 -0.904992 -1.13244
216 1 3.87607 6.20893 2.95042 -2.07226 1.07309 -0.945576
217 1 2.13769 7.50286 2.05949 0.956285 -0.773764 -0.611295
218 1 7.8141 4.82665 0.727058 -0.879254 0.130155 1.87961
219 1 0.363389 5.97212 3.85762 -0.22102 -0.955607 -0.0525933
220 1 4.77212 0.71816 1.89341 0.687312 -0.648957 0.452115
221 1 5.60733 4.74896 4.58715 -0.143391 -2.059 1.46488
222 1 2.03989 8.7315 6.50263 0.913057 -1.05073 0.541384
223 1 0.124839 3.5706 6.42139 0.0890211 1.08507 0.337535
224 1 0.233348 3.90945 1.78075 0.168013 0.307781 0.604842
225 1 5.59587 6.74628 5.62403 -0.427365 -0.760014 -0.3204
226 1 3.53308 9.23094 1.78991 -0.334982 1.11577 0.367299
227 1 9.15489 8.16908 9.15311 0.229868 -0.992333 0.440871
228 1 8.93712 0.707853 0.700342 1.30784 1.29306 0.129928
229 1 9.02534 7.05903 7.57952 1.34575 -1.15954 0.158381
230 1 4.36755 7.21106 5.27901 1.80588 -0.162618 0.493777
231 1 6.44542 1.99556 8.13151 0.344679 -0.196239 0.513563
232 1 5.04202 0.448001 7.32907 0.534264 -1.44264 -0.154005
233 1 8.00595 3.92278 4.14682 -0.438296 0.542658 0.425653
234 1 0.574998 8.35863 5.83046 0.323882 -0.16162 0.519344
235 1 4.58587 1.70428 3.55024 -0.367412 -0.605989 1.00972
236 1 7.12353 4.10421 7.70146 -0.77172 -0.362939 -0.790708
237 1 7.18672 5.24669 8.76927 0.338446 0.109643 -0.102571
238 1 5.70232 9.05611 0.703614 -0.851118 0.247377 0.396092
239 1 7.40975 3.22976 5.76538 0.830579 -0.904474 -0.925728
240 1 8.62106 8.99194 5.30948 -0.079059 0.334767 0.760654
241 1 3.63493 8.99056 9.35335 -0.813917 0.431902 0.0724901
242 1 7.51905 7.40769 3.23742 -1.18696 0.877734 -1.34785
243 1 5.45297 1.72932 3.1463 -0.137695 -1.57051 -0.60563
244 1 1.96157 2.35752 1.75259 0.772556 -0.0626342 -0.873983
245 1 6.14642 6.84869 4.94632 0.968365 0.562987 0.124085
246 1 1.53881 2.80634 7.2053 0.0230674 0.320233 0.0413912
247 1 7.6815 0.0640659 5.21222 0.0330553 -0.688792 2.23295
248 1 5.60666 4.465 8.50291 -0.466788 -0.528005 -0.696696
249 1 4.19087 0.863057 0.443041 0.287107 0.320214 -0.487279
250 1 2.74824 9.23537 1.00439 0.977557 -0.13599 -0.48048
251 1 2.42114 0.320126 8.59842 -0.518625 1.29513 0.338142
252 1 1.73682 5.46684 0.702086 -1.74282 0.986139 -1.1663
253 1 6.77376 7.23141 3.6346 0.331592 -1.12402 0.303191
254 1 0.139009 5.22279 5.72914 -0.475592 -0.360752 0.847072
255 1 9.29325 7.83011 8.12176 -0.848907 -0.633973 -1.61214
256 1 1.38386 8.17086 5.96771 -0.6572 -1.81141 1.74719
257 1 2.4548 0.497679 5.45587 -0.105935 1.06648 0.0424219
258 1 8.9151 6.26629 3.35219 -0.00417072 -1.02551 -2.19413
259 1 6.06843 9.38716 5.89049 0.035351 0.196236 0.134167
260 1 0.780382 7.94265 6.67778 0.95697 -1.05794 -0.598346
261 1 6.89029 3.01194 3.5204 0.673983 -0.934581 0.659771
262 1 1.85452 4.72157 2.13963 0.672414 -0.266484 -0.386067
263 1 7.4807 7.34647 5.93097 0.21734 -0.123149 0.365358
264 1 0.305463 4.67974 7.88358 -0.845128 0.801174 1.16527
265 1 6.22622 1.0512 6.1214 1.04203 0.826881 -0.863462
266 1 8.19591 3.88315 7.98461 -0.189588 0.0518849 0.0562458
267 1 1.2389 5.49988 2.46896 -1.15864 0.217449 -0.0225061
268 1 3.03884 8.4006 1.87637 -1.4144 -1.02728 0.0736994
269 1 6.55727 0.87427 4.10479 0.219652 -0.495 0.62046
270 1 2.67811 8.16262 7.15149 -0.131141 0.19332 -1.51117
271 1 2.40132 2.78147 4.32255 0.041008 -0.0733194 0.215462
272 1 1.29448 6.80898 2.30176 -0.0914599 -0.637552 -0.293078
273 1 3.90261 0.233302 4.92498 0.990693 -0.657818 -0.476151
274 1 8.07308 0.317386 6.15477 -0.54226 0.816674 0.930447
275 1 5.87193 0.406911 7.63616 -0.915559 1.61201 -0.0362004
276 1 4.2193 6.08212 6.89066 -0.0121727 -0.731388 1.61139
277 1 7.6935 4.31137 1.50201 -1.11306 0.0674119 1.14528
278 1 1.34387 1.88258 5.57935 0.0274451 0.354584 1.87333
279 1 0.540028 1.80742 7.63249 0.607099 0.386839 0.0840866
280 1 1.78557 8.51309 9.28644 0.0628253 -0.532105 -0.0488371
281 1 0.112678 4.23394 0.645594 -0.915852 -0.073562 -0.172814
282 1 0.450964 4.15407 8.61744 -1.06474 0.619455 -0.619822
283 1 4.82484 7.83906 2.2809 -0.235514 -0.312402 0.877743
284 1 4.04144 2.54454 3.6713 -1.07967 0.280555 -0.914571
285 1 3.47372 3.2707 5.55156 0.602513 0.516396 0.603478
286 1 5.81652 7.81057 8.75129 -0.690872 1.54632 -0.349053
287 1 9.2003 8.0896 6.74215 1.30273 -0.563938 -1.51541
288 1 8.68688 8.88587 3.01836 0.434676 0.507609 -1.21146
289 1 5.70256 2.67078 3.00737 -0.0559496 0.678428 0.525572
290 1 6.20768 7.84985 7.66843 -0.148607 0.200217 -0.577475
291 1 3.27086 5.26645 5.76351 -1.48288 -0.41142 0.619805
292 1 2.7816 6.1977 1.20506 0.293453 -0.219478 1.29292
293 1 2.15189 5.47934 1.74874 2.03487 1.66933 0.532692
294 1 0.649736 0.982501 0.0507409 -0.230807 -0.0601671 -0.622518
295 1 5.2438 1.44281 5.23694 0.406278 0.00145941 -0.96775
296 1 0.441708 5.25405 0.418849 0.684451 -0.812342 0.45422
297 1 5.53118 9.37576 9.28955 0.711402 -0.0690877 -0.403315
298 1 6.64431 0.124148 4.76259 0.415012 -0.485803 1.21637
299 1 1.24604 5.78226 1.61659 0.899842 0.999212 -0.332254
300 1 0.131039 2.95833 4.36235 -0.371291 0.00560319 0.689738
301 1 5.28805 6.30585 6.75974 -0.5341 0.434639 -0.177415
302 1 0.679684 6.83968 3.83433 1.18221 -0.306381 -0.903057
303 1 2.88661 0.926483 6.18088 0.794564 1.49639 0.835782
304 1 0.239565 8.66833 1.26659 1.12856 1.60912 1.86873
305 1 5.14685 6.86477 8.70034 -0.139756 -1.48173 -0.541251
306 1 6.05787 1.16814 2.14008 -0.892523 1.12544 0.649552
307 1 0.685515 0.386375 6.21295 1.90486 -0.771692 0.222739
308 1 0.12756 4.1154 4.45134 0.780636 0.556355 1.28809
309 1 9.38742 0.360622 1.48268 1.30244 -0.101649 0.510459
310 1 5.73614 1.45873 0.247188 0.38052 0.588384 0.544212
311 1 1.0233 2.57934 1.72681 -0.0418618 -0.214052 0.922527
312 1 2.6561 6.6776 9.14696 0.845381 -0.524134 0.0524637
313 1 0.716337 4.62375 6.24611 -0.944955 0.364528 1.29822
314 1 3.78747 8.49293 3.33896 1.35785 0.187154 1.37941
315 1 6.45254 8.54388 5.46714 1.23705 0.560655 -0.333135
316 1 4.3396 7.27043 0.804576 0.427577 0.00756862 0.0814001
317 1 8.28073 1.32543 3.30082 -0.946551 -0.66018 -0.36949
318 1 0.437975 6.68685 5.74952 -0.557438 -0.299531 0.762329
319 1 3.5432 2.88348 2.08284 -0.150556 -1.19003 -0.959789
320 1 4.38058 8.59652 9.01799 0.909136 -0.514588 0.763935
321 1 6.13344 7.94463 3.69612 -0.393273 -0.856552 -0.755841
322 1 1.1357 0.681658 4.51094 -0.312203 0.547912 -0.0719599
323 1 8.16918 2.63031 1.39929 -0.0815253 0.383003 -2.04992
324 1 6.42668 6.39248 3.99938 -0.502314 0.411744 -2.28823
325 1 0.278522 0.942725 4.00599 0.112489 0.0741931 -0.0613264
326 1 3.6168 1.35975 5.88969 0.926582 -0.873081 -1.24361
327 1 8.98503 5.19944 4.99547 -0.858818 0.0749399 -0.422588
328 1 5.37642 8.72648 8.37276 -1.32695 -0.835411 1.17763
329 1 6.37358 4.93292 3.36003 1.06989 -0.221835 -1.64023
330 1 3.35661 4.88314 7.06383 -1.46106 -0.405934 -0.723744
331 1 8.03831 8.38569 1.0443 -0.349529 -0.753993 0.722945
332 1 7.75544 3.97681 2.44673 1.84774 -0.553836 0.615302
333 1 2.31818 2.13963 7.36579 -0.00430199 -0.490575 -0.108462
334 1 8.24409 6.59138 6.06333 0.00130124 -0.53512 -0.20513
335 1 3.10848 5.71633 4.68173 -1.81809 -0.174756 -0.786961
336 1 2.85397 2.24244 1.26825 0.306994 0.125736 -0.0263209
337 1 7.15386 4.82465 5.43948 0.297529 -0.0996935 -0.0187234
338 1 7.80918 3.03141 0.622114 1.27794 0.306739 0.693371
339 1 7.18607 6.29212 5.93953 -0.768494 -0.0157015 0.347954
340 1 4.02425 5.34305 3.21622 0.206143 -0.00714306 -1.95284
341 1 9.09919 5.32975 8.32214 0.467314 0.208826 0.370183
342 1 7.04616 6.10964 0.897531 0.21451 0.0777169 -0.596743
343 1 7.62399 4.48024 4.73131 -1.00829 0.293037 -1.83633
344 1 7.03845 1.71512 0.334758 0.0518838 -0.786058 -0.124306
345 1 9.05452 9.05522 7.2924 1.04398 0.0425977 0.890799
346 1 3.97001 8.11083 4.91398 0.126686 -0.267105 -0.534747
347 1 4.2573 1.39114 8.35043 -0.780963 2.14463 -0.0150092
348 1 7.53271 9.14189 7.79368 -0.891331 -0.00280799 -0.986798
349 1 8.13014 0.421098 0.419931 -0.366535 -0.120311 -0.669387
350 1 4.72212 7.66028 4.5544 1.65251 0.030612 0.609542
351 1 7.96019 0.610715 2.26406 0.342549 1.44645 0.548796
352 1 8.92695 2.98016 8.61966 -0.965935 -1.27424 0.546345
353 1 3.02474 6.41417 7.91397 0.054946 1.24963 -0.415945
354 1 6.94773 2.9124 6.53625 -1.87412 1.3081 -1.00444
355 1 0.579868 7.52774 7.49531 -0.533201 -0.515284 -0.397425
356 1 0.213777 5.77605 6.51143 1.39616 -0.387781 0.0460524
357 1 5.32348 5.96806 5.92827 -0.0682125 0.52014 0.323668
358 1 3.52731 3.68804 2.26376 0.320551 -0.0555221 -0.00925937
359 1 1.8147 2.16154 4.67921 0.715703 0.510265 0.774224
360 1 0.296254 7.06015 1.08991 -0.846636 -0.968418 -0.538765
361 1 4.42082 6.93444 8.19109 0.840904 -1.65322 -1.69617
362 1 8.51918 3.32258 1.97461 -0.447187 1.53617 -1.45975
363 1 1.01846 6.21625 2.96502 0.241938 -0.626585 0.00462034
364 1 7.28241 8.70075 0.0228651 -0.665034 0.235534 -0.871584
365 1 0.190851 9.23659 5.59257 -0.581872 0.783718 1.14703
366 1 8.38243 6.53105 4.97069 -0.743526 -0.396875 1.40533
367 1 4.5364 7.84641 8.36051 -0.0613183 2.09999 -0.313583
368 1 1.34893 8.06249 2.51511 0.195223 -1.41166 -0.90153
369 1 3.64666 9.28315 7.59492 -1.17264 0.419759 -0.645682
370 1 4.1752 7.54172 1.72285 -0.361864 0.504458 -0.469595
371 1 0.316214 8.36702 7.50829 0.676338 1.01078 -1.27942
372 1 1.5724 7.48419 1.17464 0.837655 0.13305 0.662434
373 1 5.84306 5.80907 3.22495 0.310867 -0.216566 0.119047
374 1 3.03962 7.43507 0.102548 -0.0856011 0.657976 0.332331
375 1 1.88063 2.47768 3.74799 -0.0010316 -1.16883 -0.901109
376 1 1.62004 5.99944 7.16777 0.400048 -0.290676 0.802647
377 1 0.663793 9.02698 3.94996 0.380907 1.09272 -1.01661
378 1 9.29062 7.01373 5.09992 -0.17814 -0.876262 -0.1056
379 1 8.22514 0.288694 4.4298 -0.358797 -0.933011 -0.0139515
380 1 4.2932 6.58748 1.4381 0.201694 -0.0410107 -0.361245
381 1 2.73409 7.60501 6.31712 0.752692 -0.0828168 0.385187
382 1 5.20887 3.81423 1.98863 0.0489232 -0.152673 -0.910519
383 1 6.57524 6.97906 5.82948 0.604558 0.578202 -0.257116
384 1 1.71925 8.78863 4.10836 1.57604 0.257227 -0.517044
385 1 1.84181 7.9088 6.91414 -0.0912647 -0.548625 0.9218
386 1 5.6151 1.07107 6.91386 -0.737932 -0.483513 -1.49173
387 1 8.08844 6.90116 8.17462 0.796449 -0.49822 0.411449
388 1 1.64954 2.95555 2.38259 0.35089 0.666182 -0.73977
389 1 2.57295 5.87692 3.98141 0.769412 -0.418961 -0.6751
390 1 7.81616 8.66765 4.75745 -0.833507 -0.503834 -0.227544
391 1 7.66684 2.25115 1.99486 0.304959 0.72466 1.24597
392 1 7.38006 8.1975 8.70959 1.27284 -0.773249 0.835534
393 1 6.48366 0.68264 6.96062 -1.38892 0.236048 0.622542
394 1 4.07512 1.7615 6.6357 -0.542467 -1.75153 -0.107753
395 1 2.16816 4.87711 7.62512 0.44349 -0.523676 -0.598607
396 1 5.41667 3.72448 6.00137 0.523445 -0.0780699 0.373749
397 1 5.45821 1.79447 8.6501 0.901138 1.27072 -0.126829
398 1 1.7494 3.31793 5.10378 0.536157 -0.712933 0.377815
399 1 0.327446 7.63595 0.254231 0.570653 1.01924 0.671207
400 1 5.82064 0.504588 0.506985 0.430038 0.196555 0.855677
401 1 6.59804 6.1647 7.42428 -0.449276 -0.329368 -0.861087
402 1 3.13929 4.69183 3.2047 0.530096 -1.17791 0.0258491
403 1 3.17684 7.09877 8.66801 1.35842 -0.208304 -0.47781
404 1 3.47399 7.79842 1.27809 0.0513517 -0.116726 -1.18866
405 1 0.976505 7.39009 2.99604 1.43204 -0.174202 1.02086
406 1 3.24427 3.68287 6.63895 0.528001 -1.02182 1.12452
407 1 2.58809 3.93307 0.750769 -0.0838796 0.307669 -0.584798
408 1 2.21966 3.91083 1.74163 -1.16513 -0.00120894 -0.497537
409 1 6.1982 3.88654 0.639166 -1.53296 0.159798 1.19333
410 1 7.50054 6.92491 4.33065 -0.913014 0.298738 0.145643
411 1 0.507586 8.60207 8.53818 0.0179424 0.0327543 0.344785
412 1 1.76537 6.78998 0.568582 -0.0530132 1.24834 0.981944
413 1 2.10675 1.92761 0.0455897 -0.239754 -0.526023 0.0722209
414 1 7.64908 5.51105 1.21941 0.642529 -0.975217 -0.790309
415 1 5.30712 8.43887 0.000433886 -1.01468 -0.478316 -0.426844
416 1 8.32422 2.31103 4.56816 -1.39126 0.230251 0.766783
417 1 7.96855 9.35647 8.90299 0.574102 0.346478 0.00663527
418 1 6.78217 0.0152022 6.4385 0.311278 0.254247 1.73056
419 1 6.22504 1.61876 4.70675 0.166572 1.77124 -0.173808
420 1 5.58548 1.94729 1.23504 -0.338396 0.873183 0.117631
421 1 4.97401 8.46047 1.59162 -0.627016 0.138507 2.50506
422 1 2.65156 7.35995 3.68159 -0.654844 0.260025 1.68015
423 1 8.45065 1.95107 6.86642 -0.435903 -1.11865 -1.12307
424 1 6.30918 4.87509 6.16274 -0.527035 -0.319341 1.30489
425 1 5.52596 7.28881 3.93402 1.88287 -0.992827 1.58318
426 1 0.152693 4.91713 9.08733 0.554222 -1.4592 -0.448804
427 1 1.59489 2.70359 0.528228 0.554122 -1.66785 -0.653907
428 1 6.51519 1.50774 7.40418 -0.806847 -0.550678 -1.14445
429 1 5.88684 2.95347 5.55765 -0.795936 -0.170402 -1.02997
430 1 7.18206 2.1586 2.96169 -0.528603 -1.4801 0.344709
431 1 5.99765 0.967806 3.1681 0.222789 -0.286226 -0.482495
432 1 3.91747 8.49775 8.20576 0.6035 0.86121 -0.213217
433 1 4.43749 5.05455 1.36957 0.461467 -0.672689 0.383681
434 1 4.57519 4.16013 5.95856 0.0264973 -0.522698 0.574283
435 1 1.57192 3.85608 2.59152 0.611293 -1.15766 1.69397
436 1 3.04667 0.263326 4.66612 0.200499 0.308799 -0.355676
437 1 8.87039 7.00453 8.74195 0.0175981 0.700479 -1.50296
438 1 1.4014 0.437804 2.13171 1.66163 1.5737 1.67089
439 1 4.48379 3.83555 4.28473 0.41379 -0.776488 0.548213
440 1 1.97904 2.03998 8.18558 0.91169 -0.957521 0.682421
441 1 1.09646 6.67567 8.7701 0.394214 -0.806824 0.244136
442 1 2.15315 0.575245 1.41641 0.50901 1.59084 0.652068
443 1 4.76597 1.37362 7.19391 0.802992 0.640631 -0.445387
444 1 8.29526 0.985967 7.03353 -0.278506 -1.40485 0.898189
445 1 4.20722 0.534732 7.84218 0.539104 0.114392 -0.662696
446 1 4.41783 3.49431 2.31691 0.054583 -0.538276 -1.38491
447 1 8.54321 7.3612 5.69722 0.804261 -0.735813 -0.548362
448 1 1.96269 0.736079 4.01177 0.544409 1.02396 1.88837
449 1 3.74469 2.23923 7.58989 0.787327 1.06961 0.267992
450 1 7.62291 2.62625 5.11037 1.08275 1.50867 1.2185
451 1 0.491592 1.80716 6.25726 -0.61592 -0.391221 -0.228523
452 1 5.61035 0.501808 1.49381 -0.700872 0.211597 1.39698
453 1 7.20243 7.15722 8.99051 -1.54321 -1.02749 -0.182964
454 1 7.45593 6.81684 0.410992 0.326038 0.107771 0.322249
455 1 3.43245 8.35941 4.09654 -0.119564 -0.525439 0.316676
456 1 4.78972 8.68422 0.644178 1.38832 0.913571 0.577395
457 1 2.76195 6.21823 3.13955 -0.460147 0.575397 -1.34284
458 1 6.08483 1.24259 1.03138 -0.361222 -0.151514 0.986804
459 1 8.90679 5.63721 0.923441 0.340988 -0.831139 -0.301767
460 1 8.59182 4.15737 1.72491 0.432766 0.506793 -0.624276
461 1 0.978716 8.46935 4.98945 0.0203433 0.243897 -0.58296
462 1 1.30982 4.38632 7.52918 0.234776 -0.214969 -0.657074
463 1 6.66243 5.54327 5.2918 0.125466 1.71576 0.260998
464 1 6.91673 6.2807 1.91371 -1.49816 -0.170514 0.669033
465 1 4.57426 7.38403 9.24484 0.359209 2.48208 -0.01411
466 1 7.07127 3.50555 2.80836 1.08323 -0.780139 -0.447626
467 1 8.97868 1.47847 4.86291 -0.49939 0.434404 1.06834
468 1 2.75223 0.879155 3.54972 0.039297 -1.68374 -1.79283
469 1 1.03733 6.35088 6.41634 1.86515 0.25264 1.12665
470 1 2.02429 5.98357 6.35201 0.633256 1.12523 -0.31355
471 1 5.89946 9.37499 3.00702 0.0634005 -0.0867693 -0.0847908
472 1 9.31344 3.19459 2.72885 -0.665052 0.378029 0.469424
473 1 2.0173 4.68881 1.24584 0.827261 -0.473151 -0.155816
474 1 3.97567 7.73449 2.59385 0.132443 0.030764 0.0150184
475 1 5.94118 6.75328 3.35128 0.227444 -0.323 -0.593702
476 1 5.6664 6.29171 7.70676 -0.000351361 -1.8311 1.10764
477 1 6.44032 7.13879 1.73274 0.323286 -0.0662184 0.441306
478 1 4.66185 1.96432 2.6165 0.2777 1.60358 0.43646
479 1 6.14056 6.59517 6.62053 0.620544 0.904957 -0.148219
480 1 6.66659 2.34152 4.2107 -1.99484 -0.82095 -0.558883
481 1 8.06231 2.82594 3.82896 2.60058 -0.235956 -0.301233
482 1 3.10932 1.89165 6.79558 0.201833 -0.373111 -0.202009
483 1 9.1387 5.63674 1.99852 -0.657577 -0.305465 1.32121
484 1 6.80345 8.48194 4.53392 -0.234601 -0.698987 0.549341
485 1 0.933292 5.37369 3.39638 -1.3665 0.467139 -1.5951
486 1 8.97271 7.1013 0.297646 -0.227337 0.784132 0.106412
487 1 4.90136 8.97587 7.54976 1.29866 -0.0412818 1.19859
488 1 5.33691 6.29051 3.78675 -1.2441 -0.313125 -0.969919
489 1 8.54354 9.21591 0.914155 -1.07125 -1.31339 1.16548
490 1 1.59997 9.34711 8.89089 -0.395725 0.371423 -0.648302
491 1 1.17306 7.04941 6.96453 0.833186 0.78104 -0.252939
492 1 9.00471 1.642 1.07019 -0.392643 -0.171605 0.915478
493 1 4.51825 1.77514 5.55048 0.668738 -0.868723 0.716459
494 1 7.19369 7.22534 2.25083 -0.424341 0.031516 0.472082
495 1 6.1402 6.90991 9.00997 -1.42805 0.0777888 0.80939
496 1 1.18663 8.49124 7.3473 -0.37174 1.3262 -1.21065
497 1 5.17989 1.1249 0.821286 -0.957821 0.351188 0.540815
498 1 1.10122 9.14377 8.03514 0.835043 -0.672677 -0.251878
499 1 5.48064 1.81945 7.58981 -0.212098 0.572534 0.330179
500 1 8.45146 7.73572 8.41684 0.722122 -0.479898 -0.716079
501 1 3.619 3.66236 7.47119 0.979462 -1.29714 -0.670095
502 1 5.83476 2.62237 7.31821 1.12596 0.604539 -0.35916
503 1 6.31998 2.24189 0.0511882 -0.424082 0.446759 -0.793777
504 1 2.50748 1.27263 0.785075 -0.841581 0.035095 1.42344
505 1 3.14286 4.40081 1.74521 -0.169365 0.775235 -0.203923
506 1 5.13188 9.34744 4.56965 -1.09235 -0.674475 -1.13221
507 1 3.1793 8.23654 7.87563 -1.34935 0.271329 0.164455
508 1 3.3932 7.07229 2.71124 -1.05942 0.338425 -0.345823
509 1 1.9534 4.15701 4.65678 -0.429874 -0.875581 -0.773976
510 1 0.86442 4.27507 0.0323864 -0.771189 0.595501 0.640523
511 1 8.1181 4.75969 2.35366 1.50868 -0.788026 0.582776
512 1 7.17604 5.25031 4.50497 -1.2352 -0.308214 -0.416654
513 1 7.68641 6.74795 5.37918 0.00660701 0.444714 0.0548057
514 1 0.601204 6.40408 7.29866 -0.0826995 0.820572 -1.18615