ITEM: TIMESTEP
197300000
ITEM: NUMBER OF ATOMS
1000
ITEM: BOX BOUNDS pp pp pp
0.0000000000000000e+00 9.4000000000000004e+00
0.0000000000000000e+00 9.4000000000000004e+00
0.0000000000000000e+00 9.4000000000000004e+00
ITEM: ATOMS id type x y z vx vy vz
1 1 0.360106 4.27718 3.21339 1.88474 -0.542069 -0.327039
2 1 5.02326 7.78237 0.111399 0.933025 -0.365484 -1.78832
3 1 8.98883 8.74497 6.40187 0.088087 -0.36878 0.431565
4 1 3.58761 8.36015 6.91764 -1.05511 -0.329986 1.21027
5 1 4.03126 8.3499 1.65677 0.557146 -0.585555 0.445773
6 1 8.81549 5.62992 0.420631 -0.645089 -0.86258 -1.4303
7 1 4.24258 8.02255 0.372125 -0.53011 0.414616 -0.714962
8 1 0.776229 1.67565 2.91061 -1.47985 -0.974596 0.793465
9 1 0.920932 4.32053 1.30575 -0.568206 0.154356 0.0171985
10 1 1.13606 3.16258 4.46006 1.0462 0.473918 -1.13658
11 1 1.94834 5.69751 8.6373 -0.177117 0.0806763 -0.459452
12 1 5.92828 5.34239 6.61073 -0.318458 0.380712 -0.928365
13 1 3.31149 4.30678 2.71835 0.0128826 0.581399 0.0696713
14 1 5.4908 3.13799 4.90396 0.461625 -0.513433 -1.82885
15 1 0.186504 3.45716 6.83675 0.597792 0.413004 1.02602
16 1 7.35984 7.11924 7.59044 0.214033 -0.749919 -0.514925
17 1 9.2734 4.42485 4.61991 0.0327399 -0.0739534 -0.943442
18 1 1.95003 6.37337 1.92638 -0.0823457 -0.257399 0.492355
19 1 4.16055 2.84744 2.05739 -0.427439 -0.00339795 -0.798699
20 1 3.13309 4.90757 1.51955 -0.535025 0.534159 -0.977464
21 1 0.331191 6.48103 4.70388 0.701134 -0.441367 0.157901
22 1 8.32059 0.802355 8.68263 -1.99495 0.28794 -1.8829
23 1 0.162512 3.18754 9.22178 -0.860689 -0.470732 0.687074
24 1 7.66739 6.96105 0.154888 -0.861306 1.23066 0.189046
25 1 5.68353 0.986367 8.69807 -1.57966 0.501907 -1.23914
26 1 9.05746 8.82655 7.38682 -0.165408 -0.0436121 0.126956
27 1 1.63213 4.29118 9.12119 -1.52036 0.492948 -0.820166
28 1 4.60865 5.97036 1.76242 0.535068 -0.916517 1.30452
29 1 5.14881 1.48962 2.89382 -0.482523 -0.574012 0.30006
30 1 0.0923718 2.87689 6.13719 -0.00981148 0.487257 -0.879769
31 1 4.96095 4.8051 3.21396 1.80273 -0.0451423 -0.318263
32 1 8.47812 3.38738 9.20289 0.749621 -0.212317 0.549415
33 1 2.08218 4.997 6.0532 0.244172 -0.113419 0.926256
34 1 6.87409 7.3417 8.30267 -0.649639 -1.99807 0.21633
35 1 8.5635 8.32428 3.30616 0.594971 0.0428206 -0.635712
36 1 0.275806 6.6324 1.16721 -0.540761 -0.349807 0.421031
37 1 1.41976 0.337228 3.2304 0.686294 0.200523 0.582674
38 1 0.629679 9.33205 3.43175 -0.139274 1.08599 0.702277
39 1 1.81606 7.41905 6.86076 0.703853 1.88963 -0.0818555
40 1 8.13101 3.92529 2.63072 -0.33325 0.0900904 -0.351794
41 1 1.97617 7.2015 1.50981 -0.404679 -0.226831 0.74872
42 1 3.68328 7.24138 8.19742 -0.295118 0.487623 0.470576
43 1 0.0816852 7.77562 2.65018 1.61189 -0.606586 -1.02297
44 1 3.3575 6.0253 6.57749 -0.901023 -0.605807 0.682215
45 1 1.55362 5.48547 4.12169 -0.190989 0.818122 0.0679523
46 1 3.85944 4.80855 6.12308 0.799163 0.0854718 -0.365087
47 1 8.44368 5.1915 7.85929 0.97376 1.45341 0.490786
48 1 9.1705 1.62934 0.846434 -0.984641 -1.50026 -0.662295
49 1 3.58567 7.25501 4.4273 -0.719711 0.747721 -0.651792
50 1 1.44238 1.48082 5.43218 0.76594 0.978077 -0.0935475
51 1 6.97576 9.20411 0.601009 -1.27319 0.319343 -0.0730606
52 1 2.58219 2.39326 4.99345 -0.103913 0.0287026 -0.27462
53 1 5.69977 2.38683 6.64743 0.199787 -0.349843 0.0423814
54 1 7.23296 8.08427 5.15128 0.0354207 -0.352107 0.124874
55 1 8.2564 8.56092 7.90552 -1.15467 -0.927741 -0.324604
56 1 9.11975 4.3525 6.61095 0.592888 0.782584 0.784424
57 1 0.817902 4.72135 8.33574 1.54051 -0.342973 -1.05896
58 1 0.0893659 7.32055 7.9825 0.967996 0.353793 0.601491
59 1 7.12371 0.793072 3.70912 -0.938555 -0.638191 -0.462894
60 1 1.17191 3.54758 0.00839877 -0.667307 -0.779838 -1.09435
61 1 6.30464 7.85308 2.32229 0.567557 0.929417 -0.459874
62 1 2.5874 2.44969 9.14717 0.53807 -0.469142 -1.5475
63 1 6.89101 7.07072 6.62985 0.71314 -0.245146 -1.60779
64 1 0.186197 0.0650548 7.04911 1.75242 -0.0255785 0.429793
65 1 7.01408 4.84748 6.7337 0.219205 -0.53574 -0.95052
66 1 1.2826 7.80527 1.3127 -0.735569 0.358233 -0.871518
67 1 1.70127 4.21702 0.992892 0.46028 0.886767 0.663003
68 1 4.76589 3.56592 7.29001 0.574622 1.02338 0.514416
69 1 9.11357 3.8031 3.73591 0.653887 0.114155 0.922346
70 1 2.64632 5.91195 7.85432 0.788022 0.142186 0.596956
71 1 6.10907 1.69445 8.47355 -0.614193 -0.587915 -0.508249
72 1 8.29873 7.99877 9.24884 0.852506 0.267108 -0.253996
73 1 9.23831 0.626185 0.536652 0.175354 0.310643 0.241675
74 1 7.27553 7.21775 3.88562 0.147806 1.12942 0.506833
75 1 6.58209 1.3072 6.02876 -1.4754 0.212773 -1.47518
76 1 8.47346 0.628891 2.99017 0.533652 1.49128 -0.17744
77 1 4.59814 2.79933 1.28515 0.318988 0.412587 0.857026
78 1 6.61968 9.12767 9.04689 -0.635488 0.975758 -1.73467
79 1 4.63472 8.66172 6.09038 0.679126 0.382961 0.104298
80 1 6.18978 7.26553 0.264194 0.111844 -0.294507 -0.0376722
81 1 0.939955 5.12661 0.780075 1.10936 -0.846284 -0.385412
82 1 2.17072 7.38612 4.58654 0.515888 -1.25768 0.613854
83 1 1.42445 3.12682 3.18754 -0.607731 1.20989 -0.642161
84 1 3.19287 5.14261 6.91744 -0.139426 0.873344 0.0851689
85 1 7.7312 7.62518 6.82524 1.68889 -1.55271 0.49164
86 1 0.0163126 8.13457 0.287818 0.00201056 0.503431 -0.664988
87 1 7.60499 2.57 3.22827 0.203048 -1.14623 0.855561
88 1 0.306994 5.40779 5.16243 -0.179731 0.588191 0.122978
89 1 8.13489 5.86337 2.18112 0.0549358 0.949881 -0.497572
90 1 8.64802 2.56603 7.82152 -0.381604 -0.00492513 1.92726
91 1 4.25183 4.66807 8.62628 0.826274 -0.406579 0.855291
92 1 8.76451 4.75736 3.12165 0.284923 -0.176976 0.494795
93 1 5.94695 0.161664 6.9582 -0.706793 -0.633002 0.435302
94 1 5.49763 5.49833 7.66972 -1.06183 0.751925 0.576552
95 1 4.89247 5.76562 4.12177 0.145169 -0.0546584 -1.21127
96 1 5.75187 3.6137 6.40399 0.168461 -0.876431 -0.307147
97 1 5.26364 6.60107 6.616 0.402929 -0.147963 0.201536
98 1 8.73068 1.38634 0.0553605 -0.593859 0.495871 -0.346584
99 1 6.37259 2.93028 1.36902 0.635742 0.482948 0.0480315
100 1 0.865918 7.04019 8.28873 -0.751316 0.871616 -0.144566
101 1 6.90265 2.61847 4.17325 -0.483278 -0.430693 -0.651856
102 1 3.02348 1.08356 2.92284 0.264119 0.764157 -0.314964
103 1 7.98386 3.24937 6.50626 -0.956467 -0.705678 -0.440283
104 1 1.83123 9.19812 4.06336 0.911907 0.514701 -0.840619
105 1 2.74041 3.44692 2.52842 -0.890797 -1.00072 -0.093167
106 1 4.83966 1.57409 1.91254 -0.708496 0.30691 0.482886
107 1 0.80191 6.0289 2.77761 -1.57591 0.0158391 -0.366219
108 1 7.81482 5.76892 6.54657 0.182543 -0.66853 0.123536
109 1 6.24746 0.570009 1.99242 -0.0951063 -0.368496 -1.40712
110 1 5.22299 3.70917 4.32272 -0.127255 0.134038 -0.873078
111 1 9.27868 0.341107 3.5244 -0.879887 -0.800005 0.432024
112 1 7.87042 3.61002 7.33406 0.760969 -0.00491665 -0.92086
113 1 5.18128 7.38153 1.60586 0.303394 -0.0943541 -0.486878
114 1 2.0582 6.91628 0.679136 0.113375 -0.157307 0.00337685
115 1 9.28808 5.81233 1.62811 -1.27068 -0.059525 1.12159
116 1 5.64045 5.29983 4.43725 0.861897 -0.730694 1.32274
117 1 3.29071 5.9693 2.93133 0.531492 0.217338 -0.482082
118 1 5.9077 6.10055 6.98151 0.565529 0.538147 0.995545
119 1 7.16772 0.322323 1.72191 0.405035 0.120923 -0.124141
120 1 5.14035 0.529389 4.45861 0.306834 0.560721 1.01616
121 1 2.97996 2.15765 8.43038 0.479342 -0.392402 -0.244096
122 1 1.74041 4.63242 8.26669 -0.725511 0.181472 -0.548909
123 1 8.39476 2.42443 6.15603 -1.51672 -0.438319 0.187142
124 1 3.43916 5.39085 8.19532 -0.729906 1.88471 0.072271
125 1 3.36961 2.07179 3.37016 -0.103567 0.4966 -0.0361412
126 1 4.79577 2.10495 3.3671 -2.28393 0.0337084 1.23241
127 1 0.12928 7.41106 5.23913 0.393752 0.475535 -1.17562
128 1 6.04995 1.63897 2.45858 -0.0221186 0.877874 -0.611577
129 1 2.89827 3.25605 0.296411 -0.086554 -1.25531 -1.72931
130 1 7.04819 6.41352 8.1137 0.933207 0.653228 0.644642
131 1 7.15371 7.53986 9.09608 -0.226581 0.778406 0.29445
132 1 3.90447 9.10226 3.17891 1.20147 -0.576307 1.35947
133 1 3.82004 6.62715 2.54608 -0.920025 -0.271969 -0.77287
134 1 6.87009 9.15093 3.6388 -0.416455 -0.683444 -1.12876
135 1 1.31539 6.59101 6.59765 0.37964 0.372557 0.526713
136 1 8.88403 7.18888 5.75526 -1.36429 -0.49441 0.616989
137 1 8.86007 8.42507 2.44264 -1.98386 0.235605 0.526816
138 1 3.23057 1.99866 1.34514 0.228521 -1.15641 0.0827756
139 1 5.2808 0.667157 6.26189 -0.683661 -0.0180416 -0.258063
140 1 4.03182 1.80778 7.98713 -0.242776 0.136177 -0.394216
141 1 8.97148 5.92717 5.87157 0.548762 1.27443 0.099432
142 1 3.3949 7.82754 0.958505 0.737822 0.78675 -0.222835
143 1 5.80915 5.30577 0.267941 -0.123208 0.633069 0.243055
144 1 3.93479 3.64826 8.59258 -0.132424 -0.207615 0.417063
145 1 2.46235 8.10214 8.38025 -1.62267 0.303928 -1.89964
146 1 3.58996 7.095 0.225372 0.00980551 -0.538356 -0.586023
147 1 1.10535 2.8944 8.35625 -1.02099 -0.669625 -0.258822
148 1 5.37349 2.88109 0.534079 -0.395897 0.155536 -0.748326
149 1 2.42945 6.07249 2.73233 0.175918 -0.197731 -0.70854
150 1 3.27177 4.88532 4.53027 -0.529938 -0.691142 -0.113713
151 1 8.35708 5.77318 1.16799 -0.0733363 1.48255 0.206333
152 1 3.94354 5.38543 1.21633 -0.314872 -0.649035 0.365374
153 1 3.75195 2.72385 4.60449 0.66071 0.69272 -0.0699437
154 1 1.01977 2.55149 0.938018 -0.078297 0.723381 0.256347
155 1 8.6588 2.63649 0.265551 -0.363805 2.31694 0.727959
156 1 2.22419 1.37976 7.7312 -1.37468 0.197196 -0.335276
157 1 8.57423 0.7772 6.35132 0.0679374 -0.379231 -0.010248
158 1 5.53268 6.74509 1.14003 0.857946 0.526424 -0.221365
159 1 5.059 0.248478 0.435223 0.253576 1.11352 -0.784338
160 1 0.141494 6.83289 2.47299 0.648097 0.288357 -1.0003
161 1 3.62957 8.97739 5.29042 -0.975106 -1.47242 -0.758931
162 1 5.13908 6.35997 3.40126 -0.437952 -0.826202 1.13477
163 1 2.66913 5.0733 8.19079 -1.4499 0.0648923 1.01393
164 1 2.08039 8.33124 9.11885 -0.681984 0.379791 0.677039
165 1 8.36604 4.25931 4.59617 -0.881372 -0.828945 0.794714
166 1 4.40146 7.37176 1.0553 0.372765 0.826497 -0.304929
167 1 1.23431 6.85393 9.11804 -0.0537859 -0.700878 -0.224568
168 1 1.27158 0.626272 4.08771 -0.0285523 -0.559389 -0.0169576
169 1 1.60617 8.2169 8.11341 -1.58557 -1.03359 0.417021
170 1 8.64317 4.21619 1.64881 0.0756419 0.426767 -0.502595
171 1 1.29398 0.198375 1.89473 -0.59046 1.18699 -0.37357
172 1 7.80666 5.31055 8.85699 0.0795786 0.0566868 -1.39835
173 1 0.206087 0.0783968 1.97457 -0.682588 -0.857203 0.623164
174 1 1.48235 5.96388 3.33151 -0.0698954 -0.230256 0.0181986
175 1 4.39772 0.995826 7.83504 -0.39741 1.24407 1.97407
176 1 2.97455 3.20961 4.70608 0.373291 -1.08702 -0.145323
177 1 6.16744 3.31649 0.285552 -0.104177 1.05286 -0.325476
178 1 4.30437 1.80401 0.610273 -0.0955263 -0.73982 1.33833
179 1 5.1099 5.55532 6.27729 -0.482724 0.482064 0.161587
180 1 4.1541 2.06509 1.63971 -0.190064 0.990727 0.124938
181 1 6.83966 1.98327 8.17712 0.0872616 1.59996 -0.947207
182 1 0.804018 6.32575 1.83424 1.41935 0.0826455 1.28603
183 1 2.13398 0.439417 4.64777 0.709774 1.16687 -0.429909
184 1 7.65145 0.698876 2.58415 -0.862722 0.444809 0.121197
185 1 8.79875 2.07793 1.55279 -0.399392 -0.706514 0.573323
186 1 7.22436 4.28871 7.61205 -1.49929 -0.010411 -0.908413
187 1 3.83575 5.08413 2.29896 0.239205 0.522581 0.626006
188 1 0.582332 1.02704 4.57774 -0.451257 -0.806342 0.806351
189 1 4.5836 4.11714 3.87555 0.34994 0.487328 0.419877
190 1 4.24901 5.67318 0.0500549 -0.0427949 0.763708 -1.09779
191 1 4.39127 7.62363 2.204 -1.32331 0.247664 -0.0634036
192 1 8.42047 2.02512 3.63112 0.690896 -0.584959 -0.473647
193 1 6.84222 1.47675 7.30767 1.10547 -1.06222 -0.830707
194 1 6.72741 5.66137 4.53508 -1.5663 0.895186 -0.497639
195 1 6.65138 0.591652 7.43813 0.551832 -0.124733 0.526521
196 1 7.22344 3.32777 3.53465 -0.352522 1.29357 0.731884
197 1 5.98063 6.13156 4.06766 0.785866 1.0269 -0.593031
198 1 7.54592 3.52049 4.39312 0.832609 -0.371877 -0.249775
199 1 9.4055 8.18906 5.842 2.25664 0.205154 0.604572
200 1 7.4799 0.868978 6.82457 0.19857 -1.43771 -0.457245
201 1 2.61632 4.61066 9.05365 0.190169 -0.530062 -0.538841
202 1 2.12502 5.44025 0.0570262 0.515598 0.893353 -0.373938
203 1 8.29746 6.18536 9.06502 -0.322898 1.07297 -1.00724
204 1 8.79266 9.28678 1.92821 0.0270998 2.20479 0.475673
205 1 2.11859 4.10088 2.87651 0.584483 -0.226102 0.873488
206 1 0.962052 5.92918 8.82318 0.00158952 0.500835 0.886576
207 1 0.383661 2.35511 2.29385 0.669169 0.100262 0.605486
208 1 1.62944 6.12449 5.82101 -1.18851 -0.848593 0.348423
209 1 2.54512 3.10299 5.69675 0.498875 -0.957481 0.394326
210 1 6.20316 8.44587 0.457906 -0.720118 -0.278049 -1.93348
211 1 2.90785 6.02804 1.24243 -0.0916748 0.863786 0.438408
212 1 1.24681 0.617487 5.09808 -0.756623 -0.366867 0.980358
213 1 2.95973 3.78961 8.49016 1.79279 1.53986 0.356345
214 1 5.46795 1.74695 9.16881 0.85583 0.724343 -0.221612
215 1 8.76172 9.25247 5.65221 0.484762 -0.447467 0.713383
216 1 4.06891 4.40429 1.52901 0.291076 -0.361362 2.02763
217 1 7.79458 1.5852 7.93871 -0.862405 -1.6911 0.638009
218 1 2.51958 8.91206 0.42862 -1.41308 -1.62099 0.411019
219 1 2.04546 1.80805 8.66564 0.538174 -0.0450476 -1.43105
220 1 3.84647 0.184549 7.71486 0.906555 -0.463933 0.42879
221 1 1.61631 4.80049 1.6964 0.928157 -0.670951 -0.0799984
222 1 0.910062 3.4484 5.97238 -0.427693 0.761313 -1.17085
223 1 1.04536 3.14603 2.16186 -0.467009 0.300804 -0.262972
224 1 3.74425 8.00932 5.36307 -0.0678412 -0.621839 0.253913
225 1 3.0437 6.34634 0.247415 -0.504595 0.091378 0.473768
226 1 0.264314 6.34709 7.30669 -0.549173 -1.43568 -0.0754644
227 1 3.6768 8.60468 0.196275 0.111995 -0.0984807 -0.435822
228 1 2.32448 3.27364 3.84295 0.290858 1.37332 -0.550097
229 1 6.19953 9.22506 1.22275 0.689239 0.111965 0.288894
230 1 4.18491 4.93538 3.95701 1.12341 0.312432 0.378442
231 1 7.99384 9.16136 6.1852 -0.261029 0.807079 -1.28975
232 1 2.05522 8.15799 5.61417 -0.378032 0.614826 0.0336235
233 1 5.71982 1.56073 6.96502 0.832202 0.441517 0.0209974
234 1 6.7565 5.47184 8.31896 -0.274628 0.253355 0.125211
235 1 9.20777 7.30998 3.37031 0.837778 -1.09538 -0.719357
236 1 2.4512 6.7347 6.57974 -0.0212066 -0.732247 -0.650762
237 1 5.25859 6.45444 7.74729 0.373705 -0.317247 1.25884
238 1 3.69956 3.14707 5.59012 0.266084 1.20581 0.745275
239 1 3.24316 2.30997 5.88157 0.246396 -0.113904 -0.0242846
240 1 0.407854 3.84723 0.579065 -0.868923 0.417527 2.93137
241 1 8.90844 5.80889 7.47371 -0.54448 -0.780944 -0.113594
242 1 8.72968 5.41056 8.84426 0.478927 0.369099 -0.308991
243 1 2.67675 2.46053 4.0082 0.058339 -0.968734 -0.113705
244 1 0.0148638 2.97492 8.30642 -0.87786 0.479793 -0.102244
245 1 0.242578 3.57231 4.84938 0.987985 0.714068 0.440259
246 1 7.43485 6.414 4.33344 0.49144 0.244069 -0.00120371
247 1 5.13878 2.09042 0.787859 0.255717 0.40307 0.750895
248 1 5.85284 4.12076 9.09783 -0.3053 -0.932042 0.752058
249 1 4.83063 9.35921 2.95449 0.28044 1.02702 -0.908893
250 1 0.638012 0.494258 8.63583 -0.494827 -0.691545 -0.703033
251 1 7.26433 3.29451 8.14406 0.683705 0.11257 -0.102159
252 1 4.47713 3.27529 4.90295 0.195884 0.182305 -1.01394
253 1 1.16431 9.01106 8.52108 0.440277 -0.119141 -0.495649
254 1 3.49407 5.29952 3.68686 0.784912 0.567123 -0.419144
255 1 6.92788 4.85879 5.05771 1.35142 -1.84289 -0.694296
256 1 6.40068 4.61664 2.15089 -0.827144 0.29407 0.269317
257 1 7.52326 7.29663 1.12669 -0.146087 -0.468313 0.534884
258 1 4.03318 1.68017 7.10127 0.598714 0.0401667 0.656603
259 1 3.0361 8.16939 4.64412 -0.0532617 0.634316 0.787471
260 1 2.7996 7.3283 3.86416 -0.0572069 0.301737 1.63892
261 1 8.35659 6.07776 8.12778 -0.925509 0.437625 -0.191123
262 1 7.95733 3.57558 5.38366 -1.60201 -0.247005 0.673062
263 1 9.12585 3.19246 2.63108 0.244278 0.336141 0.132702
264 1 9.2518 5.90493 2.49839 -0.416142 0.308474 0.202724
265 1 4.2503 9.26665 2.17258 -0.228118 0.129967 -0.123669
266 1 7.75081 2.52633 8.09384 0.0178546 -0.452693 0.231901
267 1 3.57384 1.22657 4.96046 -0.533904 1.29832 0.540336
268 1 6.12661 4.86985 8.75667 -0.0520917 0.291329 -0.273974
269 1 0.995267 8.87909 4.28774 -1.43154 0.64345 -0.0479175
270 1 2.43651 0.170863 6.28479 -0.912263 0.367393 0.657426
271 1 6.79782 6.36697 7.17762 -0.566852 -0.535265 1.69847
272 1 3.59236 2.28034 2.48485 -0.518964 -0.105048 0.868554
273 1 2.03959 5.12521 3.34987 -0.63514 0.982539 0.178383
274 1 7.20314 6.20597 2.69167 -0.391789 0.313631 0.386493
275 1 4.89313 0.327596 8.09682 0.948549 0.90235 -0.745241
276 1 3.78351 2.03763 5.19404 0.609993 -0.402763 0.335885
277 1 6.40783 4.6889 0.414759 -0.5371 0.946676 -0.023449
278 1 4.10537 2.26019 3.84724 -0.780737 -0.22567 -0.992585
279 1 6.91658 5.93583 5.43502 -0.363416 0.0723586 -0.935298
280 1 8.63436 0.672678 4.23936 -0.207581 -1.60842 -0.122044
281 1 7.25123 3.02969 7.04585 0.0801262 1.14561 -0.562881
282 1 6.74384 3.75793 6.7862 0.890473 -1.45416 -0.369668
283 1 7.00364 2.92752 5.09963 1.28498 -0.639685 0.440769
284 1 4.30096 5.16442 6.85268 -0.847156 0.181603 1.25677
285 1 2.13935 0.910391 8.5674 0.309399 0.597249 -0.50871
286 1 5.14548 3.90421 5.44425 0.00562679 2.10147 -0.601634
287 1 2.7687 3.83971 3.34448 0.323956 -2.38443 -0.944722
288 1 3.38593 0.30988 3.57032 0.352321 -0.180578 1.22627
289 1 9.25339 0.0629766 9.17133 -0.161767 0.00298886 -0.813806
290 1 2.44847 3.43644 1.21766 0.242671 0.199977 0.412799
291 1 8.81206 3.93962 8.42036 0.923305 -0.61508 0.212385
292 1 5.10634 4.78082 6.95667 -1.01267 0.0147825 0.174318
293 1 6.13679 6.03377 3.06911 1.98683 0.179145 -0.396223
294 1 0.133442 7.3244 4.33452 0.0942595 -0.404768 -0.137648
295 1 0.620568 4.24465 2.2029 -0.356081 -0.909743 -0.214561
296 1 2.07395 3.39513 4.75185 -0.240433 -0.807134 -0.868606
297 1 8.09697 7.52034 5.87664 -1.23376 0.858977 0.435224
298 1 0.660682 8.8399 6.50115 -0.929492 0.355176 0.692604
299 1 5.84083 2.95518 4.12178 0.931441 -1.98052 -0.439457
300 1 0.0692781 5.93239 8.33015 -0.643693 0.596586 0.39096
301 1 2.18025 9.17006 5.46717 -0.0930636 -0.216511 -0.0124798
302 1 1.52026 5.42192 7.88876 1.0745 -0.0121383 0.760015
303 1 4.38703 0.376448 1.45204 0.488398 -0.281467 0.270526
304 1 3.96179 7.9757 7.78188 0.12308 0.418966 -1.03434
305 1 3.10665 8.581 7.81499 0.798951 -0.454565 -0.0900314
306 1 0.9667 8.77525 1.83101 -0.350909 -0.104512 0.614834
307 1 5.00266 3.42029 9.22412 0.786754 -0.997279 -1.10594
308 1 5.94728 2.45967 9.18772 1.24893 0.255009 -0.388675
309 1 3.92282 5.52606 4.55935 -0.0501727 -0.597521 0.134269
310 1 2.73787 7.68925 6.73871 1.54951 -0.305177 0.734118
311 1 1.27731 8.75435 5.33106 -0.223755 -0.133694 0.541795
312 1 1.59474 1.3294 3.40152 0.76072 0.109722 -0.206216
313 1 6.86117 4.18378 9.14247 1.11481 0.577909 -1.06909
314 1 3.08351 5.54502 2.19356 -0.743457 0.672543 -1.85086
315 1 3.4456 7.99163 3.63947 0.0873405 0.388992 -0.72077
316 1 2.71368 6.92276 5.18782 1.52156 0.427352 -0.295948
317 1 1.71583 0.131498 8.0209 1.45045 -0.385059 0.233706
318 1 4.03033 0.293054 0.377188 0.00777489 -0.0879866 0.0528988
319 1 8.03072 1.08113 3.65193 -0.278695 -0.486759 0.131492
320 1 0.000340696 1.06987 6.67946 -0.2051 -0.912866 0.856688
321 1 3.43246 9.10679 6.08659 0.0624857 0.45178 0.484846
322 1 4.97281 5.03706 9.06155 0.288341 -0.20908 1.63654
323 1 1.05915 2.036 4.71171 -0.573767 -0.609582 0.548705
324 1 5.07575 0.218695 7.11281 -0.392929 0.0649253 0.250958
325 1 4.43807 2.57931 0.213249 -0.937063 0.187745 -1.1663
326 1 3.7575 5.8105 7.42472 -0.0194489 -1.29025 -0.199638
327 1 1.94128 7.44274 3.54988 -1.29688 1.12216 -1.05659
328 1 2.97728 0.298417 5.24901 1.75229 0.351199 0.230462
329 1 7.02919 8.22641 3.98979 -0.546314 -1.74308 -0.412776
330 1 7.72808 1.44722 5.68259 0.848156 -1.1384 1.10322
331 1 6.92059 8.59966 2.79264 -0.473698 -0.447296 -1.21379
332 1 4.40978 0.750081 5.0038 0.56286 0.427633 -0.187091
333 1 1.23688 7.24224 4.26714 -1.13656 -1.65861 0.935235
334 1 0.210108 5.79313 0.732756 -0.887049 -0.013686 0.163295
335 1 6.45389 8.83749 7.36629 -0.190521 -0.0175971 -1.19721
336 1 0.776782 4.06565 4.25844 -0.00342321 -0.597543 -0.00968877
337 1 5.6731 3.33311 8.16534 0.867929 -0.136776 0.181028
338 1 9.3364 4.61858 8.06616 -0.398571 -0.388294 0.304226
339 1 5.25201 6.96685 5.78294 0.484522 -0.826758 -0.148688
340 1 6.65218 6.65445 8.98201 -0.813979 0.00968874 0.688294
341 1 6.74186 5.51043 0.609088 0.374405 -0.0904879 -0.389672
342 1 4.81046 3.63902 8.30863 -0.568319 -0.582812 0.124923
343 1 1.63355 4.2441 7.40881 -0.405516 0.544629 -0.236851
344 1 5.06388 0.922417 5.50102 -0.19185 0.522281 0.0664561
345 1 9.1238 6.97616 1.72405 0.126247 -0.0282765 0.978976
346 1 6.89025 1.56124 0.831549 -0.456173 1.53853 -0.439976
347 1 8.18907 6.89065 4.2479 0.806465 -0.560631 -0.759635
348 1 3.23771 0.0394482 0.0307946 0.139269 0.319068 -0.0153577
349 1 7.86231 8.81282 9.41054 0.248666 -0.510723 0.695155
350 1 2.59957 5.7465 3.6209 0.597096 0.527201 1.30008
351 1 3.38929 0.418484 2.41335 -0.487274 0.191927 -0.0530451
352 1 4.88244 8.66959 2.42597 -0.599943 0.76688 1.38195
353 1 8.17979 4.63196 6.83394 0.816322 0.17131 0.399749
354 1 4.7637 1.08691 6.94519 -0.0925826 -0.0342033 0.32789
355 1 6.57412 4.43524 5.79377 0.45785 0.216862 -0.662579
356 1 7.04255 4.00426 5.1846 -0.668475 0.369281 0.0885964
357 1 6.98209 5.16961 2.39218 -0.120413 0.557844 -0.933758
358 1 2.40016 4.99518 4.08891 0.0267138 -0.858379 0.686311
359 1 7.76948 4.66241 5.12466 -1.19419 1.70903 -1.23047
360 1 7.58809 0.541242 0.816355 0.253039 -1.21628 1.98006
361 1 8.36478 9.08757 2.76538 0.331506 -0.288702 -0.0258891
362 1 4.82894 6.56343 2.491 -0.288201 -0.751937 0.881203
363 1 5.49111 9.14879 5.98236 0.0222663 -0.1154 0.686571
364 1 4.21194 3.97777 5.64232 2.3956 -0.779795 -0.0941886
365 1 8.80072 2.23 2.8524 -0.278723 -1.50984 0.151888
366 1 5.91706 3.74804 3.64705 -0.00664658 -1.04567 0.218459
367 1 0.219815 5.49412 9.20502 0.151902 0.333498 0.484133
368 1 4.49351 8.83951 3.63933 -0.057019 0.051172 0.4091
369 1 4.53814 4.91768 0.690174 -1.08917 0.840117 0.3987
370 1 0.14657 4.74564 0.462952 0.794107 -0.705088 1.20673
371 1 7.05969 7.59965 1.8295 0.362097 -0.466556 0.248321
372 1 0.622342 7.21097 0.556324 -1.45634 -0.891436 -0.608773
373 1 8.89645 7.96633 7.58116 -0.489663 -0.270659 0.290356
374 1 8.25237 3.32028 8.21524 -0.96282 1.54361 -0.810181
375 1 3.56547 0.75586 5.87559 -0.0097288 -0.941902 0.696547
376 1 7.55299 4.57697 0.210318 -0.147405 0.518609 -0.301555
377 1 1.18848 3.4437 0.904955 0.765273 0.0487779 -1.17574
378 1 2.97699 5.13876 5.83779 -0.52436 -1.24504 0.992018
379 1 6.61838 3.50376 4.29153 1.3144 -0.231528 0.504705
380 1 8.22677 7.31386 7.51716 -0.641877 0.00753138 -0.776972
381 1 8.18655 6.57555 5.56105 1.59878 1.2076 -0.551505
382 1 5.73911 0.724608 2.87135 0.238009 -0.671963 0.964785
383 1 8.29638 4.37206 9.13754 0.0417534 -1.05811 0.79238
384 1 6.3392 1.3502 0.180316 -0.703931 -0.498368 -0.671381
385 1 5.43987 8.09331 8.63464 2.21747 -1.74241 0.395999
386 1 8.54015 7.55441 4.9727 -0.0837094 0.657898 0.42262
387 1 8.81427 3.93559 5.31434 0.556132 -0.190278 -0.324701
388 1 8.05428 3.90898 0.740622 0.74821 -0.153733 0.588553
389 1 6.01722 2.19934 0.636336 -0.176238 -1.45474 0.257744
390 1 3.95456 5.10326 5.31129 -0.54234 -1.06979 0.644854
391 1 7.8725 8.29969 2.59463 1.2211 0.582348 -0.535108
392 1 7.9703 2.71044 8.94274 0.325912 -0.461116 0.938756
393 1 7.97701 2.12968 2.17948 0.180076 0.131675 1.96985
394 1 1.7078 1.74693 7.0085 1.2934 -1.33416 0.44626
395 1 6.46543 7.92849 5.77813 -0.286899 1.18305 0.411265
396 1 5.31465 7.70384 2.45352 -0.282156 0.546306 0.494052
397 1 1.04486 3.59693 6.86356 0.0442814 0.398062 -0.70694
398 1 3.0182 2.83884 1.72474 -0.446525 0.801204 1.18339
399 1 0.141711 2.09622 4.09488 -0.749198 -1.14684 0.169011
400 1 2.33403 4.92968 2.46407 -0.141425 -0.585297 0.535348
401 1 4.31997 8.89156 7.07442 -0.962145 0.167854 1.23277
402 1 8.74526 1.92298 6.88518 0.211814 0.937355 0.222133
403 1 0.94583 6.62272 3.5828 0.105044 1.49072 -0.210413
404 1 6.04223 5.25981 5.24875 -0.48142 0.215495 0.175012
405 1 9.12681 7.2937 6.94357 0.0179803 -0.0270027 -0.442475
406 1 0.901581 1.20198 9.23434 0.885934 -0.0323294 0.960379
407 1 5.23406 8.16644 3.21319 0.331721 0.0947785 0.115109
408 1 9.2117 1.52928 2.40171 0.364777 -0.45497 -0.224313
409 1 2.08256 3.42494 0.434787 -0.0893678 0.0746974 -1.65783
410 1 2.49841 6.87455 8.37423 -0.424165 0.0913113 -1.95784
411 1 0.881372 6.95548 5.18297 -1.33724 1.0207 0.202591
412 1 7.70305 8.66183 3.34962 -0.41167 0.453161 -0.53045
413 1 2.95454 1.37091 5.88066 -0.849138 -0.542795 1.00428
414 1 2.13935 2.6029 8.2263 0.0922444 -0.301768 -0.749725
415 1 1.80647 3.50364 6.04622 1.66616 -0.322227 -0.815824
416 1 5.34534 4.40624 6.18495 1.39392 0.121829 -0.682218
417 1 2.04544 6.46786 3.96235 -0.737551 -0.379573 -0.157899
418 1 2.80118 0.420364 1.68281 -0.151988 -0.542031 0.530992
419 1 7.57621 9.02314 2.27202 -1.19816 0.126738 0.9409
420 1 7.02473 8.43544 1.60306 0.56652 0.700837 0.414519
421 1 0.258448 6.89728 6.19814 0.700804 0.243917 -0.188859
422 1 4.78458 0.852504 2.46337 -0.642592 -0.444196 0.213186
423 1 6.13261 6.8475 5.93909 -0.609504 0.733118 0.422297
424 1 5.42504 5.84553 2.55447 -0.695057 -1.05398 0.384781
425 1 7.20789 7.21273 4.79491 0.239595 0.80697 -0.982143
426 1 0.391739 7.29901 9.09164 1.04679 0.550105 0.574057
427 1 4.60063 4.44013 7.74596 0.296006 -0.684928 -1.31049
428 1 1.10026 4.73717 3.67767 -0.661463 0.173785 0.932112
429 1 4.53615 7.25118 4.80572 1.2603 0.546165 -0.57904
430 1 3.79116 6.01542 1.82464 -0.735264 -1.61407 0.288581
431 1 5.39572 0.170904 8.87464 -0.822486 -0.103488 -0.114097
432 1 5.25424 3.95607 1.39467 -1.12031 0.001088 0.161569
433 1 7.39933 2.19888 1.52797 0.941902 0.724417 0.0911335
434 1 2.51001 5.59489 6.60763 -0.144514 0.144691 -0.90509
435 1 7.69377 0.532303 5.67064 -1.39697 0.34337 -0.130583
436 1 2.17884 0.802146 5.64849 -0.741217 -0.705792 0.51032
437 1 4.8895 0.737853 3.42688 2.24888 -0.0807826 -0.921172
438 1 1.65945 3.83671 1.83935 0.0507931 -0.0256003 0.884619
439 1 0.758906 4.3441 5.14754 1.70783 1.35002 0.865906
440 1 8.77434 3.55287 6.21077 -0.0639711 -0.769152 0.63293
441 1 7.81956 1.04157 -0.0114773 -0.312366 0.43431 -0.0926439
442 1 6.38704 4.86138 4.2708 -0.573205 -0.0049324 -1.11601
443 1 9.36861 2.81899 1.17331 -0.500885 -2.23665 -0.382339
444 1 6.49676 0.779821 8.41833 0.903181 0.0441012 -0.0561008
445 1 8.16849 6.60553 1.52849 0.244475 -0.756812 -0.911614
446 1 3.94391 1.07761 2.04199 -0.270765 -1.23888 -0.663043
447 1 1.25694 5.32986 5.08784 -0.527669 1.05068 0.953601
448 1 6.87032 6.19985 6.3206 0.131661 0.563513 -0.698268
449 1 0.270729 9.20969 0.579341 1.55512 -0.02634 -1.50297
450 1 6.24148 7.97541 9.08358 -0.371645 0.0853278 -1.08016
451 1 0.345549 8.58753 4.9197 0.326238 0.598794 -1.13698
452 1 4.57037 6.88246 7.33665 0.388125 -0.12611 1.19533
453 1 8.22101 6.72558 2.39696 0.0545823 -0.0446163 1.37379
454 1 0.545353 1.17559 5.72624 -0.761422 -1.06258 -0.0603346
455 1 1.14492 5.43519 6.16511 0.0499478 -1.71699 -0.68698
456 1 8.46105 3.14971 4.73754 0.36466 0.126019 -0.120847
457 1 6.17983 1.45326 4.97442 0.942253 0.615544 -1.47777
458 1 8.16234 2.56526 1.06546 -1.29704 1.08869 -0.0636228
459 1 2.81314 0.570426 7.57158 0.0119114 -0.278215 0.974942
460 1 4.03796 8.14441 3.00162 -0.228067 -0.00807024 -0.0174533
461 1 5.58559 9.35756 2.1902 -0.323141 0.11631 0.803895
462 1 6.82669 1.38062 1.98364 -1.28923 0.926329 -1.19634
463 1 3.31596 8.62544 2.56194 -0.304493 0.479276 -0.202224
464 1 9.18471 4.22384 2.5158 0.254405 0.565934 -0.936698
465 1 8.21651 3.85293 3.69073 -0.115759 -0.530401 0.764361
466 1 5.06956 7.04319 8.72705 0.458551 0.137081 0.547076
467 1 4.21304 5.78115 8.51541 -1.0377 0.650666 -0.0814259
468 1 6.09261 3.5293 2.34465 0.631667 0.128193 -1.37171
469 1 2.70465 2.30609 7.62187 0.421878 -0.738399 -0.0497062
470 1 3.62634 1.08044 0.173067 0.457031 -0.318181 -1.00943
471 1 7.27782 4.38108 4.32758 0.156727 -1.13754 -1.15996
472 1 4.82635 3.49544 2.68841 -1.14698 1.09668 -1.33972
473 1 3.65705 9.00708 8.54193 -0.31142 1.03981 2.39791
474 1 0.9752 4.87911 9.26686 -0.00650217 -0.0599463 0.577475
475 1 5.61333 1.26374 3.6672 0.483226 0.29776 0.048354
476 1 4.77888 5.28163 2.53208 0.365878 -0.882327 0.800625
477 1 1.50433 0.450833 9.02188 0.426551 1.36099 -1.62383
478 1 0.923065 7.41507 3.3253 0.390953 0.0672545 -0.578133
479 1 1.47551 0.0537559 5.84958 -0.967381 -0.445486 -0.872271
480 1 5.679 6.05825 5.98333 -0.107362 0.530031 -0.486044
481 1 5.94334 7.63534 3.29699 -0.155419 -0.110999 0.830446
482 1 0.123106 2.71124 3.22549 0.272087 -0.283629 0.83922
483 1 5.83924 8.16685 1.6043 -0.241783 0.142786 1.27265
484 1 8.23533 1.83564 8.69187 -0.488761 0.838899 -0.191464
485 1 5.24364 2.41544 2.49394 -0.498435 0.402388 -0.187586
486 1 3.18835 3.55362 6.16886 -0.189349 -0.231807 0.625561
487 1 5.39067 6.55903 4.62489 0.108615 0.854759 0.0908831
488 1 6.10896 8.46556 3.69829 0.952425 -1.08491 0.676569
489 1 8.31742 0.245934 0.088475 1.17937 -1.24792 0.109942
490 1 6.99885 2.85317 2.15868 -0.0376482 -0.42235 -0.567241
491 1 0.751208 7.99629 4.42107 -1.3113 0.000259371 1.34654
492 1 5.27863 7.37278 7.58693 -0.795129 0.460968 0.801679
493 1 0.640749 5.77592 3.76243 0.207206 0.16899 0.55487
494 1 3.39956 6.50505 3.88723 0.677655 0.282871 1.17501
495 1 8.00779 1.67117 2.94587 -0.0718519 -1.24142 1.01505
496 1 4.74775 7.31316 3.19498 -0.9879 -0.271373 -0.680262
497 1 7.65569 9.00708 1.22497 -0.168702 -0.593805 -0.431418
498 1 6.84134 7.9294 7.05427 -0.375188 1.4628 1.11921
499 1 3.01353 6.50225 2.02306 0.436573 -0.666654 -1.04105
500 1 0.151506 3.87283 5.91995 0.41841 -0.502437 -1.54391
501 1 4.55521 2.15788 4.63231 -0.20009 0.193224 -0.24643
502 1 7.29273 5.3366 4.02761 -1.09372 -0.137321 -0.947996
503 1 2.00596 8.63557 4.7434 -0.732901 0.784581 0.708062
504 1 7.39075 0.431831 8.92185 0.0619557 0.350792 1.18595
505 1 4.31895 0.594398 4.03013 -0.0162539 1.38672 1.43384
506 1 3.39509 4.41408 3.7333 -0.639946 -0.262939 -0.167704
507 1 7.87249 2.6101 5.41239 0.494192 0.129652 -0.17867
508 1 7.99558 1.12684 4.85557 -0.803022 0.177395 0.636337
509 1 3.21223 3.21729 3.83258 -0.876774 -0.307797 -0.29099
510 1 1.36079 6.77503 7.61827 -0.438602 -0.0875944 0.48633
511 1 6.92072 1.96934 5.19912 1.42415 0.682006 1.16899
512 1 4.44224 6.55755 8.26821 0.51622 -0.4273 0.178788
513 1 6.44341 5.84085 9.08664 -0.00661859 0.998332 0.277877
514 1 5.55157 2.10039 1.61971 0.289316 -1.72319 -0.612803