ITEM: TIMESTEP
372650000
ITEM: NUMBER OF ATOMS
1000
ITEM: BOX BOUNDS pp pp pp
0.0000000000000000e+00 9.4000000000000004e+00
0.0000000000000000e+00 9.4000000000000004e+00
0.0000000000000000e+00 9.4000000000000004e+00
ITEM: ATOMS id type x y z vx vy vz
1 1 1.64204 3.86956 1.90636 -0.709929 0.172484 -0.954113
2 1 5.03948 6.66732 5.92763 -0.796335 1.42614 0.751974
3 1 5.24574 3.34405 4.16213 -0.530945 0.47773 0.0659533
4 1 3.7494 7.52413 3.94967 0.507541 0.0683502 -0.766889
5 1 8.21518 2.69893 2.09564 -1.02047 0.80926 0.40315
6 1 1.70391 3.76632 5.52069 -0.879614 -0.762079 0.0491074
7 1 4.89115 3.35444 8.27001 -0.624178 -0.650924 0.172304
8 1 4.29178 7.0312 6.49847 0.248507 -0.400796 -1.39707
9 1 1.34994 6.20451 8.73698 0.71824 -1.57038 -0.190976
10 1 1.84674 3.57449 4.59499 0.514593 -1.77771 0.00574747
11 1 4.74947 2.79733 9.14595 -1.57107 0.0940173 -0.370228
12 1 0.294164 8.04941 3.64273 0.0842431 -0.172448 0.0330042
13 1 2.7883 8.20988 4.05362 1.68379 0.113573 -0.202367
14 1 3.03072 7.90224 0.179079 0.49865 -0.0339857 -0.667441
15 1 0.178413 5.0181 6.58681 -0.351785 0.034615 -0.248961
16 1 5.76298 9.12067 8.40808 -1.32525 0.726774 0.274433
17 1 5.48303 5.38191 7.28405 0.278679 0.558981 -1.18666
18 1 7.59292 2.20307 2.52833 -0.0903707 0.758313 -1.22668
19 1 3.87333 1.43144 2.57575 -0.191414 -0.862487 -0.231054
20 1 8.80064 9.17611 7.88043 0.228762 0.535551 0.470117
21 1 9.13137 5.19233 2.03399 -0.0141698 -0.666814 -0.835423
22 1 5.84205 6.44013 0.0634289 -0.474952 0.476177 -0.394414
23 1 2.51779 1.62406 2.11095 0.378492 1.16158 0.0709429
24 1 8.42343 3.66427 4.05669 0.463139 0.568202 -0.576027
25 1 7.51011 4.27667 1.5613 1.14129 -0.124017 -0.560045
26 1 5.05262 2.72217 5.20758 -0.755252 0.349912 1.11733
27 1 2.6497 0.749241 5.74091 -0.184367 -0.0978312 0.670684
28 1 3.33439 4.22022 3.44817 -0.48428 1.12457 0.869024
29 1 3.5775 5.42988 7.9675 -0.262376 0.965836 0.0741482
30 1 8.52277 1.64035 6.31185 0.0920612 0.607619 0.257591
31 1 4.17396 9.31076 5.95853 0.545899 0.159982 -0.0800105
32 1 4.86408 1.6736 5.29879 0.574644 0.567002 -1.24409
33 1 3.02505 0.592892 7.77379 0.346693 -1.21869 -0.67897
34 1 6.68966 0.628084 4.62592 -0.0581892 -0.575402 1.11083
35 1 1.19995 2.28889 0.412033 -1.57668 0.104247 0.871904
36 1 5.36807 2.25894 6.00074 1.17549 0.420707 -2.21575
37 1 8.95392 5.60404 7.11632 0.448534 -1.57659 0.978569
38 1 0.196506 8.95979 8.50607 -0.858403 0.730158 -0.909218
39 1 3.04492 8.10623 5.99892 0.00399843 0.0310163 0.701665
40 1 6.87929 4.38105 2.15191 -0.221028 -0.0325954 -0.582436
41 1 6.56389 8.48904 5.57477 -0.566992 0.172609 -0.516041
42 1 0.194869 1.32099 1.5499 -1.04396 2.09419 0.301733
43 1 3.34002 5.97222 3.35722 1.27387 -0.862175 -0.252479
44 1 6.8168 0.0252178 5.83891 -0.389672 -0.131207 0.298953
45 1 2.46861 0.0650558 9.32131 -0.499505 0.651852 -0.514371
46 1 3.05138 2.3603 5.84067 -1.67544 0.120844 -0.719919
47 1 8.49524 1.52489 9.12355 -0.230681 0.651916 -1.06236
48 1 9.1203 1.10764 7.97558 -0.361404 0.520528 -0.484184
49 1 2.97588 6.95593 8.11249 -0.102796 0.0332979 -1.77586
50 1 8.41208 3.708 5.57779 -0.520337 1.2854 1.23772
51 1 1.59347 9.28652 4.48979 -0.535577 1.54606 0.942678
52 1 7.95353 8.9081 1.38675 0.11882 0.0601476 1.49497
53 1 1.0851 5.23052 9.26324 -1.35123 0.488468 -1.82302
54 1 1.69735 1.58191 3.66361 -0.77261 -0.399971 1.3189
55 1 1.11818 0.523071 1.30435 0.516401 0.717878 -1.33746
56 1 4.22031 5.56781 2.37486 0.623961 -1.21073 0.214604
57 1 3.04431 2.29862 9.36898 -0.536182 -1.18402 0.615205
58 1 4.15441 2.49614 5.47633 -1.83145 -0.246184 -0.782679
59 1 4.59526 5.44184 7.33229 1.14167 -0.42057 0.859688
60 1 5.25923 8.92816 7.60503 0.235095 0.581613 -0.0142535
61 1 8.6941 6.68836 3.01143 -0.114034 1.14146 1.14417
62 1 0.029853 8.30346 5.19866 -0.819211 0.668829 0.841483
63 1 4.9417 9.33701 1.55635 -1.04068 0.320673 -0.87516
64 1 0.61583 5.30137 8.45077 1.10879 1.39527 -0.69074
65 1 1.12796 7.54099 4.22379 -0.87729 -1.45579 -0.218906
66 1 6.46485 6.33614 4.43853 -0.976053 0.96301 0.207128
67 1 5.25081 1.62785 9.27738 0.259726 -0.864658 0.10288
68 1 7.26185 0.710707 3.43422 -1.26223 0.363566 0.249202
69 1 0.362837 6.67114 7.38377 -1.1885 0.709563 0.56858
70 1 3.56299 1.934 8.77066 -1.6321 -0.751046 -0.097305
71 1 0.547475 1.76968 4.58484 -1.2186 -0.247955 -0.662887
72 1 7.31024 8.76612 2.38188 -2.12669 0.0657232 -1.36348
73 1 1.18171 8.70657 6.7395 -0.672147 -0.101679 0.147514
74 1 3.21864 9.14449 5.45408 -0.637679 -0.449134 -0.73137
75 1 1.22491 7.92005 7.63508 0.214036 -0.0615356 0.978842
76 1 2.54368 5.08756 6.68971 -0.728137 0.236572 0.501726
77 1 8.63111 0.864417 4.33165 -2.04465 0.0491776 0.509098
78 1 9.12528 2.65499 9.1984 -1.1938 0.635222 -0.178934
79 1 7.55579 1.6606 8.78612 1.03753 -0.533212 -0.945189
80 1 3.42864 5.34333 2.66402 -1.54281 0.667031 1.42473
81 1 7.49454 9.01998 3.46761 -0.347751 -1.26658 0.153366
82 1 3.5638 8.8744 0.352774 0.141248 -0.702458 -0.224647
83 1 5.74023 6.1964 8.2066 -0.667044 0.0368661 1.48225
84 1 2.71758 9.22398 2.80795 0.752392 -0.53082 0.365207
85 1 9.05841 0.126528 3.83451 0.217902 -0.126038 -0.0335001
86 1 7.2218 3.0717 7.37146 -0.407157 -0.447801 1.35938
87 1 4.8265 6.20967 4.63955 0.157065 0.404924 -0.0529183
88 1 2.49092 9.13812 3.71779 0.0978213 -0.281623 0.978419
89 1 9.27436 4.11272 8.05731 -1.13665 -0.846404 -0.290604
90 1 8.26065 5.98052 6.6665 -1.37351 0.605229 0.902876
91 1 0.935541 8.46805 4.60915 -0.898413 -0.412018 -0.247536
92 1 5.42284 6.05598 6.55077 -0.333334 0.74347 -1.17357
93 1 4.19733 7.80033 1.27626 -0.0814208 -0.414744 1.10182
94 1 7.0666 4.18735 0.329855 -0.770775 0.199349 0.490571
95 1 7.41836 0.734048 5.41181 -0.318462 0.137598 -0.277212
96 1 9.38224 8.56024 4.21912 1.28021 1.02058 -0.371526
97 1 2.9831 7.51724 4.62862 -0.396454 0.312487 1.40454
98 1 7.2387 5.46998 6.65184 1.35065 0.0198091 -0.902597
99 1 2.64369 4.67383 8.65981 -0.100097 -0.127322 -0.419798
100 1 1.94047 4.07756 6.78447 1.01319 -0.765071 -0.673075
101 1 3.55681 6.71708 4.24351 0.605421 0.318617 -1.02703
102 1 7.32415 5.59329 4.21062 0.430502 -0.914811 -1.15944
103 1 4.62602 6.59795 0.0548279 -1.34119 -0.455938 0.437168
104 1 1.69546 3.56697 7.54677 -0.850559 0.820466 -0.436711
105 1 1.49944 4.84702 2.75388 -0.355043 0.381876 0.0509716
106 1 0.194383 8.86964 1.43285 0.568344 -1.53982 -1.13624
107 1 0.911533 2.68986 3.76914 1.04348 2.17993 0.0732256
108 1 8.99213 1.71859 4.56335 -0.888149 -0.968152 -0.21164
109 1 2.10325 7.57461 4.42372 0.47738 -0.974168 0.237009
110 1 4.4316 3.60595 5.48191 0.734054 0.585444 0.209819
111 1 3.32053 4.30952 7.79535 0.25388 -1.26748 0.0159324
112 1 6.64576 9.29499 8.67696 -0.752132 0.802589 0.682303
113 1 8.61301 5.89047 3.64931 0.50342 1.2161 -0.702814
114 1 7.94173 2.55364 6.58611 1.07524 0.684682 -1.28174
115 1 4.75156 8.22991 7.56253 -1.16564 0.211177 0.333164
116 1 1.95617 9.36368 0.690795 1.92891 0.437519 0.112266
117 1 6.98895 2.1482 0.81502 0.306887 1.36274 1.03874
118 1 8.37142 8.55643 0.28146 -0.741265 1.01372 0.470702
119 1 8.14329 0.678646 9.25904 0.340081 -0.0604736 0.395767
120 1 1.85393 5.75721 6.61112 -0.602244 0.407366 -0.541564
121 1 4.09507 4.67461 7.71864 0.913637 -1.73089 0.223607
122 1 3.92956 5.71477 6.465 1.03866 0.639887 0.848866
123 1 0.752449 8.40283 0.881778 -0.496981 0.537814 -0.0386182
124 1 7.72465 0.485219 2.70232 -0.607052 -0.201719 0.159661
125 1 4.85248 4.24075 9.22957 -0.204019 -0.203657 1.10862
126 1 8.986 2.17494 1.48994 -0.416723 -0.481403 -0.493169
127 1 4.86851 4.56598 7.22038 -0.25219 -0.5173 -0.16381
128 1 8.98249 3.41364 2.81457 0.868073 0.607888 -0.509813
129 1 1.58773 4.54301 -0.000138696 -1.10305 -0.649875 -0.4092
130 1 0.122379 7.89582 -0.0261576 -0.992241 -0.369299 -1.83356
131 1 4.277 1.04975 3.68812 -0.15311 0.862419 0.377369
132 1 6.62761 3.64243 1.842 -1.72327 0.82925 0.319502
133 1 7.34561 5.65447 9.32576 1.30157 -0.406457 0.853856
134 1 1.33759 1.30835 0.0183199 -1.63354 1.00646 -0.0596473
135 1 6.33532 1.77659 9.21298 0.0597837 0.207464 -0.121909
136 1 0.550775 1.84372 5.56983 -0.827651 0.659547 0.234433
137 1 8.5011 4.56353 5.92623 -0.560757 -0.860073 0.687528
138 1 8.68664 9.08121 8.92681 1.18755 -1.36097 1.24926
139 1 3.7512 7.93977 2.9258 0.609864 0.961806 1.59331
140 1 6.70995 2.66514 1.54721 -1.00278 0.139074 -0.0831793
141 1 2.0257 2.68521 0.534546 -0.727382 -0.0927959 -0.396823
142 1 2.46618 1.69162 3.18529 0.319801 -0.82801 -0.0151088
143 1 0.361579 3.44717 3.6735 0.672888 -1.02162 -0.0442372
144 1 7.04654 2.10909 7.17722 0.394804 0.026775 -0.698912
145 1 5.67736 1.54435 2.78807 -0.233261 -0.296973 1.11107
146 1 0.312579 6.78487 2.93461 0.328047 -0.632861 -0.703391
147 1 2.09642 7.69905 3.58289 1.00648 0.771707 0.490862
148 1 7.50733 3.55401 5.89785 1.78546 -1.53247 1.36523
149 1 5.8554 7.3501 7.09994 -0.744066 -0.916419 -0.18547
150 1 6.0051 0.071033 1.91161 -0.213488 -0.351182 -0.0083067
151 1 4.77766 4.30049 8.36482 0.995964 -1.33104 -0.38574
152 1 0.244987 2.78567 3.10012 -0.747332 0.333526 1.56741
153 1 1.03244 6.96217 7.97455 0.401882 -1.28781 0.17905
154 1 5.89211 6.89266 6.21469 0.120819 0.581958 -1.14567
155 1 7.35712 4.78754 3.42517 0.323897 0.232241 -1.4053
156 1 0.318068 8.97769 3.35853 1.23614 0.444794 -0.458995
157 1 1.7479 5.66324 2.69863 -0.513745 -0.867962 0.371722
158 1 1.63226 1.12617 1.87456 0.379241 0.093368 0.162666
159 1 7.10106 5.31333 5.74724 -0.0899983 -1.10571 -0.744302
160 1 0.770635 1.03822 2.22976 0.656519 0.0690926 1.9501
161 1 6.28709 1.4874 4.57329 0.0460458 -2.1922 -0.464842
162 1 6.53651 5.56638 3.59045 0.6882 0.4009 -0.271511
163 1 0.864606 3.86762 6.10738 -1.038 -0.801287 -1.15168
164 1 5.46692 0.313173 0.564717 -0.17171 0.448494 -0.759672
165 1 2.79227 2.20243 8.45745 0.689368 0.821496 0.587172
166 1 6.99198 6.79324 3.50354 0.539744 -0.927439 -0.107615
167 1 3.30602 9.07156 4.43197 -0.817809 -1.22277 0.520728
168 1 7.20083 1.24379 2.51799 0.140348 -0.366536 1.72265
169 1 2.61607 4.88931 4.95712 -0.620536 -1.0565 0.120774
170 1 5.75547 1.63142 8.53249 0.266839 0.0391541 0.510693
171 1 8.63029 7.72761 4.61903 -0.621459 -1.31124 -1.23459
172 1 5.83244 8.3379 6.83051 -0.111332 -0.474112 0.673755
173 1 8.25631 4.44012 4.32028 1.25524 -0.729979 0.447314
174 1 3.77189 5.61281 1.52715 0.0313015 0.822384 -0.389155
175 1 7.19419 7.56388 0.931336 -0.355534 0.394729 -0.73823
176 1 3.83179 6.69605 3.25811 0.535354 0.277508 1.34132
177 1 1.87043 0.256877 8.02621 0.366253 -0.241767 1.33755
178 1 3.51023 9.3339 7.3221 0.771227 -0.827308 0.362975
179 1 6.95554 6.97139 2.68625 -1.08102 0.10815 -0.192049
180 1 2.51518 1.19 8.3828 0.856538 -0.0195296 -0.743358
181 1 2.35663 8.07222 1.81057 1.15652 0.42486 -0.13366
182 1 3.84708 1.68674 5.53589 0.447892 0.407872 0.126906
183 1 0.516465 4.81335 4.79368 0.0820366 1.18534 -0.35821
184 1 7.76233 0.340927 1.68252 1.67813 0.151174 -0.0771267
185 1 6.11283 6.46055 3.4287 0.278058 0.533581 0.227085
186 1 4.97229 8.69156 0.0851106 1.09599 -0.336246 -0.15629
187 1 4.40776 6.46059 2.61385 0.182356 -0.375937 0.163808
188 1 0.223028 0.388541 7.88182 -0.180683 -0.443509 -0.0333178
189 1 4.26669 9.06196 3.92802 1.1446 0.31561 -0.38061
190 1 2.52236 8.63553 9.03192 0.0450945 -0.727785 -0.0563029
191 1 4.21805 5.87842 3.77595 -0.327048 0.659633 -1.1334
192 1 5.72672 8.38368 2.70795 1.81886 0.567984 -1.64551
193 1 8.17442 0.849009 6.10679 -0.853956 -0.512488 0.366755
194 1 5.16931 6.38566 0.771454 -0.339835 0.551971 -0.182469
195 1 2.85316 7.02444 3.76782 0.223889 0.57206 0.379371
196 1 2.28039 8.59012 6.71644 0.266015 -0.27054 0.890521
197 1 9.25456 8.05831 1.79448 1.10447 -1.10456 0.626673
198 1 2.26472 9.316 5.53761 0.151336 -0.023865 -1.18778
199 1 9.31917 0.366138 4.81697 -0.382126 -0.066195 -0.476383
200 1 6.57991 1.55834 3.16231 0.781577 0.147302 -0.122793
201 1 2.95969 0.27054 0.615177 -0.556091 -0.212031 0.0583677
202 1 6.00302 3.20893 3.19728 -1.02486 -1.33335 0.323604
203 1 6.90739 5.97413 8.172 -0.41306 1.14653 -1.60154
204 1 7.76746 2.56764 7.8383 -0.524296 -0.0154234 0.43623
205 1 9.16548 7.02415 1.319 -0.328118 -0.877931 -0.0590176
206 1 2.93637 6.51629 2.77538 -0.187038 -0.226361 0.237213
207 1 6.10971 4.38699 9.35153 -0.98472 0.466608 1.13051
208 1 2.61221 3.48644 5.686 1.12503 -1.48064 -0.512294
209 1 4.91393 4.35224 6.05392 1.15195 1.7359 -0.35832
210 1 4.01576 0.986715 1.73625 0.413556 0.478107 -0.481036
211 1 2.41051 0.698155 3.78862 -0.173431 0.709436 -0.519271
212 1 1.38545 8.99453 1.51615 0.606545 -0.425813 -0.774001
213 1 2.82792 5.96448 6.46889 1.82319 0.0622712 -0.261193
214 1 1.98499 5.73091 7.50749 -1.41104 -0.858578 0.236011
215 1 7.95386 9.33706 7.47979 0.334544 0.956175 0.308555
216 1 6.28046 0.922895 9.38423 -0.662134 -0.406775 0.419309
217 1 1.83819 4.75363 5.36815 1.21531 0.965217 0.55846
218 1 7.7418 7.8206 0.234303 -1.36668 -0.381646 0.242468
219 1 7.12338 8.51737 1.50172 -0.931486 0.523667 0.0974303
220 1 4.92187 9.12545 2.59832 0.127617 0.254094 0.143927
221 1 3.53495 8.17858 4.66069 -0.788 0.476909 0.242839
222 1 9.33153 4.09857 6.97636 -0.257962 -0.694088 -0.439376
223 1 5.21243 3.50254 2.55842 0.469911 0.445801 1.18086
224 1 7.72011 8.37342 8.83952 0.156349 0.161429 -0.0687007
225 1 2.01399 5.49402 1.81099 -0.318282 0.573316 1.39945
226 1 4.62472 2.93692 2.05578 -1.01769 -0.14123 -0.846768
227 1 5.51998 7.17214 7.99339 1.19657 0.302555 -1.12857
228 1 1.68742 0.431237 5.1698 -0.237758 1.48185 -0.27741
229 1 9.05086 1.75858 7.15864 1.03997 0.436517 -0.0203762
230 1 6.32683 7.11684 0.667355 0.634216 -0.0516986 -0.748132
231 1 5.42874 7.21784 0.511427 -0.728349 -0.850635 0.635012
232 1 2.90287 3.36549 2.46668 0.655499 -0.645204 0.193346
233 1 2.8858 5.73028 2.13839 -1.46427 -0.818907 1.35066
234 1 0.254553 6.34093 5.8042 0.378307 -0.213617 0.0307594
235 1 7.44136 3.37416 9.31238 -0.832814 0.786133 0.411595
236 1 3.26184 6.29188 8.60081 0.232325 0.0730913 0.109803
237 1 4.13403 8.23079 0.377422 -0.768559 0.212471 -0.297622
238 1 4.84437 5.28428 4.40125 0.969795 1.27294 -1.38546
239 1 5.66854 0.585133 6.18321 -1.29134 -0.454473 -0.0708232
240 1 8.10029 7.07019 3.43921 0.576868 -0.942449 -0.663227
241 1 7.10579 6.34752 6.25407 -0.706412 -0.686967 1.41189
242 1 3.87974 2.03556 1.66959 -0.0879814 -0.0652213 0.233974
243 1 0.642172 5.55244 5.51083 -0.59591 -0.342914 0.330618
244 1 2.29277 2.5375 1.91459 -1.1266 0.362964 0.133526
245 1 4.46784 0.724613 5.50574 -1.1447 0.79056 0.691116
246 1 1.71856 7.74603 6.54786 0.326746 0.113801 0.464535
247 1 3.53777 3.89364 2.29743 -0.6202 0.649862 -1.01595
248 1 8.53319 7.754 7.30101 -0.0727399 0.151952 0.494298
249 1 0.806073 6.42717 0.411243 -0.29003 0.17957 -1.6853
250 1 3.01859 0.796609 6.71502 0.9945 2.1526 0.632333
251 1 7.60995 4.85559 5.10914 -1.58916 1.91637 -0.76936
252 1 4.23565 6.07869 0.872839 -1.21408 -0.272556 -0.0804599
253 1 2.58589 1.11444 1.34902 -0.0152985 0.0106315 0.102306
254 1 1.54457 2.95822 1.46519 -0.00112531 0.150058 -0.89413
255 1 5.01103 8.31366 5.5773 0.138528 -1.064 0.474926
256 1 5.06309 3.69198 6.72174 1.47411 -1.22185 -0.157948
257 1 5.51059 4.79395 3.41768 0.669706 -0.546868 0.21881
258 1 6.30114 6.78206 1.74343 0.592 1.54464 1.30015
259 1 8.78041 4.07424 1.19489 0.29643 0.457779 -0.141873
260 1 6.22399 0.725342 3.43258 -0.07612 -0.474455 -0.949814
261 1 1.06037 4.03813 0.81142 0.910808 0.390743 -0.958184
262 1 3.53007 0.510394 5.95686 -0.00875589 0.276117 -0.200356
263 1 0.886336 7.65974 2.84861 -0.73513 -0.118962 1.2401
264 1 4.30776 3.12368 0.426592 0.648305 0.184554 -1.68651
265 1 9.29047 4.97162 5.4186 1.12881 0.00811591 -0.500319
266 1 2.14882 2.61976 4.54073 0.600031 -0.922804 0.972879
267 1 0.457642 2.92551 2.27547 -0.553813 1.89012 -2.5822
268 1 3.66555 7.04849 2.47821 0.278663 0.635188 -0.214286
269 1 1.4751 2.78439 8.90905 0.482978 -1.2686 -0.924659
270 1 1.85798 0.299443 1.7379 0.00610336 -0.490415 -0.358659
271 1 2.78506 3.24363 4.68665 0.234857 0.705733 -1.09431
272 1 5.13548 7.68769 6.5706 0.234706 1.0153 -0.52863
273 1 3.18414 3.0483 3.24442 0.18966 -0.963625 -0.496527
274 1 6.94075 9.37529 1.33923 1.31999 -0.117075 -0.57778
275 1 2.30118 0.734507 2.46907 -0.918818 0.704991 -0.223183
276 1 5.04865 0.984233 8.64483 -0.0931983 -0.37718 -0.206324
277 1 9.3842 2.08479 6.28576 0.876055 -1.33227 1.05301
278 1 4.57092 1.88887 8.84609 -0.540961 0.533735 1.39328
279 1 7.56362 5.12907 1.58466 -1.20526 0.655153 -0.0688902
280 1 4.11917 8.77191 7.99267 -0.747181 1.03656 -1.74581
281 1 7.57405 1.64058 5.97691 -0.729586 0.39344 -1.26301
282 1 1.19937 1.95407 7.14081 -0.748681 0.928123 -0.199061
283 1 5.38826 5.99776 5.52515 0.832678 0.63763 0.587997
284 1 9.34311 3.32203 5.64622 -0.773045 -0.662133 0.244909
285 1 4.17714 3.68255 9.09181 0.174589 -1.09754 -0.100404
286 1 6.40454 4.75972 8.55628 0.704319 0.590403 0.0947794
287 1 1.81316 6.49372 4.04429 0.119713 -0.887953 -1.03962
288 1 6.16693 1.96044 1.39825 -0.983605 0.490614 -0.430455
289 1 5.1694 4.70008 1.23974 0.0399984 0.419834 0.66331
290 1 8.16836 1.62757 4.03491 -0.477121 0.0424849 0.615747
291 1 0.564469 4.86211 2.24308 0.259917 0.487131 1.45346
292 1 0.103232 7.56212 4.58094 0.416337 -0.992286 0.0429692
293 1 0.510287 0.607292 5.4631 -0.131041 -0.803451 -0.158108
294 1 8.72146 6.11556 5.19694 0.632189 0.230441 0.66503
295 1 4.89963 5.39254 0.380557 0.110347 -0.360828 0.71986
296 1 9.01938 8.7607 5.83942 0.218798 0.371364 1.08497
297 1 7.15893 1.0476 0.0362926 1.22829 -0.578616 0.834993
298 1 0.985606 7.33948 6.95954 -0.515809 0.0468311 -0.159814
299 1 4.56301 1.53648 7.11399 -0.409405 0.096389 0.11514
300 1 0.811888 3.20062 5.47361 0.543844 -0.662613 -0.593266
301 1 0.271233 6.07668 6.65388 0.781995 -0.146385 -0.874721
302 1 0.0792787 5.9109 4.67985 -0.477652 -0.505183 0.659855
303 1 5.74073 5.47484 4.7349 -0.413368 -0.488232 -0.549577
304 1 7.9598 9.32294 5.60554 0.685746 0.180583 0.64815
305 1 9.16519 6.59071 9.14676 0.654916 -0.242215 -1.22562
306 1 4.15534 4.54205 1.63199 -0.615894 -0.360473 -0.545428
307 1 2.54321 9.28212 7.31852 0.294779 0.284282 0.292545
308 1 0.206539 0.897558 4.11242 0.456785 -0.209439 0.560447
309 1 6.57086 8.79413 6.56001 1.84791 0.531171 0.668602
310 1 2.6144 6.89006 0.564532 0.386173 -0.00777328 -0.85913
311 1 6.26583 3.18011 4.12883 -0.109385 -0.551017 -0.30168
312 1 5.51514 9.36635 6.87435 1.55282 -0.104816 -0.024189
313 1 2.93754 6.20488 5.0361 -0.450477 -1.14101 0.458007
314 1 8.04916 3.54815 1.559 -0.0218625 1.17022 -0.802718
315 1 0.102776 4.53582 1.41274 -0.419554 0.162146 -0.534108
316 1 7.39356 8.60492 0.530117 0.253216 0.328907 -0.44739
317 1 0.72127 4.05908 4.30034 0.556173 0.182145 0.773488
318 1 3.09634 4.91844 1.8037 0.0518124 1.95254 -0.132458
319 1 2.51428 7.15356 2.3506 -1.32488 -0.327801 -0.841813
320 1 0.564639 1.48304 7.89081 0.746496 0.510202 -0.603442
321 1 3.5224 4.36893 0.995776 0.76263 -1.08385 0.0873667
322 1 1.60242 8.1139 0.996329 -0.92522 -1.61827 0.779367
323 1 4.54617 7.15483 4.11445 -0.17196 -0.515338 0.616728
324 1 3.25526 8.71922 2.18543 0.577761 0.54565 0.221624
325 1 2.96217 2.28665 2.42952 0.117581 2.02305 1.51224
326 1 5.31176 5.34721 2.20871 -0.00911228 0.694731 -0.76345
327 1 7.86146 1.66839 0.319187 -0.432852 -0.214618 0.23227
328 1 5.38696 7.48056 3.50658 -0.371295 -1.19751 -0.360232
329 1 6.60447 2.11184 8.36757 0.629177 0.0919199 1.301
330 1 7.13022 5.89828 1.33565 -0.77001 -0.400169 0.546532
331 1 5.54596 3.11244 7.73558 0.208652 0.0879008 0.111157
332 1 4.2341 1.55422 8.03673 0.268582 -0.551276 -0.581043
333 1 6.37434 6.06121 6.90462 -0.0296954 0.446862 0.335433
334 1 6.55585 0.381383 6.64895 0.0903315 -0.649943 -0.760432
335 1 1.91931 6.61326 8.20978 1.58089 1.79389 0.278456
336 1 4.98444 1.51084 3.3205 -0.0155136 -0.0409073 -1.40689
337 1 0.351551 5.42481 1.497 0.716409 0.342386 -0.584124
338 1 4.864 2.32764 6.77219 -0.313222 -1.56098 0.639955
339 1 6.68145 1.37328 0.763417 -0.960976 1.05105 0.831587
340 1 6.26793 7.2061 4.00265 -0.681677 -0.413032 -0.444204
341 1 5.15354 5.83904 8.98359 0.727508 -0.517461 -1.17665
342 1 2.06895 1.67127 5.83469 0.229823 0.476064 -0.936132
343 1 0.92977 7.00701 9.07283 0.480585 -0.0407967 -1.12631
344 1 5.53814 3.80547 1.65643 0.394831 0.583065 1.4623
345 1 4.79774 4.55329 5.16649 0.592935 -1.31458 1.58177
346 1 6.03134 2.4054 3.52157 -1.08447 0.495014 -0.130344
347 1 1.12562 3.2831 3.00837 0.331091 0.263839 -1.10981
348 1 6.19756 9.25487 7.36306 1.35717 -0.952591 -0.790169
349 1 0.879311 4.75846 5.86411 0.0122022 -1.36974 0.131642
350 1 2.45866 3.49179 0.442633 1.04686 -0.167881 -0.0469317
351 1 6.47707 6.67161 8.76493 -0.212137 -0.121959 0.206188
352 1 5.82608 7.7714 5.64831 -0.527005 -0.793192 0.644717
353 1 9.38892 1.27178 5.29086 0.245428 2.10421 0.159963
354 1 6.87376 7.9577 3.67993 -0.928978 0.31748 0.395634
355 1 8.38257 2.20489 3.0528 0.953435 1.49092 0.393041
356 1 5.18205 0.137754 9.04349 0.876439 0.408616 0.103105
357 1 1.48477 1.97939 4.49586 0.669644 1.03025 0.194974
358 1 1.97906 2.07401 8.901 -1.01534 -1.78775 -0.303932
359 1 4.89759 0.455874 4.13475 -0.154015 0.0605041 0.472756
360 1 3.68756 2.52891 0.74647 -0.469207 0.201697 0.418693
361 1 9.29171 3.32133 4.48267 0.565318 -0.767518 0.670331
362 1 9.30858 4.13943 5.88004 0.873955 -0.244342 -0.817901
363 1 0.112675 5.92485 3.78149 -0.841508 0.144374 -0.428089
364 1 9.3766 7.30074 8.53599 -0.198061 -0.0848419 0.586011
365 1 8.49759 5.21257 5.15685 -0.540101 1.81487 -1.49733
366 1 7.14409 9.34249 4.92934 0.582483 -0.992272 0.573128
367 1 5.26081 2.55224 1.55226 -0.520662 1.42611 -1.82485
368 1 3.60864 1.17996 9.22474 0.900899 -0.423485 -0.255486
369 1 2.11781 6.72871 3.14205 -0.113002 1.75025 -0.237925
370 1 2.67353 6.94244 1.46781 0.0326354 1.37307 -1.22402
371 1 5.37666 4.03198 7.66927 -0.461615 -1.36845 1.07608
372 1 4.38019 9.15132 7.25843 0.253734 1.03851 -0.212865
373 1 6.85641 8.48173 8.98401 0.714647 -0.424472 -0.630693
374 1 0.806803 9.26547 3.934 0.387637 0.130078 1.10811
375 1 5.14587 2.95302 0.727456 2.21098 -1.04191 0.611295
376 1 5.95505 2.44303 0.544697 -0.902674 -1.33422 0.221987
377 1 3.25658 4.73132 6.1501 -0.891502 -0.357328 0.981129
378 1 2.42371 5.75054 8.26351 0.297778 -0.13078 -0.758134
379 1 3.17066 7.68188 7.63585 -0.732771 0.983908 -1.52567
380 1 8.55637 6.95902 7.99748 -0.679651 -1.07706 2.03767
381 1 6.50925 3.52665 7.78922 -0.968197 -1.18916 -0.211499
382 1 8.92156 2.59065 6.79214 0.472272 -0.581373 -0.663279
383 1 8.78707 9.26885 1.54467 0.140643 -1.11705 0.352732
384 1 9.05588 4.95744 8.24233 -1.01024 -1.02483 -0.576929
385 1 9.03795 5.68051 8.68679 0.818657 -0.946338 -0.493635
386 1 7.44058 2.43565 5.67945 0.177278 1.38907 -0.202705
387 1 4.58362 8.00859 3.68122 0.081685 0.795728 -0.858401
388 1 4.3693 1.76309 4.47966 -0.437868 -0.778793 -1.72195
389 1 8.69883 1.42684 3.24067 -1.27262 -1.09211 -0.621586
390 1 6.59792 6.86824 7.46957 2.05955 -1.73961 -0.885331
391 1 3.21454 3.82991 8.84081 -0.598785 -0.143098 -0.286492
392 1 1.92435 1.79567 7.96157 0.0225627 0.0523444 -0.0382763
393 1 8.59313 8.75752 4.99602 -0.625782 -0.311585 -0.704317
394 1 9.1142 0.609579 8.6889 1.38939 0.669965 0.840815
395 1 8.89936 5.07735 4.47443 0.444697 -0.215119 -1.28127
396 1 0.230381 4.671 3.0388 1.249 -0.190434 0.564363
397 1 6.85253 3.93466 8.84045 -0.00271734 -0.444978 1.37239
398 1 6.83978 0.441723 1.99715 0.371751 0.746935 1.37277
399 1 4.09892 4.66731 0.131667 -0.515475 2.02527 -0.355525
400 1 4.83378 8.23656 2.80888 -0.337321 0.579471 -2.25606
401 1 4.08173 4.69679 4.32233 -1.38617 0.639784 0.0101748
402 1 6.368 3.39579 0.140775 0.00313523 -1.0205 0.129869
403 1 8.62654 0.910207 1.37808 -0.254667 -0.160911 -1.25364
404 1 8.46496 2.18738 5.24644 -0.145534 0.0513858 0.849592
405 1 3.57231 3.77712 0.382773 -0.482859 -0.650735 -1.01434
406 1 4.97386 1.47403 6.25509 -0.528137 -1.30069 -1.40331
407 1 6.0724 6.27429 1.09932 0.178129 -0.820518 -0.745212
408 1 3.5347 3.61999 6.08636 0.59049 0.494839 1.24936
409 1 6.76713 0.492362 7.67552 0.825851 -0.955792 0.607919
410 1 2.13075 1.79371 0.455039 -0.866913 0.090438 0.907091
411 1 9.38232 7.85864 0.871635 -0.560664 1.07468 -0.697646
412 1 7.91036 2.95302 5.14315 0.322873 -1.59474 0.371614
413 1 8.69716 2.88725 3.56831 -0.253359 -1.21193 -1.02015
414 1 8.75018 8.42998 1.15166 1.43298 0.957069 -0.232159
415 1 7.85187 6.0963 0.606128 0.363678 0.869616 0.0425953
416 1 2.72035 7.09146 8.9878 0.584841 -0.191015 -0.152479
417 1 9.06599 6.60564 4.21037 0.741981 0.46012 1.42821
418 1 9.40418 4.05419 0.471168 0.877636 0.305709 -1.37456
419 1 1.11069 0.694728 7.74513 0.753322 0.693189 -1.08939
420 1 9.2144 9.23533 2.42647 -0.728187 0.378499 -0.657975
421 1 7.49608 9.35117 8.45982 0.152808 0.507847 0.623115
422 1 6.31362 0.929535 5.40217 -0.49478 0.544707 -1.22886
423 1 6.56096 5.90116 0.417203 -1.24259 0.0394079 -1.08537
424 1 5.94925 0.0234615 5.10165 -0.00616096 -1.24418 -1.08673
425 1 6.84795 4.31845 5.5568 -0.954421 1.03046 1.05826
426 1 5.30716 4.01238 0.682313 -0.292081 -0.860791 0.879547
427 1 3.1847 1.20998 4.31356 -0.014976 -0.985278 0.190204
428 1 7.04559 8.09143 6.38702 1.20533 0.484093 0.563876
429 1 7.72981 7.03405 1.6158 -1.03789 -0.158532 0.500948
430 1 7.45253 2.10342 4.78742 1.32309 1.15862 -0.27967
431 1 0.870573 1.71014 2.79704 -0.0872104 0.545726 1.10455
432 1 3.98486 5.18443 3.31254 0.749178 0.0553637 -1.31186
433 1 4.11793 4.54153 2.53959 -0.786358 0.513046 -2.07892
434 1 2.40915 0.207176 4.64646 0.0733937 1.25729 -0.618166
435 1 6.74631 5.02477 0.371607 -0.647959 -0.442204 0.113309
436 1 5.80213 7.87077 1.40393 -0.579157 -0.0251336 0.170567
437 1 2.47412 5.131 2.91798 -0.835944 1.01035 0.654379
438 1 6.22662 4.17182 6.17616 -1.12291 0.88301 -0.153679
439 1 1.9502 8.96004 2.31806 -0.00256788 -0.173352 0.0745443
440 1 3.80696 2.89615 9.12539 -0.549347 -0.788451 0.167504
441 1 5.70998 1.48319 6.75061 0.546778 -0.00630384 0.0378553
442 1 2.32289 5.90371 3.67612 0.57318 0.878794 -0.148668
443 1 4.18462 8.30099 2.1072 0.372546 -0.851009 0.473989
444 1 7.23351 7.99475 5.17551 0.731535 -0.514232 -0.352918
445 1 5.00663 4.43025 2.07818 -0.179609 0.464952 0.146428
446 1 1.31134 7.19042 5.58376 0.0237035 -0.322617 0.395795
447 1 1.96003 6.4032 2.13176 0.135789 -0.960376 -0.0787937
448 1 1.33922 6.7716 1.59297 -0.0847326 0.321256 0.241707
449 1 1.65075 8.59697 8.64896 -0.691974 0.350867 -0.437235
450 1 5.31697 3.76197 3.32427 -0.500763 -0.151996 -0.223231
451 1 3.12802 7.81937 8.58817 0.888595 -1.28451 -0.71958
452 1 4.57418 0.748187 1.00763 1.60496 0.590609 -0.561306
453 1 8.51727 7.54571 1.67845 1.02474 0.045589 -0.732055
454 1 6.26407 0.857004 2.58911 0.393667 0.931398 -0.629614
455 1 6.35741 5.65006 7.63631 1.10835 -0.489389 0.0737763
456 1 6.8399 4.2735 7.1836 0.65664 -0.429573 -1.31816
457 1 1.6892 7.53486 8.62007 -0.0459257 -0.592412 -0.487875
458 1 3.67638 1.31744 7.17144 -0.147179 0.447039 0.41759
459 1 8.25559 0.936251 7.10133 -1.4234 -0.492458 1.23517
460 1 1.70999 0.447067 9.06548 0.716854 -1.17639 -0.00865083
461 1 4.96211 5.8229 2.99333 0.129632 -1.06503 0.066457
462 1 9.38423 6.9354 5.14142 0.182874 -0.203591 -0.345648
463 1 2.25432 0.714327 7.29872 -0.376614 -0.830645 0.254491
464 1 6.77187 7.42969 5.72763 -0.0659288 0.505644 0.428979
465 1 5.13153 1.38903 1.47818 0.25797 0.0119788 1.03947
466 1 5.06821 4.32756 4.27999 0.191529 -0.822592 -0.861289
467 1 0.547875 9.09369 7.2548 -0.293808 -0.04831 0.691796
468 1 8.92633 8.11796 8.09048 0.348114 1.724 0.965227
469 1 5.43005 7.02629 1.43575 1.0778 -0.084248 0.777381
470 1 7.79028 2.90394 3.1016 0.164752 -0.331337 0.125987
471 1 2.83447 7.02931 6.25062 0.289393 0.0204389 1.26289
472 1 7.06279 4.52981 4.26157 0.0293195 -0.50256 0.283874
473 1 7.35669 6.5071 4.34043 -0.0317154 0.279355 0.220145
474 1 7.47884 7.40951 8.8182 -0.202074 -0.603983 -0.60508
475 1 1.43852 6.87494 2.48892 1.02469 0.893617 -0.735098
476 1 2.92142 4.17625 6.91597 -0.368997 -0.740099 0.690365
477 1 3.47336 8.91002 6.4162 0.350913 -0.648189 -0.288061
478 1 6.30771 2.06982 2.33348 0.0436241 0.805527 0.791069
479 1 6.69378 1.35257 6.24831 -0.0738542 1.23417 -0.584643
480 1 6.02074 3.59345 7.04434 -1.60416 0.032569 0.026557
481 1 1.2291 8.21282 3.5856 1.17259 1.21722 -0.286477
482 1 3.17293 0.502503 1.51875 0.137224 0.443061 0.0523208
483 1 3.45695 7.43828 0.912378 -0.749366 -0.154915 0.145853
484 1 7.96775 3.59026 7.99324 -1.2002 0.25053 -0.563099
485 1 3.60552 0.0917844 8.29123 -0.133778 -0.529221 0.87725
486 1 4.22272 5.70622 9.38452 -0.72262 -0.447594 0.157045
487 1 6.00724 0.638852 8.50773 0.296138 0.170677 -0.50766
488 1 5.17152 3.71809 5.0158 -0.822899 0.682137 -0.637875
489 1 8.77224 7.31685 9.39879 -0.373131 0.708626 0.973396
490 1 2.17305 2.75734 2.97578 -0.55954 -0.512044 0.98692
491 1 1.5417 3.51608 0.205136 0.309322 -0.422281 -0.387185
492 1 4.3678 2.12978 3.0664 0.849455 0.901834 -0.881532
493 1 0.255305 0.312587 1.76389 0.858295 -1.30727 0.201909
494 1 3.16656 2.47037 7.14811 -0.863651 0.821654 -0.344887
495 1 1.46673 4.86492 0.942853 -0.430247 0.116115 -0.0137904
496 1 8.51094 6.55072 1.81572 0.765261 -1.306 1.5062
497 1 6.38244 2.59586 7.63724 0.294286 0.69881 1.95631
498 1 9.28351 9.31116 6.56199 0.340392 -0.910992 -0.101253
499 1 8.60101 7.65823 2.78101 -1.20955 0.400437 -0.162252
500 1 8.90027 5.70725 6.03387 -0.514701 0.689791 -0.761376
501 1 5.44887 2.43064 2.72297 -0.863336 -0.833409 -0.00423671
502 1 2.48656 1.72113 4.2879 0.0482362 0.152952 -1.36601
503 1 3.50773 3.51428 4.1524 -0.382948 -1.04146 -1.62831
504 1 8.49532 5.72458 2.58239 -0.622032 0.360334 -0.532141
505 1 2.44279 4.66253 1.08358 -1.4457 0.522722 -0.0606853
506 1 4.77078 7.72182 8.42258 0.874896 0.0704126 0.36216
507 1 6.59307 7.78325 7.33366 -0.761512 -0.942597 0.463079
508 1 1.46235 4.80671 4.52494 -2.12403 -0.668382 -0.00737017
509 1 9.14555 0.829628 6.49583 -0.590899 0.14229 0.288465
510 1 8.2609 8.2634 2.21839 -0.318954 1.31664 -0.0688948
511 1 2.88768 3.88398 1.5079 -0.258172 1.0954 0.190685
512 1 4.32344 2.97669 6.27763 0.415783 0.583246 -0.443392
513 1 6.15799 7.60913 3.00133 0.197623 -0.226688 -0.163475
514 1 0.863491 0.330009 8.98532 1.04987 -0.141635 0.196719
515 1 0.980648 9.38583 0.577245 -0.0687909 -0.302298 0.178313
516 1 0.958311 0.863274 4.66024 -0.310661 0.105371 1.96437