ITEM: TIMESTEP
142600000
ITEM: NUMBER OF ATOMS
1000
ITEM: BOX BOUNDS pp pp pp
0.0000000000000000e+00 9.4000000000000004e+00
0.0000000000000000e+00 9.4000000000000004e+00
0.0000000000000000e+00 9.4000000000000004e+00
ITEM: ATOMS id type x y z vx vy vz
1 1 3.08045 7.55576 1.28637 0.173826 -0.577791 1.93565
2 1 2.92942 3.9456 2.73133 -1.55133 1.37473 0.370009
3 1 3.49058 3.06547 2.39671 0.0766585 0.289687 -0.755706
4 1 9.10006 2.62854 5.09621 0.35369 1.02473 -0.0324303
5 1 4.19319 6.81889 5.16504 -0.176679 -0.940558 -0.709661
6 1 2.62173 3.64562 5.42677 -0.445443 -0.319524 1.20544
7 1 3.18241 4.98498 7.47719 -1.14345 0.279361 -0.92778
8 1 9.30587 8.00368 8.61545 -0.50336 -0.192815 -0.364238
9 1 6.11798 3.17297 7.1668 0.140273 -0.526394 1.05476
10 1 1.7011 8.66647 8.01871 0.703571 -0.3655 1.23684
11 1 2.57337 2.00108 1.48752 -0.25454 -0.967417 -0.828514
12 1 8.96587 2.01854 8.99514 -0.797421 1.38787 -0.728392
13 1 6.81307 1.29844 3.36937 -0.0248963 -1.15876 0.695433
14 1 0.983514 0.529437 5.98838 1.00778 -0.0236468 -0.881339
15 1 2.10401 1.601 0.122865 0.746262 0.227044 0.0310126
16 1 5.53859 7.82092 0.153898 -0.204668 0.0201528 0.655391
17 1 5.74029 0.0423104 7.22855 0.45465 -0.177098 0.0494336
18 1 0.654316 7.3906 8.53123 0.215457 -1.47258 0.522361
19 1 6.42191 2.50726 2.36425 -1.59466 -0.505641 -0.557207
20 1 6.72728 0.716443 9.25846 -0.52808 -0.0561264 -0.0667574
21 1 4.8728 1.71156 4.24922 -0.507342 1.57657 0.638301
22 1 8.30453 5.1344 4.26035 0.424505 0.00723074 -1.04417
23 1 5.7498 5.37426 4.28284 0.123641 -0.500075 -0.316818
24 1 7.75086 2.23345 9.14885 1.0058 0.967708 0.200168
25 1 0.985525 9.1956 9.42748 -0.229498 -0.100869 1.91907
26 1 7.40502 6.01774 8.78509 1.7748 -0.773861 -1.29937
27 1 1.65645 0.907668 6.32883 -0.271585 -1.23001 0.257407
28 1 1.2258 6.52978 9.10649 -1.13926 0.891091 0.874501
29 1 3.15314 7.43996 3.52408 -0.431853 -2.1227 -0.220393
30 1 3.29846 6.25902 2.33072 0.368266 -1.10022 -1.50021
31 1 0.00999573 6.98237 3.32145 -0.56301 0.866477 -0.256723
32 1 0.485596 5.70287 4.06576 0.538832 0.00242343 -0.739568
33 1 9.04978 5.36343 3.67625 0.610823 -0.0407073 -0.333315
34 1 7.38475 6.15604 6.25681 -1.09397 0.318036 -1.02314
35 1 4.22974 5.39145 5.36491 -0.371776 -0.559158 0.508336
36 1 0.359314 0.875366 2.66398 -0.323764 0.961013 -0.764758
37 1 7.09713 7.43342 1.98208 -0.647524 0.543159 -0.794877
38 1 5.739 0.826521 3.58278 0.486594 0.542889 -0.294761
39 1 2.98951 0.43799 2.50639 -0.188535 1.47388 0.457736
40 1 1.21085 4.52081 0.365394 -0.0231614 -0.965665 -0.370905
41 1 6.49965 9.20427 0.488651 -1.47963 -1.126 1.8317
42 1 5.44147 6.40717 6.86035 -0.15831 0.206919 0.914614
43 1 2.69367 0.677489 0.159557 0.925083 -0.217879 -0.299635
44 1 7.11627 3.78498 9.15735 0.048159 -1.27302 0.462764
45 1 2.93576 0.680226 5.3756 -0.0530817 -0.845893 -0.647425
46 1 1.85144 4.69788 4.29852 1.40507 0.400024 0.172571
47 1 6.67069 4.35846 0.343005 0.505823 -0.958057 0.12355
48 1 6.71572 1.62987 5.10629 -0.0692876 0.409735 0.64753
49 1 7.44558 5.49339 4.41273 -0.175983 -1.00108 -0.452254
50 1 4.53978 2.89411 2.37134 0.896164 1.53282 -0.75427
51 1 7.91796 4.22655 7.57978 0.256428 0.15971 -1.73246
52 1 4.7602 2.86592 3.18707 -0.33997 1.58874 -0.0355326
53 1 8.12529 6.23202 8.13066 0.168535 -0.554597 -0.026509
54 1 0.808771 2.90524 4.66443 0.481792 -0.751726 0.300831
55 1 1.32877 1.83191 0.972658 1.51551 1.08231 -0.810251
56 1 0.59828 3.3575 0.526869 -0.131155 0.483523 0.844891
57 1 5.05147 2.7849 5.01119 -0.499673 0.40399 -0.532032
58 1 7.19437 8.18451 1.03782 -0.0283742 -1.12202 1.52049
59 1 8.75167 9.16979 2.01566 -1.3232 0.920201 -0.204833
60 1 7.2724 8.71013 9.40211 0.507964 -0.833483 0.956363
61 1 7.03444 6.92967 3.67281 -0.536532 0.882313 1.42759
62 1 9.24812 8.61381 2.37134 1.5362 -2.19703 -1.14277
63 1 6.17186 1.41062 8.42826 0.069601 -0.78801 -0.243615
64 1 8.72537 4.41525 2.62495 0.0378002 -0.284248 -0.538933
65 1 0.471193 7.00381 6.16673 1.18613 1.09509 0.746866
66 1 4.47553 6.69185 4.22124 0.255301 0.0623405 -1.26238
67 1 3.3407 6.94328 5.96807 0.333253 1.87783 0.45591
68 1 0.878932 1.12552 5.28639 0.77252 0.438408 0.405641
69 1 9.31691 7.09229 0.836452 -1.63593 0.323236 0.176037
70 1 6.9715 2.24073 0.709198 -0.228674 1.58301 0.584287
71 1 4.93973 0.768535 4.13503 -0.117067 0.542106 -0.970433
72 1 7.62949 5.96116 7.35709 0.359721 1.42076 -0.387105
73 1 7.85459 2.13564 4.13968 -0.672794 0.906008 0.00336221
74 1 8.5022 7.07887 1.70137 0.0320609 0.131527 -0.3868
75 1 8.94367 6.71761 5.98532 -0.548849 -1.28622 0.137573
76 1 0.941866 0.283067 4.92509 -0.907735 -1.14774 0.954989
77 1 2.98988 1.50042 8.98395 -0.333879 -0.93706 -0.470607
78 1 6.11918 7.11655 3.91376 -0.0457425 0.0348172 0.00364437
79 1 2.30972 3.31202 0.999084 0.332654 -1.80741 1.20226
80 1 3.13652 8.53113 2.68873 -0.120874 0.137376 0.262279
81 1 7.17662 8.44733 5.12038 -1.23017 1.13457 0.775299
82 1 6.07917 3.84148 0.998124 0.360086 0.122719 0.305645
83 1 3.28461 2.54316 7.95477 1.19305 -0.541899 0.202814
84 1 6.64484 6.44637 1.97867 -0.666304 0.64809 -2.42172
85 1 9.44558 6.69981 8.77273 1.02316 0.413502 -0.0219223
86 1 7.02166 7.45381 7.63091 -0.0172371 0.0604478 -0.62827
87 1 0.36102 8.25925 6.98416 -0.838455 0.0627452 0.825136
88 1 8.1307 7.36301 2.65106 0.823278 -0.113429 1.34376
89 1 3.12762 4.53476 6.7331 1.23854 0.584858 -0.541526
90 1 1.90938 7.94753 0.314095 -0.729086 -1.25827 0.69595
91 1 6.30743 1.23331 7.57711 -0.653821 0.205281 0.40556
92 1 0.872685 0.254851 3.60189 1.33547 0.844011 -2.69658
93 1 3.8329 0.0691678 5.31553 0.403877 -0.500399 -0.463654
94 1 3.10278 9.20677 0.400709 0.945641 -0.17111 0.357716
95 1 6.73325 1.56638 2.53144 -0.0760442 1.50286 -0.508098
96 1 5.89629 5.95077 5.17443 -0.640496 -1.19009 -0.43205
97 1 3.66407 6.67319 0.847228 -1.67788 1.26058 0.318365
98 1 8.98923 7.52681 4.66128 0.754067 0.961809 0.0690308
99 1 5.01091 3.93449 4.09572 -0.145626 0.679105 0.295604
100 1 4.96888 8.80422 3.03035 -0.893476 -0.844133 0.854926
101 1 8.81462 7.56183 6.47812 -0.435258 -0.169874 0.739732
102 1 5.8545 8.0498 3.94684 -1.10615 -0.489782 0.784088
103 1 6.86033 4.85287 3.86289 0.93839 -0.761018 -0.37561
104 1 8.94774 5.29788 2.54105 -0.505937 -1.07551 -0.826297
105 1 6.97444 4.14752 5.58538 0.233489 0.840621 0.305014
106 1 5.01901 4.11469 8.65034 0.0443804 0.185536 -1.66226
107 1 6.4095 8.13469 2.47178 0.223371 -0.0903829 0.516505
108 1 4.9872 6.71637 1.82286 -0.353988 0.867385 0.0360976
109 1 8.45607 6.38193 9.10773 0.385442 0.524979 0.611747
110 1 6.77851 6.74088 9.18092 0.0764795 -0.642516 0.234457
111 1 7.27842 1.2532 7.27186 -0.827501 -0.370484 -0.0591359
112 1 0.748816 8.85306 5.34832 1.84627 -1.68078 -1.6464
113 1 4.90406 5.85063 2.16833 0.978126 -0.55283 -1.01035
114 1 7.55776 7.80246 6.8126 -0.305514 -0.291474 0.988281
115 1 6.99976 5.45141 0.24612 1.08663 0.964684 0.144843
116 1 8.47303 0.902022 4.93808 -0.212537 0.97305 -0.368376
117 1 3.17765 7.8401 6.06345 0.927288 -1.19802 0.662083
118 1 1.65842 0.357805 4.15947 -0.654849 0.484838 -0.735819
119 1 8.09826 5.16941 0.38538 0.51423 0.822407 1.06758
120 1 5.71763 1.45734 2.27835 -0.144996 -0.00635766 -0.00443177
121 1 7.81477 7.79376 1.5845 -1.0322 0.440776 0.796903
122 1 8.86464 0.181293 4.48118 -0.410955 0.172108 -0.110756
123 1 6.64852 7.89932 3.47842 0.267133 0.574985 0.242425
124 1 3.83781 7.98395 5.21834 0.398458 0.626108 0.297563
125 1 8.36472 5.96328 3.3989 -0.730062 -0.295679 0.524147
126 1 3.65168 6.99072 6.8508 -0.305555 0.765671 0.253037
127 1 4.05373 6.12891 1.86403 0.00245878 1.07149 -0.110825
128 1 1.74045 4.37304 6.75535 1.16216 1.24568 0.25106
129 1 9.22075 5.3052 5.70177 0.0803458 0.838556 -0.277781
130 1 2.60817 5.14997 6.45507 -0.385851 -0.149889 -0.177607
131 1 9.09434 1.78208 7.22557 0.199193 0.670758 -0.0308955
132 1 1.38766 8.31227 7.21584 -1.80359 0.475641 -1.58266
133 1 3.93594 8.68333 7.58337 0.559102 -0.743748 -1.23058
134 1 7.03833 8.94722 7.98156 -0.581175 1.57441 1.14458
135 1 0.909121 5.62514 2.0986 0.34984 1.83129 0.545457
136 1 9.11043 0.241498 0.292225 0.761688 0.586126 -0.950463
137 1 9.27471 0.420396 1.19122 -0.136387 0.289678 0.895009
138 1 8.01771 7.12328 4.54093 0.515571 -0.523831 -0.200559
139 1 4.66363 8.6944 8.21206 0.329644 0.0614076 0.817864
140 1 1.7593 8.93109 3.64939 -0.496966 0.11024 0.491408
141 1 3.12212 0.717559 0.904654 -1.70533 -0.537207 -0.68279
142 1 8.15987 2.887 4.72393 -0.47302 0.326028 -0.043553
143 1 8.61106 2.85538 0.796019 -0.0668955 1.73697 1.07313
144 1 3.23704 7.23143 2.47494 -0.308971 1.10106 0.816888
145 1 6.73485 0.312008 3.50001 -0.913581 -0.830607 0.194245
146 1 0.572784 1.90406 2.47569 0.328107 0.962948 -0.0891167
147 1 6.48488 7.23706 4.68903 -0.42025 -0.579079 -0.745634
148 1 3.26718 7.92841 7.76609 0.71772 -0.688923 -0.990882
149 1 7.78936 3.99998 2.24381 -0.798295 0.65591 -0.164089
150 1 2.91113 7.39451 0.277978 1.18849 0.859047 -0.0792508
151 1 4.34364 4.4886 3.29274 0.346948 0.0312594 -0.27657
152 1 3.7892 5.41495 2.96607 1.57203 -0.100149 -0.718397
153 1 6.24161 0.765116 2.73756 0.419585 0.223423 1.01618
154 1 3.12808 6.41025 1.48849 -0.228994 -0.53062 -0.882205
155 1 5.19297 8.40526 8.79916 1.03459 -0.353207 0.376648
156 1 2.78097 7.11423 6.74399 0.730785 0.802793 -1.02157
157 1 1.53267 9.24606 8.65256 1.05443 -0.406331 -0.74357
158 1 7.03185 4.57335 7.80397 -0.211038 1.49006 0.462942
159 1 2.99966 5.95587 8.42092 -0.237394 -0.611768 0.347656
160 1 2.81405 3.51873 1.84901 -0.629207 0.0949667 1.24347
161 1 2.16147 1.49926 8.56799 -0.308684 -0.918011 -0.938495
162 1 1.10524 4.77652 7.32812 -1.06161 -2.32573 -0.826877
163 1 9.24024 9.25968 8.17623 -0.598506 0.021412 -0.0908761
164 1 2.33599 4.63863 9.12756 0.299837 1.17245 0.745714
165 1 2.6577 8.52153 9.37165 0.132342 0.430438 1.3271
166 1 6.4651 6.14413 0.40829 0.825514 -0.528822 -0.629802
167 1 4.45615 1.36923 5.91465 -0.167001 0.0831416 0.61565
168 1 7.4951 2.26007 7.57858 1.31985 0.333241 -0.0962025
169 1 9.32613 3.05348 7.46563 -0.133171 -1.23024 -0.20227
170 1 0.486503 7.34798 4.16837 0.504844 -0.37091 -0.209819
171 1 4.50086 4.73189 4.54234 0.587119 -0.841626 -0.303438
172 1 9.28613 2.84317 6.45482 -0.943376 -0.652618 0.0177042
173 1 8.34603 4.57043 3.50888 -1.55882 0.841247 1.07954
174 1 5.2107 6.40238 5.87072 0.289202 0.987451 0.66054
175 1 4.33033 7.5041 9.17766 0.579983 -0.291175 0.438638
176 1 2.07195 5.93889 4.79922 0.629391 -0.300158 -0.0766918
177 1 0.263762 6.89233 1.58131 0.238838 0.162448 -0.566309
178 1 9.04202 2.45668 8.19426 0.535651 -1.17635 -0.550457
179 1 0.0756324 7.44207 0.0300187 -0.389679 0.968739 -0.544395
180 1 3.10038 7.90303 8.76673 -0.376228 -0.103119 -0.595844
181 1 4.46314 9.0065 0.824107 0.535793 -0.481425 0.469448
182 1 7.93101 8.68968 8.62414 0.759861 -0.249194 -0.588883
183 1 8.08191 4.19303 5.30977 0.473721 -1.06485 -0.431255
184 1 5.74861 0.972411 4.88369 -1.05281 -0.786691 0.523555
185 1 2.00573 3.16261 6.96807 -0.043645 -1.49767 0.903208
186 1 0.246443 6.43485 4.48517 -0.469601 -0.149555 -0.164581
187 1 7.80919 5.12055 1.52851 0.124229 -0.484628 0.0675045
188 1 0.18805 1.89108 6.06626 -0.316983 0.210469 0.689109
189 1 7.52924 4.55931 3.11444 -0.621195 -1.00475 0.671747
190 1 4.35187 3.36475 8.78238 0.635238 0.688299 -0.996835
191 1 5.64043 1.98559 9.04319 -0.226553 -1.16517 0.224396
192 1 6.75476 3.42831 4.93334 0.345775 -0.922958 0.478412
193 1 0.307857 9.21325 2.89334 0.020764 0.715891 0.180435
194 1 2.03249 6.45361 5.65178 -0.400321 -0.176754 -1.59734
195 1 5.89896 4.72093 3.32083 -0.156198 0.312358 -0.497646
196 1 4.88724 0.35085 7.12872 -0.138344 -0.114401 0.76947
197 1 5.35181 7.75389 8.09393 -0.219868 0.00819587 -0.432915
198 1 7.20067 5.72715 1.94345 -0.152922 0.282486 -0.542779
199 1 0.0564912 6.06569 2.41364 0.334237 -0.396159 -0.317442
200 1 6.76275 8.72408 3.21731 0.288795 -0.44597 0.109167
201 1 5.72156 2.41977 6.50381 -0.187628 -0.192421 -0.143831
202 1 9.18143 8.87774 5.38649 -0.642064 -1.57917 0.481171
203 1 5.08406 4.86747 2.5366 -0.610132 -0.116712 0.989103
204 1 7.71259 2.48224 1.3392 -0.588791 -0.38541 0.836485
205 1 8.03207 8.03524 4.65739 0.560693 -0.178143 0.549964
206 1 1.48698 5.46125 4.13449 -0.191001 0.235555 -0.175312
207 1 8.71861 6.60668 2.79595 -1.20131 -0.0176099 -0.639619
208 1 8.9579 3.2223 4.27634 -0.0264575 0.0771311 0.0494236
209 1 7.69328 5.80996 2.71439 0.399856 -0.105072 0.682969
210 1 1.99945 7.07357 9.33227 -1.09592 -0.872047 -0.782621
211 1 0.893115 1.14842 3.39827 -0.264701 -0.877584 0.0922919
212 1 8.40011 0.0528564 8.84568 -0.821325 0.822307 -1.38455
213 1 0.798054 5.26913 0.0947649 -0.768447 -0.0974808 0.183961
214 1 4.54543 8.11997 7.23676 -0.189334 -0.819871 -0.757798
215 1 1.05266 7.53304 6.73022 -0.487007 -1.83563 -0.0615251
216 1 1.71654 5.63915 7.5005 1.91994 0.191597 -0.512543
217 1 9.28373 8.85411 9.0531 0.240895 -0.527435 -1.23995
218 1 5.68995 8.3224 6.97301 0.503754 0.468379 -0.509656
219 1 4.01232 7.77919 4.12656 0.0807072 -0.216719 -1.59848
220 1 3.2622 0.807767 7.25935 -0.25183 0.111032 -0.37089
221 1 2.54545 3.36836 8.30596 -1.52781 0.521599 -0.849321
222 1 1.74208 5.95429 0.400759 -0.0751819 0.438862 -1.40857
223 1 2.95704 1.45117 2.38492 1.17847 -0.598085 0.0530284
224 1 3.67508 0.820368 9.20805 0.153942 -1.37477 -0.211783
225 1 4.09719 6.49113 2.63965 0.110023 -0.170875 -0.94045
226 1 2.62866 8.57465 8.41128 -0.179527 0.469012 -0.986821
227 1 5.00965 4.73215 6.31959 1.16677 -1.61015 -0.582882
228 1 3.64532 8.52254 1.12812 -0.451538 0.302564 0.836808
229 1 0.484841 9.0865 4.45582 -0.0416813 0.14642 0.793218
230 1 0.455221 1.24632 6.64223 0.192132 -0.417353 0.34514
231 1 5.99037 4.01389 3.79393 -0.912744 -0.0313462 0.656319
232 1 8.55765 2.36111 6.60235 -0.89452 0.681903 0.725436
233 1 7.65652 8.25273 7.59019 -0.0289345 2.204 0.716539
234 1 0.505481 1.1562 8.534 -0.144796 1.49306 -1.30568
235 1 2.2746 7.11845 0.866315 0.249148 0.126075 -0.599722
236 1 6.34128 7.77914 6.5787 0.65271 -0.624133 1.18909
237 1 7.30942 1.08953 5.29836 -0.416935 0.693237 -1.74866
238 1 7.71658 7.03168 8.92681 -1.35912 1.12369 0.0650104
239 1 5.49988 8.49955 5.95943 0.159583 0.34561 0.129779
240 1 2.8624 7.96172 5.18997 -0.915293 0.3677 0.23925
241 1 7.52593 9.01932 0.789841 0.75157 0.026937 -0.322308
242 1 6.58355 0.915822 6.55814 0.0791621 1.63943 -1.20196
243 1 2.9342 2.34256 2.33877 -0.541038 -0.4097 0.620819
244 1 3.60714 2.59197 6.0935 -0.175222 -0.832983 -0.454587
245 1 0.191231 6.1193 7.13002 0.535164 -1.97541 1.27964
246 1 7.96917 3.48813 6.97292 -0.0422777 -0.146699 -1.54574
247 1 4.99275 8.40426 5.24104 0.0384964 -0.659549 -0.697254
248 1 7.43155 0.10664 9.40323 0.522643 0.833813 1.1595
249 1 2.39243 8.44434 5.85731 0.449838 -1.29918 -0.700825
250 1 7.19104 2.62471 4.81675 0.938495 -0.0349951 0.53986
251 1 8.36424 2.99198 1.87672 -0.133889 -0.986164 0.445366
252 1 1.09891 5.51446 2.94867 -1.37489 0.0603663 -0.0919898
253 1 5.04891 5.85794 4.00116 -0.395227 -0.897155 0.604413
254 1 5.72815 5.51879 0.587347 0.584916 -2.11439 0.242037
255 1 6.95818 5.36711 6.99636 -0.27526 -0.771769 -0.956811
256 1 6.79991 2.87741 5.69171 1.27951 -1.22859 1.05555
257 1 0.696402 3.94165 3.23997 -0.590933 -1.28009 0.643749
258 1 4.20753 2.5729 8.36404 -1.04912 -0.848599 -0.1682
259 1 5.98751 8.91752 1.23291 -1.51993 -0.675063 -0.664911
260 1 4.76047 2.31416 9.20441 0.84297 -0.333475 0.502537
261 1 9.34076 9.15691 3.80878 0.14203 -0.21335 -0.565091
262 1 3.53937 1.28478 6.3381 0.790675 -1.26196 -1.46903
263 1 3.912 3.72076 -0.0224921 -0.831682 -1.00938 -0.681887
264 1 6.79074 2.37162 8.40477 0.623865 -0.183532 0.454727
265 1 8.32403 1.15198 3.99895 0.518399 1.28326 0.592883
266 1 9.15983 6.39261 0.355204 -0.664786 0.924174 0.586475
267 1 0.675263 2.58967 5.73291 0.362043 0.621706 0.337058
268 1 4.68926 5.96417 1.22257 0.415095 0.203847 -0.520339
269 1 4.14032 0.546914 0.63801 0.905209 -0.407457 0.58179
270 1 1.09942 1.08384 0.223893 0.791166 -0.466188 0.460485
271 1 4.63961 6.92155 6.5803 -0.0141408 1.74792 1.03769
272 1 7.62755 7.77301 5.93301 0.40737 0.954767 -0.369312
273 1 2.08811 4.50831 5.38246 -0.859354 0.435441 -0.222792
274 1 0.539871 8.24196 9.29494 -0.892297 0.723659 0.205919
275 1 1.98257 0.66737 3.44406 0.103457 -0.0331488 -0.755721
276 1 4.83224 5.37069 8.32973 0.465549 -1.03919 0.0968221
277 1 0.508618 4.87534 6.56173 0.795556 0.0525996 1.7103
278 1 6.06501 6.53428 1.26951 -0.687689 0.0537155 0.326595
279 1 3.90429 1.74108 8.12466 -0.0111931 -0.162066 0.26817
280 1 5.33063 1.69042 1.40195 -0.991431 -0.0275147 0.270104
281 1 0.791385 1.24628 1.58234 -0.962174 0.165394 0.381105
282 1 7.76662 0.828535 3.29224 -1.16327 -0.571903 -0.564626
283 1 1.09733 5.64626 5.865 -0.470197 -0.926008 0.866208
284 1 4.79183 1.84242 7.69142 -0.577715 0.362169 -0.323501
285 1 0.114409 0.838542 7.63979 0.822184 -1.05736 0.327979
286 1 5.31952 7.40424 6.94319 -0.19177 0.855446 -0.250972
287 1 7.82409 5.2712 6.08931 -0.782562 -1.22777 0.15931
288 1 4.00158 3.68111 3.87628 -0.488799 -0.568479 0.711692
289 1 9.08307 7.749 5.63366 -0.613401 -0.183753 1.03787
290 1 7.7478 1.41114 0.307436 0.517941 0.8189 -1.12663
291 1 0.0345089 1.39185 3.65544 -0.227111 -0.479447 -0.567889
292 1 7.5511 1.7372 3.20269 -0.22337 0.78656 -0.422553
293 1 1.95218 8.52023 2.03046 -1.14641 -0.803613 -1.2975
294 1 4.86976 6.74435 7.62817 0.123202 -0.401008 0.605328
295 1 8.43188 3.27645 7.73328 0.144412 -1.23763 -0.23238
296 1 0.84571 4.43579 4.27042 -0.105035 -0.955166 0.211656
297 1 6.12545 3.60473 0.0823153 -0.439035 -0.581173 0.108105
298 1 9.25643 1.28308 2.04082 0.669488 -0.116577 0.682741
299 1 5.6423 4.37598 9.31304 -0.525476 0.5109 -0.580058
300 1 4.37563 2.09265 5.1444 0.230348 2.74543 0.525904
301 1 1.36496 3.61543 8.00683 -0.760197 -0.0249721 0.38737
302 1 5.30661 7.15477 2.70931 -0.136109 -1.16324 -0.16858
303 1 1.06724 1.23378 4.43659 -0.64831 -0.544952 -0.102163
304 1 2.19007 0.204781 8.05826 -0.121947 0.671918 1.28311
305 1 3.58728 9.41766 1.14908 0.766944 0.488904 -1.4462
306 1 4.49074 6.56511 8.51068 1.56312 1.29691 0.133901
307 1 5.1779 4.05743 3.2648 -1.74824 -0.174602 -1.22053
308 1 0.0383554 5.59572 0.715594 0.0889576 0.800445 -0.934659
309 1 8.43321 3.61933 3.53834 -1.84227 -0.027186 -0.390487
310 1 4.18152 1.1724 7.39546 0.0732472 -0.501411 0.122216
311 1 8.37599 2.87385 5.60986 0.219061 0.174462 -0.89688
312 1 0.290939 5.31762 7.56056 0.399808 -0.900197 -0.504247
313 1 3.97824 7.61742 0.623639 -0.886066 0.551031 -1.06809
314 1 6.43275 9.1328 8.60571 -0.396854 -0.700479 -0.42625
315 1 4.01843 8.84933 2.89698 0.757322 0.542424 -0.449494
316 1 5.07864 0.865772 1.03691 -0.19254 -0.821377 0.359316
317 1 8.46559 0.65259 1.57402 -0.269855 1.46557 0.188301
318 1 3.32741 4.84975 8.80339 -0.28874 -0.423753 0.800952
319 1 5.26982 5.40984 7.04714 -0.223165 -0.331348 -0.289966
320 1 1.75337 3.58521 3.24344 0.969987 0.123838 -0.651313
321 1 3.28031 3.6483 4.54701 0.988154 -0.152876 -0.98939
322 1 4.84401 0.158971 8.07409 0.451423 -0.506628 -0.140305
323 1 8.12072 5.27093 5.13216 -0.660679 0.541304 -0.477763
324 1 0.892418 3.12446 6.61907 0.963249 0.604092 -0.579781
325 1 1.08099 7.06413 4.68936 0.30264 0.219033 -0.47641
326 1 5.07589 1.07231 2.90365 0.353736 -0.294451 -0.27224
327 1 4.46401 5.48702 6.23646 -0.390838 -0.602501 0.503026
328 1 4.39483 9.20714 9.14039 -1.81331 0.918416 -0.0145162
329 1 8.41432 4.4625 1.66868 -1.44066 0.545587 -0.933005
330 1 5.47571 7.25966 8.8711 0.290784 -0.0223976 0.452501
331 1 2.74841 2.90718 6.09122 -0.686088 -0.263885 0.298762
332 1 7.3234 0.451982 4.08394 -0.874121 -0.101938 0.39416
333 1 2.1921 7.92555 8.89948 -0.403739 -0.869173 0.798946
334 1 3.1663 6.16766 3.18125 -0.361277 -1.88457 1.52386
335 1 1.19491 6.7504 1.86216 0.997892 0.719486 -0.0513309
336 1 1.47975 3.01395 1.0181 -0.380182 1.41812 -0.671283
337 1 4.61159 3.98688 2.25918 0.815142 -0.851258 -1.38663
338 1 9.01081 1.96655 2.60047 0.448366 -0.154718 0.329084
339 1 6.80785 3.72657 2.15634 0.751278 0.689564 1.15474
340 1 2.57302 2.42146 8.53818 0.189415 -1.69346 2.54795
341 1 2.38319 0.89987 7.63255 0.50112 -0.18415 -0.0840733
342 1 8.7775 6.61422 3.96421 0.724988 -1.21935 -0.586181
343 1 3.08131 0.753371 8.59663 0.059271 0.342268 -0.841269
344 1 5.27517 6.26008 9.0642 -0.569938 -0.0689455 0.953637
345 1 4.3732 2.08828 6.73347 -0.372226 -0.55176 -1.27767
346 1 4.59877 0.705999 9.09879 -1.11355 0.620768 -1.15144
347 1 4.12027 3.22353 1.42182 -1.85205 1.03669 0.617837
348 1 3.57652 1.51708 0.712432 0.425437 -0.63358 0.394671
349 1 1.32454 6.25863 8.27729 0.637782 0.616446 0.313363
350 1 5.22926 9.39993 8.98204 -1.26008 1.43516 0.472374
351 1 1.92711 5.33931 2.61802 0.30842 -0.127781 1.38401
352 1 1.59981 7.26844 8.55543 -0.390716 -0.220862 0.423344
353 1 8.00262 2.70794 3.44404 -0.567581 0.310908 -0.190072
354 1 5.42345 1.17752 5.71089 0.147408 -1.50675 -0.700802
355 1 3.44783 3.41277 0.964279 -0.791034 -0.766268 -0.122161
356 1 2.32229 5.61419 0.98749 -1.01986 -0.74873 0.775943
357 1 7.01471 4.73244 1.86149 -0.603745 0.478855 -1.14423
358 1 4.62049 5.5945 2.99551 -0.208001 0.486909 0.20679
359 1 8.58195 9.20389 1.13195 -0.565637 0.445749 0.328688
360 1 0.0353848 2.45415 3.37933 0.263793 -0.585756 0.0895556
361 1 7.72134 4.35186 6.14766 -0.193982 0.846506 0.32533
362 1 2.9789 6.23281 7.1681 0.0504206 -1.44596 0.445771
363 1 5.27641 3.40659 2.46614 1.48168 -1.20258 1.09262
364 1 8.88657 4.23308 5.03275 -0.0259462 -0.403649 -0.474117
365 1 1.6166 6.96603 3.05425 0.442433 -0.463478 0.753225
366 1 5.4432 6.06197 7.76223 1.23564 -1.15693 1.00484
367 1 2.2601 5.99004 8.85606 0.302862 -1.84676 -0.0622585
368 1 1.24317 3.80108 2.48594 0.662141 -1.20393 -0.198039
369 1 9.09569 2.91259 2.56277 0.154007 0.942567 -0.468426
370 1 1.22884 3.54086 4.02464 -0.414258 -0.377505 -0.00427889
371 1 0.080873 3.85578 1.00999 1.47457 -0.927206 -0.126413
372 1 2.05593 9.41736 6.06107 -0.240693 1.37044 -0.00928425
373 1 9.17322 3.32053 0.185076 -0.0921863 1.45562 -0.445874
374 1 2.34487 7.50312 2.99742 -0.299472 1.15525 0.107934
375 1 7.61679 5.26111 8.07882 0.0275539 -0.831903 0.418577
376 1 8.25839 3.85248 4.36861 0.197351 1.69492 -0.0371684
377 1 4.56944 7.68761 4.86421 -0.474625 -0.229823 -0.24042
378 1 2.9577 6.07771 5.82445 -0.211716 0.841869 -0.59028
379 1 8.67331 8.41635 8.16693 0.678244 -0.942295 0.188528
380 1 7.21968 1.6129 1.3264 -0.803865 -0.6472 -1.26494
381 1 8.25779 1.87239 8.31448 0.22791 -0.683481 -0.80673
382 1 3.50506 1.01997 3.12168 -0.672877 -0.838098 0.179851
383 1 2.57863 5.58588 7.68508 0.950358 0.680944 0.321494
384 1 6.02648 0.410851 8.11216 0.342958 -0.483279 0.169693
385 1 9.00657 5.24176 6.64279 -0.131932 0.687296 0.793555
386 1 7.42858 8.77761 6.86497 -1.24263 -0.264669 -0.651823
387 1 2.46268 2.15193 7.47387 0.232829 0.77895 1.38215
388 1 0.367267 0.379651 8.95738 -1.28778 -0.00780828 -0.676413
389 1 9.37092 1.21222 4.75531 -0.515379 0.756403 1.15754
390 1 5.8083 3.33394 4.40441 0.858629 -0.287083 -1.30027
391 1 3.50553 5.8201 0.141611 0.848311 1.94229 -0.232647
392 1 4.12059 5.60828 4.5076 -0.730358 -0.335358 -0.0316523
393 1 7.63988 6.35848 0.148637 -0.0742661 -1.80603 0.229685
394 1 6.34799 5.01442 5.43012 0.640385 -1.0906 -0.221262
395 1 7.59018 6.53432 5.34722 -0.27525 -0.39425 1.09433
396 1 4.99387 8.20864 4.14463 0.69662 -0.392723 -0.844301
397 1 6.0042 7.11987 5.82632 0.245807 -0.492095 -0.506859
398 1 1.40127 2.58278 4.0163 1.40114 0.853537 0.602727
399 1 3.42025 1.89278 7.0627 0.544099 -0.897044 -0.0887627
400 1 8.76988 0.671593 8.2518 1.04169 0.767909 0.53753
401 1 7.24291 6.75505 7.10412 0.37704 1.565 0.0598079
402 1 2.39427 9.36007 2.07669 0.983895 -0.324359 0.836834
403 1 4.651 4.96228 7.45658 0.19466 0.970769 1.23496
404 1 0.324616 9.06612 0.652399 -0.166497 -0.284323 -0.220706
405 1 8.55351 5.98015 6.50792 -1.14325 0.213855 -0.526085
406 1 2.20466 5.2688 3.52994 -0.403742 0.713938 -0.38473
407 1 1.31041 8.06344 5.15592 -0.302933 1.49991 1.36907
408 1 7.18874 5.94082 3.45371 0.136414 -1.67193 -0.404589
409 1 0.513052 4.44109 5.59099 1.90786 0.679054 -0.977976
410 1 1.8973 2.12858 6.51176 -0.0530512 0.806227 1.20145
411 1 8.26136 9.09868 7.50811 0.663268 0.585448 -0.0477967
412 1 0.250497 0.200977 2.07967 -0.444669 -0.635606 -0.0416326
413 1 5.25329 3.02801 8.71207 -1.9448 0.431543 0.970507
414 1 2.64159 9.39778 8.99433 -0.795615 0.187912 -0.147172
415 1 8.47136 0.0345066 6.26944 -0.514766 -0.124764 1.32126
416 1 8.25981 0.540846 0.700287 0.275772 0.687209 -0.367187
417 1 2.04201 4.88591 0.547657 -1.4956 -1.21682 1.14289
418 1 3.88278 5.62035 1.00844 0.0624754 1.43914 -0.315836
419 1 6.84507 3.32513 2.98492 1.48442 0.318464 0.232669
420 1 0.235502 4.20185 8.48763 1.08128 -0.0541714 -0.89283
421 1 5.23209 1.85159 3.41572 -0.886662 0.294312 -0.608451
422 1 3.77491 4.5545 0.144395 -1.3299 0.479005 0.839561
423 1 6.87703 3.57669 0.807205 0.610833 1.63557 -0.319481
424 1 0.403399 4.39629 1.79929 0.244202 -0.0572198 -0.113451
425 1 1.65604 6.25774 2.49821 -0.794186 0.0321899 -0.892075
426 1 5.7453 2.05957 7.40305 -1.64774 -0.311319 0.328495
427 1 1.79696 1.21333 1.79704 -0.174754 0.0413977 0.119869
428 1 6.10246 7.67843 7.45365 0.878207 -1.27845 0.507144
429 1 8.13281 1.98587 2.46027 -0.0341743 -0.870418 -0.381934
430 1 3.32325 0.343406 6.34169 0.00991729 -0.115147 0.395632
431 1 4.03585 4.57569 6.87425 -0.461795 0.942424 -0.16355
432 1 3.45158 9.36357 3.62953 -0.293456 0.617122 -0.00803987
433 1 1.80099 3.78942 0.448591 1.29529 0.800662 0.0292874
434 1 0.561398 0.72409 0.820341 -0.922987 0.73593 0.225637
435 1 5.25054 5.15502 -0.00152811 0.578485 0.572664 -0.921286
436 1 8.54585 1.86037 4.82156 0.323679 -1.7029 1.39275
437 1 8.66443 7.19265 8.61766 0.312802 -0.804012 0.173411
438 1 8.88144 0.819246 6.85845 0.350724 -0.164583 0.693362
439 1 4.22499 0.388249 2.37136 0.828378 0.252574 0.577176
440 1 5.00579 5.98008 4.95604 -0.0662451 1.5249 0.366514
441 1 7.80155 2.20836 5.60921 0.033386 0.91178 0.430324
442 1 0.853215 2.11386 6.69448 0.944885 -1.80666 -0.0319229
443 1 0.465659 1.91517 0.300561 -1.82706 -0.716888 -0.488593
444 1 8.18464 3.26787 2.72283 -1.67582 0.0275462 0.455008
445 1 3.2947 0.392775 4.57232 1.85415 -0.247 -0.207092
446 1 5.37359 3.88289 1.74617 -0.550021 0.35181 -0.914371
447 1 3.63942 9.14431 2.07818 -0.656176 1.2605 0.897959
448 1 0.668112 6.52501 2.89332 -0.446862 0.24221 -0.398758
449 1 2.75322 4.72438 1.68508 0.0717451 -0.117131 -0.0567917
450 1 1.44285 2.04136 4.74751 0.444716 -0.00570719 -0.0774848
451 1 8.10967 0.0725096 3.97471 -0.342004 -0.373379 -2.87245
452 1 0.687531 8.90158 8.49247 -0.765324 1.43144 -0.925937
453 1 2.69667 3.70576 7.39595 -0.468566 0.318852 0.649962
454 1 9.02027 1.07719 5.83018 -1.73121 -0.291985 1.15676
455 1 4.2907 1.31168 3.59666 -2.1201 0.159822 -0.47834
456 1 7.61764 1.2793 4.51996 0.23163 -0.270909 1.22175
457 1 3.02999 4.45031 5.77705 0.134217 0.877836 -0.977952
458 1 5.39693 2.23618 8.27684 1.20269 0.311638 -1.42487
459 1 7.37263 4.85838 5.08215 -0.453561 -0.016157 -0.776695
460 1 6.64141 1.82 6.48273 -0.275788 0.153911 0.479988
461 1 4.40687 4.86555 8.89121 1.05479 0.375704 -0.160569
462 1 5.45585 4.80662 8.59548 -0.348893 -0.0305666 0.389173
463 1 4.43714 5.89519 7.82542 0.812415 0.983885 0.619884
464 1 6.78646 3.81464 4.04157 -0.113136 -0.169597 0.610731
465 1 6.6267 7.27152 2.78401 0.0727972 -0.442839 -0.216694
466 1 6.49125 3.74293 7.72514 -0.969906 -0.519542 0.502599
467 1 2.60063 7.05648 8.64669 -0.644776 -0.756747 -0.942702
468 1 7.35167 7.45358 5.14332 -0.626249 -0.55124 1.98245
469 1 7.67094 4.24242 8.51394 -0.274492 0.0986855 -0.83544
470 1 4.18092 5.29259 2.10735 -0.35807 0.515916 -1.73641
471 1 6.38824 5.00702 0.883135 -0.833911 -0.0510565 0.585697
472 1 2.54393 4.28409 3.44645 0.16895 1.0286 -0.402518
473 1 5.9714 3.96207 2.64993 1.2508 0.0857616 0.0925808
474 1 8.47491 4.36455 6.8241 -0.0410743 1.41059 -0.584653
475 1 1.61919 9.21153 5.38764 0.44535 -1.43726 -0.209625
476 1 6.45968 6.66399 6.4783 0.0273136 -0.0438621 1.23917
477 1 5.09427 8.90526 7.26544 1.97138 0.429909 -0.243989
478 1 5.93899 3.17982 5.25676 0.782931 0.297804 0.516511
479 1 2.9853 2.0655 0.236763 -0.671732 -0.888523 -0.182621
480 1 8.15449 6.67419 0.970091 -0.129229 0.44192 -0.469322
481 1 6.25933 4.52194 7.24366 -1.52678 -1.47467 1.19909
482 1 8.16092 6.20238 4.7059 0.343757 -0.352795 -0.500334
483 1 1.38856 1.6686 2.76644 0.454378 0.33994 1.1003
484 1 9.09349 2.35676 4.19038 -0.166256 -1.17411 -0.095791
485 1 1.24806 4.83359 2.43116 -0.504563 -0.916617 0.790733
486 1 1.3338 -0.0141849 2.85935 0.540599 -0.773603 0.944642
487 1 5.71329 1.51893 6.53346 0.575749 -0.12009 -1.85281
488 1 8.74501 6.76533 6.89453 -0.305211 -1.14323 0.595928
489 1 7.04922 7.08664 5.99447 -0.55974 0.244655 0.852168
490 1 1.94496 1.37504 5.49526 -0.313035 -0.459404 -1.34275
491 1 6.82715 9.21411 4.68858 -0.678985 0.649582 -1.03225
492 1 1.54617 2.75831 2.60244 0.525532 0.056186 -0.405063
493 1 4.98827 9.36354 1.6065 0.209787 1.25443 -1.86179
494 1 5.38617 5.48672 5.92061 0.0526204 -0.416325 0.839109
495 1 3.81757 4.01178 1.82028 -0.699991 -0.205363 -0.509223
496 1 8.26401 6.01478 2.05721 0.420529 -0.610334 -0.45115
497 1 -0.0153593 4.89725 4.43076 -1.6474 -0.916746 1.84808
498 1 4.46385 2.38503 1.51696 1.60652 0.417575 -0.438313
499 1 2.57726 2.86267 9.34104 -1.11871 1.68762 -0.763074
500 1 4.57706 1.53621 8.70073 0.0332803 -0.815697 -0.53695
501 1 1.8622 7.73292 1.53342 -0.209539 0.135501 0.527184
502 1 7.95718 0.209962 2.34702 -1.19485 -0.309208 0.742351
503 1 6.609 7.75495 5.65623 1.18902 -0.0214566 0.336349
504 1 0.972121 8.36291 0.678624 1.55863 -0.242352 0.742911
505 1 1.29748 1.45431 6.95325 -1.14898 -0.166817 0.0313192
506 1 0.0712859 0.406701 5.18598 -0.724021 -0.0242364 1.00709
507 1 7.28881 4.02268 4.71603 0.40868 0.550259 0.268489
508 1 7.57953 0.26708 7.73556 -1.45046 -0.115707 -0.443012
509 1 1.47016 4.94197 6.19492 1.06621 0.761518 -0.842454
510 1 3.82936 2.17812 2.27191 0.130999 -0.96543 -0.479157
511 1 7.2125 2.21157 2.09386 -0.295216 -0.868794 -1.46813
512 1 4.00531 7.4067 7.72224 0.39924 1.69788 0.615876
513 1 9.25802 9.24175 6.92911 -0.127015 0.47824 0.146708
514 1 3.0902 7.01817 7.66711 -0.785198 -0.0205526 -0.222406