ITEM: TIMESTEP
67600000
ITEM: NUMBER OF ATOMS
1000
ITEM: BOX BOUNDS pp pp pp
0.0000000000000000e+00 9.4000000000000004e+00
0.0000000000000000e+00 9.4000000000000004e+00
0.0000000000000000e+00 9.4000000000000004e+00
ITEM: ATOMS id type x y z vx vy vz
1 1 1.19132 3.27314 2.27829 -0.26714 0.405781 0.464943
2 1 1.24252 2.01094 9.04041 0.489961 1.22107 -0.0264835
3 1 8.05227 0.594104 8.53174 -0.639051 1.12484 0.0847709
4 1 3.91991 9.19131 6.67827 -0.592046 -0.792171 0.0289224
5 1 6.95331 7.81087 9.11208 0.569664 -0.679847 0.462561
6 1 3.76262 8.73575 2.09508 0.672128 -0.675745 -0.950041
7 1 8.92914 6.37039 0.362131 -0.44397 0.39156 1.09878
8 1 8.33166 6.92411 4.39982 -0.553466 0.492006 -0.613159
9 1 3.93002 8.47167 9.40428 -0.387085 -0.842754 0.663584
10 1 4.74247 5.18572 0.593621 0.62932 -0.77659 -0.487051
11 1 4.26101 4.24932 0.614393 -0.0646862 0.334553 -0.329405
12 1 8.19659 8.87996 9.2457 0.801046 0.764431 0.302693
13 1 0.173357 4.56617 1.56272 -0.50557 -0.172463 -0.388659
14 1 4.7469 4.54062 2.64903 1.36536 -1.58935 -1.18587
15 1 6.73914 8.93458 1.90888 0.188698 -0.0977677 1.01262
16 1 0.341132 1.26723 2.12942 -0.205608 -0.6952 0.464086
17 1 3.93342 4.40538 6.95437 0.186756 -0.258577 0.0349676
18 1 1.89695 2.68901 9.31248 -0.389228 0.966498 0.179829
19 1 7.78881 3.44632 2.72687 0.70927 -1.37143 0.545609
20 1 4.76997 4.01264 3.60451 -1.08657 0.0584579 -0.105544
21 1 3.67756 7.18766 7.23715 -0.789271 0.625764 0.818213
22 1 8.1437 2.27653 5.35744 1.12355 -0.322726 -1.13572
23 1 4.17325 3.80477 8.36416 1.1398 1.15817 0.112852
24 1 3.29263 0.291291 2.01884 -0.572069 0.277553 0.62256
25 1 7.30051 4.39027 3.0476 -0.33596 -0.146389 -1.22481
26 1 3.63128 4.64824 1.24026 0.438132 -1.55469 0.359763
27 1 2.58634 4.49596 5.16497 0.551189 0.313113 0.382722
28 1 0.806017 3.36163 0.608194 1.15012 0.476682 0.834545
29 1 4.1894 5.63143 9.12038 -0.558027 0.133217 0.0639671
30 1 3.27338 4.31833 0.39262 0.972758 -1.76642 0.919047
31 1 1.19606 7.00588 6.27331 -0.0146817 -0.107802 1.18858
32 1 1.08705 2.05975 6.54885 0.28968 -0.505135 0.0373771
33 1 0.0258465 7.05687 0.751121 0.00293558 0.0775225 -1.46735
34 1 1.52512 5.68434 3.88706 0.635909 -0.120762 0.534521
35 1 5.08127 0.60012 6.31018 0.210058 2.12526 0.477732
36 1 5.38641 6.57442 5.67187 0.281743 -1.5232 0.885188
37 1 0.0899493 4.03237 8.61483 -0.882827 0.12335 -0.542578
38 1 2.28779 5.72473 8.4839 0.604665 -0.355741 0.377797
39 1 0.254199 6.49096 5.55203 0.677428 0.818283 -1.29919
40 1 6.28568 1.86215 0.382119 -1.06847 -0.470392 1.19724
41 1 6.06004 0.644551 7.9834 1.47125 0.213075 0.726087
42 1 9.25766 1.1462 6.29316 -1.08331 0.0661512 0.688593
43 1 4.94707 4.38463 1.49184 -0.307136 -0.856934 -1.79074
44 1 9.20593 7.114 4.79438 0.755285 0.553571 0.876806
45 1 5.40237 9.21753 2.99145 0.597264 0.559115 0.509322
46 1 3.06435 3.30302 7.81846 0.807297 -0.47446 -0.118896
47 1 4.27328 2.0562 3.28278 -0.143703 -0.443472 -1.19594
48 1 1.02146 6.60432 7.07374 -0.293929 0.57241 -0.288327
49 1 6.39523 9.00722 6.68147 -0.677977 1.04407 -0.458152
50 1 5.5539 7.76216 5.06144 -0.512809 -0.6417 0.733653
51 1 0.178859 8.75814 6.90253 -0.551816 1.20029 -0.398634
52 1 9.06867 6.35007 6.31175 -0.794749 -0.438358 0.606714
53 1 6.43778 5.49492 6.44615 0.262285 0.69714 -0.567158
54 1 1.56056 8.22787 5.16112 0.725048 -1.0366 0.721364
55 1 2.36444 7.52996 5.08777 -1.49413 0.556612 0.341262
56 1 4.54942 7.6438 7.70086 0.572291 -0.730363 0.0711506
57 1 2.82519 4.42849 4.02957 -0.133459 0.219269 -1.56597
58 1 7.83012 9.00407 7.17847 0.161105 -0.908366 0.408728
59 1 3.6424 1.12012 6.74365 -0.444924 0.396254 -0.0412157
60 1 3.93557 0.310715 0.545376 -0.457181 1.05815 1.0405
61 1 5.48444 5.15824 7.95733 -0.103586 0.742021 0.443828
62 1 1.87841 1.51503 4.20847 -0.840859 -0.0328085 1.6462
63 1 6.92765 5.80264 5.55382 -0.201906 1.83092 -0.300532
64 1 7.68907 6.60719 2.00327 0.372582 -1.84219 -1.09559
65 1 8.62551 9.27356 4.21045 0.225003 1.3114 -1.08055
66 1 0.852099 8.53826 3.33152 0.0472011 -0.539296 -0.954205
67 1 5.94643 8.88093 1.15417 -0.987794 -0.133202 0.564734
68 1 9.34532 3.07654 1.68627 -1.178 -0.392098 0.761755
69 1 6.92467 6.73861 8.70734 1.11082 -0.514979 -0.20888
70 1 1.88855 5.58191 1.63648 -0.210571 0.462112 -0.276615
71 1 9.02467 4.61158 6.46842 0.778455 0.835219 -0.313097
72 1 6.07474 7.03088 5.79877 -0.753424 -0.692417 -1.16019
73 1 3.15222 4.91865 9.11762 -0.287916 0.609731 -0.217516
74 1 7.16685 8.85818 6.06628 -0.288954 0.204747 1.94561
75 1 4.04426 7.02567 4.99456 -0.957549 -0.475457 -0.133246
76 1 2.44615 3.19548 6.69105 -0.623112 -0.885168 -0.610219
77 1 5.04548 2.64244 0.0214818 0.0883026 -0.356469 -1.71158
78 1 6.91799 0.405844 7.72831 -0.980513 0.095625 -1.42496
79 1 8.33715 5.06957 4.80351 0.0496144 -1.58364 -0.479287
80 1 4.5703 0.205706 4.38557 -0.0954143 -0.727577 0.359336
81 1 4.2461 8.90597 4.99079 -0.163787 -0.655073 -0.0675825
82 1 6.50309 5.47348 3.39485 -0.448581 -0.439328 -1.78877
83 1 5.73101 2.38748 0.998739 -1.14775 0.356257 0.0345539
84 1 6.64266 1.06301 5.37469 -0.761714 0.113218 0.866237
85 1 9.29718 9.36386 2.13534 -0.0550718 0.547421 -1.11951
86 1 0.219374 7.09116 6.58589 -1.68808 -0.489418 0.935478
87 1 3.81841 5.00925 0.40336 0.0938818 -0.297585 -0.11752
88 1 0.283305 5.41893 5.87539 -1.85121 0.910557 1.12296
89 1 8.24118 6.10613 3.84414 -1.24805 0.0534415 0.253398
90 1 6.47274 6.29812 4.05633 -1.51916 -0.89087 0.635276
91 1 1.23411 1.49213 0.962672 -1.34068 -0.620707 0.0207653
92 1 3.75857 8.81671 1.14714 -0.198863 -0.586678 -0.679569
93 1 8.83162 4.83884 8.41064 -0.894342 0.626659 0.0934083
94 1 0.410931 4.46866 7.25619 0.775644 0.503102 -0.455849
95 1 3.317 5.87742 8.53507 0.392259 0.990402 -0.142892
96 1 3.1816 8.8415 5.0991 0.673536 -0.696105 0.291753
97 1 6.3612 8.0786 1.30206 0.217174 -0.304842 0.500688
98 1 0.0710291 2.86787 0.460078 0.556664 0.795256 1.67698
99 1 2.7186 4.11908 8.39293 0.851676 0.299104 0.437414
100 1 7.88761 5.80572 1.88782 0.448772 -0.528573 0.930592
101 1 0.316891 6.29948 9.25163 -0.285004 0.879848 -0.684058
102 1 6.83773 3.08287 2.98539 -0.599668 -1.36266 0.308826
103 1 3.64993 4.70475 3.57392 0.798 -1.27023 1.01051
104 1 3.31795 6.18422 0.170666 0.249461 0.473483 -0.0873225
105 1 5.68332 1.1501 5.38476 0.00445551 0.48075 0.479596
106 1 3.39901 7.19038 5.76463 -0.504205 0.264523 -0.792933
107 1 1.91251 4.4563 4.45361 -0.102507 -0.0376688 0.143634
108 1 0.328003 8.55252 1.5586 1.62275 -0.913043 0.246952
109 1 0.572618 5.2517 6.67982 -0.637177 0.714049 0.538649
110 1 3.9003 3.15588 5.80283 0.172451 0.781729 0.0134083
111 1 6.65595 5.46738 4.66348 0.0780084 -0.673868 -0.569637
112 1 6.11131 5.09767 7.40425 0.511556 -0.405752 0.515575
113 1 7.25312 5.46816 2.71747 -0.465757 -0.662811 1.39306
114 1 3.93749 3.38751 7.4852 -0.00490735 0.0349602 0.0280935
115 1 1.93611 8.30602 7.23367 0.280773 0.507066 0.321421
116 1 7.12947 3.16856 5.38195 0.881744 0.801555 0.324446
117 1 5.32276 7.66908 2.37986 -1.09575 0.690317 -0.692818
118 1 1.8212 2.21944 0.904054 0.0121782 -0.356151 -0.167976
119 1 2.40848 5.69995 7.45247 0.46796 -0.0585614 0.615306
120 1 8.35187 1.39449 6.25977 -0.0245372 -0.932002 0.903255
121 1 2.93643 0.856205 7.44716 0.675423 -1.08302 0.809859
122 1 2.51815 0.460121 2.67125 0.178824 -0.473828 0.813091
123 1 7.9333 3.27525 4.92288 -0.771074 0.167424 -0.303734
124 1 8.79728 7.57087 3.65947 -0.335274 0.707406 1.21216
125 1 7.64961 8.2775 7.88027 1.45966 -0.197009 0.440663
126 1 3.31024 2.83426 6.72103 0.0651296 -0.0151115 -0.168854
127 1 2.53944 2.10393 7.97377 0.214689 -1.04854 -0.815162
128 1 2.52465 0.43151 1.40471 0.977875 -0.0969258 1.23592
129 1 4.52774 8.90062 0.389728 -0.114923 0.102482 -0.218327
130 1 2.51572 2.01644 2.31217 0.183077 0.158296 -0.365603
131 1 2.09773 6.7324 0.192051 -1.812 -0.576304 -1.89454
132 1 4.53654 7.00417 5.89153 -0.712697 -0.375051 -0.309937
133 1 8.66684 3.00933 3.24874 0.798251 0.287447 -0.279081
134 1 3.87335 6.66155 1.9094 -1.06134 -0.541363 -0.370262
135 1 2.61489 9.22734 8.6345 -0.00373373 1.87456 0.13
136 1 5.27227 6.86168 2.6042 0.573476 0.695098 -0.709564
137 1 4.32527 7.91675 0.399225 0.649397 1.38612 0.290877
138 1 1.35116 4.36663 5.55026 0.335648 -0.36198 0.0174398
139 1 3.66462 8.64238 3.18288 0.943438 -0.795478 0.883716
140 1 3.35704 2.4361 7.81126 0.10277 0.940775 0.333806
141 1 7.98258 7.68778 3.98202 -0.910816 0.0954 0.437115
142 1 0.97963 5.78437 7.61555 1.36969 1.0262 -0.0548253
143 1 8.29147 3.84396 3.3555 1.209 -0.356993 -0.653507
144 1 6.57125 4.65497 0.672991 0.586932 -1.09395 0.177588
145 1 8.26334 8.38182 5.59422 0.142605 0.158843 -0.0878647
146 1 8.74465 7.57055 1.06268 -0.374521 1.01961 1.69067
147 1 0.197234 6.14863 3.31659 0.451751 -0.196122 -0.106887
148 1 8.33936 6.02555 4.6673 1.41429 1.05531 -1.05309
149 1 6.08483 1.50765 6.09124 -0.754967 0.0359234 -0.790989
150 1 1.5204 3.84221 3.79761 0.508224 0.0803852 0.424201
151 1 7.56903 5.62331 4.22725 -0.0376118 -0.135931 0.577179
152 1 5.96035 0.954917 8.85669 -0.528425 -0.208149 -0.568269
153 1 8.84771 7.17676 7.0396 0.0637254 -0.270232 -1.09595
154 1 2.79962 6.56354 8.9213 1.12197 0.0994439 0.41547
155 1 1.1001 1.02534 1.6885 -1.33879 -0.296005 1.30273
156 1 7.0685 6.10688 7.29936 -0.170932 -0.81058 0.68993
157 1 8.37979 7.62772 8.47554 1.51652 1.80004 0.16845
158 1 5.44597 6.91846 9.39688 0.0738756 0.497676 0.172774
159 1 1.90632 8.20849 0.779981 0.957087 0.0292951 1.16098
160 1 3.76638 7.80418 6.3887 0.501623 0.48775 0.538558
161 1 7.7079 -0.000211379 5.44837 -0.42391 -1.0775 1.11511
162 1 2.13974 4.9705 6.92876 -0.463807 -0.71346 -0.42904
163 1 2.58211 6.24602 3.78486 0.483661 -0.108072 0.0441948
164 1 8.11572 0.0786764 0.578804 0.166313 -1.59371 -0.403392
165 1 5.74129 4.95079 0.141396 -0.769732 -0.554238 -0.527245
166 1 7.61283 4.00379 5.52337 -0.222427 0.32401 0.0136027
167 1 2.15738 4.92058 8.99002 0.0552293 -0.396046 0.260618
168 1 4.51166 5.56952 7.37455 -0.582756 -0.710362 1.033
169 1 7.08363 3.41663 8.06609 -2.07408 1.11413 -0.43056
170 1 3.91076 2.06045 4.2653 1.684 0.17923 -0.525949
171 1 8.65847 0.746189 5.5973 0.236143 -1.73005 0.0551925
172 1 8.9394 6.80784 1.96491 -0.362108 -0.264988 -0.0393527
173 1 0.295434 5.4334 4.11936 -0.225786 0.417566 0.496414
174 1 7.43776 3.04123 0.0253017 -0.0134771 -1.53587 0.648541
175 1 9.29153 5.68687 4.83539 -0.0013456 -0.210267 -0.104186
176 1 2.32165 9.32881 3.59773 -1.5426 -0.192932 0.00134539
177 1 2.79069 7.38621 8.60499 -0.279457 -0.602003 1.26261
178 1 1.07871 8.00519 0.939634 0.201538 -0.130623 -0.264745
179 1 1.4038 8.09158 8.47147 -1.48553 0.0609777 0.697047
180 1 0.731047 0.631857 8.0664 -1.31004 1.06388 0.0102092
181 1 5.13263 8.53297 5.40184 0.909321 0.0418853 -1.29335
182 1 5.88256 7.45644 0.570907 -0.219067 0.163732 -0.563762
183 1 4.49107 5.09427 3.39025 -1.04405 0.597507 -1.03605
184 1 4.28955 0.991552 8.66199 0.918217 -0.292996 0.0597185
185 1 2.45318 3.72496 0.700912 0.659942 0.00669689 -0.269487
186 1 0.447832 2.03479 1.35254 -0.17897 -1.05718 1.39878
187 1 6.08622 8.29095 9.127 0.111576 -0.574556 -1.15506
188 1 4.01841 5.22498 5.34819 1.85972 -0.754952 0.555103
189 1 8.68526 1.31189 7.07575 -0.684891 1.19041 -0.123866
190 1 6.74279 9.16985 0.745543 1.45249 -0.51549 -0.294923
191 1 7.20093 4.26876 1.26416 -1.08866 -0.0983088 -0.245797
192 1 2.63181 8.5118 7.9837 -0.642163 -0.423792 0.100535
193 1 1.59455 3.00635 6.83177 -0.560678 1.48096 0.0889962
194 1 7.96306 6.82639 5.2772 -0.49662 0.344826 -0.186484
195 1 5.41478 0.339897 8.61508 -0.746662 0.24611 -0.582139
196 1 2.069 1.34665 7.49393 -0.252696 -0.108786 1.02235
197 1 0.879649 2.36275 0.477656 -0.692203 0.661767 0.725545
198 1 0.873714 1.17953 0.0550323 0.0442733 -1.12976 0.158412
199 1 8.66622 4.00613 1.54986 -0.164854 0.365647 0.621312
200 1 8.04641 4.74352 2.70251 -1.65734 0.391812 -1.01881
201 1 8.63186 6.2159 7.411 -0.557436 0.612887 -1.00827
202 1 9.33911 6.64629 7.76707 -1.3177 0.0709686 -0.171571
203 1 8.09723 3.02492 8.68152 -0.00170028 0.029873 0.0656294
204 1 0.376232 2.58733 6.2272 0.970014 -1.6876 0.438048
205 1 4.26873 8.06813 2.45354 -0.658363 -1.19842 1.16542
206 1 8.24807 1.18534 3.16212 -0.631675 -0.0159983 -2.27008
207 1 7.12522 7.07783 2.59491 -0.873462 -0.784 0.467704
208 1 0.140384 8.0971 0.572873 -0.458054 1.02085 -0.194196
209 1 5.58254 4.88827 3.11205 -0.830592 -0.306175 -0.556118
210 1 3.90718 1.54902 5.38797 -0.142613 -0.176792 0.199029
211 1 2.38751 8.396 5.36741 -0.706372 -0.355734 0.124263
212 1 5.53196 2.91411 6.5654 -0.512119 1.62845 -0.232191
213 1 5.13505 1.28514 8.55745 -0.46117 0.0855111 0.489675
214 1 9.0757 2.65946 8.41008 -0.839305 -1.24264 0.59653
215 1 4.72347 3.6877 2.15926 1.22829 0.15149 -0.525126
216 1 4.64265 8.23374 6.62219 1.25354 2.2031 -2.063
217 1 7.64416 8.5892 3.66022 0.701974 0.145962 -0.0761876
218 1 8.54269 8.36288 4.01438 -0.851274 0.616059 1.25509
219 1 7.03901 1.31127 2.20086 -1.3613 1.06222 0.450291
220 1 4.43361 6.95032 6.86727 -1.64449 -0.64102 -1.24245
221 1 7.23383 5.27577 0.957471 -0.500475 -0.338707 1.39193
222 1 1.53418 6.23283 8.19964 1.27128 -0.297309 0.442829
223 1 5.96629 2.93663 8.33781 -0.924065 -0.037929 -1.14267
224 1 2.3654 6.6371 1.36834 -0.109804 1.06189 0.238806
225 1 8.97174 4.73232 3.2316 -0.0189607 0.450907 0.706172
226 1 0.798429 8.50483 4.23201 0.550418 -1.19187 -0.354973
227 1 8.92766 2.34705 7.47741 -1.24795 0.0372577 0.471726
228 1 1.80131 0.0112495 5.87714 0.225285 -0.847653 -1.35973
229 1 1.13803 6.63121 9.23629 0.296469 0.608016 0.462423
230 1 8.74917 8.02816 9.34296 0.643972 0.174216 0.149643
231 1 5.64512 7.44452 3.39355 -0.895121 0.392698 1.78039
232 1 7.11685 2.90926 4.48234 -0.116279 0.894704 -0.539485
233 1 0.296201 7.10427 3.80615 -0.708563 -0.277955 -1.47356
234 1 3.41174 1.51876 7.83087 -0.352548 0.495516 -0.0365602
235 1 0.372586 7.53728 7.36698 1.37046 0.278989 -0.269543
236 1 0.447381 9.31188 5.58387 -0.0586548 -1.40281 0.821734
237 1 7.39677 7.81362 5.69128 -0.713001 -0.427333 -0.436525
238 1 4.48587 0.446571 7.19261 -0.493065 0.2151 -0.0971603
239 1 4.69065 6.23269 0.284194 -0.103681 -0.945644 -0.608094
240 1 2.67997 1.27487 1.93091 1.2768 -0.419882 -1.00729
241 1 5.92478 3.26396 3.19399 -0.245601 -0.0227216 0.869789
242 1 7.26236 7.79481 3.30849 0.808164 1.24615 -1.08693
243 1 3.54615 6.26973 7.62244 1.04031 -0.471104 0.191682
244 1 8.33014 3.40594 4.12623 0.505842 -0.277053 0.40576
245 1 9.25638 0.657149 7.4457 -0.69887 0.847308 1.76092
246 1 5.42288 2.68586 7.46872 0.912766 1.08124 0.696895
247 1 3.51592 7.77146 0.778469 0.996624 -1.1832 0.41377
248 1 6.43644 5.64695 9.38646 0.0545476 1.71998 0.164328
249 1 4.65035 0.371383 5.38877 0.301526 1.51646 0.955737
250 1 7.44418 0.9035 0.495639 0.453819 1.05377 0.58808
251 1 0.62344 8.91275 0.73709 -0.0375332 0.899121 -0.721899
252 1 4.66147 3.05179 6.33181 0.782423 -0.70324 -1.03477
253 1 0.461367 7.33724 8.5398 0.541164 -0.175735 -0.637767
254 1 1.51873 1.45536 5.99024 0.645817 0.673092 1.94915
255 1 9.0646 7.48604 7.96746 -0.0405304 0.308387 1.10474
256 1 6.80446 3.61163 0.678435 -0.418279 -0.595152 -0.492558
257 1 4.88762 5.1559 8.7236 -0.0347552 0.906553 -0.0748257
258 1 4.97987 7.17744 8.35311 -0.021646 -0.546032 -0.720432
259 1 3.13896 7.82931 2.77004 0.375991 0.882849 0.205159
260 1 2.64552 3.94703 7.39243 -1.42056 -1.87131 -0.114066
261 1 8.15428 0.388813 4.836 -0.360295 -0.0704959 1.12432
262 1 2.84184 8.15778 1.00549 -0.575261 1.51152 -0.27481
263 1 3.08509 7.85631 3.69796 -1.10721 0.7735 -0.170745
264 1 4.39514 4.07861 5.40476 0.498417 0.244231 -0.894077
265 1 1.35654 9.16797 4.10072 0.190616 -0.829738 -0.856905
266 1 6.80536 0.671762 1.10567 -1.3753 -1.457 -0.628861
267 1 1.95468 3.30291 5.82914 -1.43044 1.25584 -0.90338
268 1 2.23429 7.68365 3.025 -0.468896 0.36413 0.116188
269 1 3.73539 5.69137 3.83691 0.789455 -1.22561 -0.226147
270 1 0.821999 4.38942 0.831665 0.783149 -0.417495 1.23463
271 1 3.039 9.00929 2.56892 0.560042 1.0464 -0.46597
272 1 3.69808 3.03157 8.44213 -0.077734 -0.236329 1.35601
273 1 8.93334 5.06846 5.49443 -1.14949 0.0519821 0.6477
274 1 5.7061 4.32118 7.51347 -0.00558627 -1.09846 1.33008
275 1 2.39279 6.06501 2.40462 -1.40031 1.63351 -0.366271
276 1 7.45148 9.34341 1.45821 0.542359 0.822464 0.950956
277 1 6.09558 7.08683 6.67184 0.305944 0.439013 0.240889
278 1 2.80965 2.66625 5.95292 1.42278 -0.527149 0.0607381
279 1 8.67698 2.48309 6.49384 0.473494 0.322496 0.0825358
280 1 2.89489 3.56574 1.55103 -0.715445 -1.35674 0.317136
281 1 9.08969 6.74981 8.53895 -0.0455864 -0.0398786 -0.137156
282 1 9.06764 3.8446 7.56777 -0.515092 -0.424794 -2.73671
283 1 2.05623 1.81337 8.72792 -0.0781628 1.79562 0.261672
284 1 6.97657 3.71358 2.22646 -0.0470688 -0.517601 -0.683567
285 1 2.36566 3.6294 3.60931 2.20347 -0.495743 -0.607027
286 1 8.25891 6.73469 7.99903 0.637221 0.00147435 -0.183076
287 1 1.8161 3.33543 4.92994 0.148436 0.651707 0.277069
288 1 6.94905 1.93579 8.31376 -0.332007 -0.615714 0.0526659
289 1 7.92892 7.54874 2.14787 1.12603 -0.670094 -0.151302
290 1 3.05179 5.47896 5.57576 -0.735774 -0.476668 -0.648573
291 1 4.96772 8.23981 3.17398 1.56394 -0.890793 0.0734595
292 1 5.69238 2.26986 5.83655 0.423725 -0.950681 0.236341
293 1 5.07301 7.44087 4.18463 -0.182693 -1.01269 -0.179116
294 1 5.21933 5.87501 9.02913 -0.348671 0.0783389 0.101206
295 1 4.46325 4.81764 7.97485 -0.0300037 0.303899 0.519699
296 1 3.05662 2.78161 2.34541 -1.50118 0.740341 -0.102487
297 1 3.83035 6.19702 6.75193 0.396533 0.770416 0.155547
298 1 3.29479 0.0392769 9.03815 -0.266798 0.171703 -0.257269
299 1 1.76964 6.81033 5.51369 -0.193838 1.03972 0.933575
300 1 4.11178 7.22817 4.18148 -0.514455 1.19037 0.739745
301 1 7.83425 5.74932 5.43095 0.797076 -0.950042 -1.20727
302 1 1.23239 4.084 8.86963 -0.58488 0.408622 0.478718
303 1 5.1573 1.24817 1.04378 -0.891338 0.564981 -0.877233
304 1 3.08006 9.01964 7.28453 -1.31036 0.115351 -0.00973615
305 1 8.07956 8.06637 3.13449 -1.06762 0.961249 0.620871
306 1 1.60112 2.51848 2.62643 0.8831 1.63206 -0.805077
307 1 4.61572 8.15406 4.52022 0.855138 0.026876 -0.0478469
308 1 3.94471 4.70475 4.52603 0.214878 -0.581257 -0.216944
309 1 2.24851 7.44826 3.87433 0.370588 0.689024 0.962675
310 1 8.41871 5.49402 6.16463 -0.34035 0.159955 0.425091
311 1 3.1316 6.17871 2.91169 -0.303623 0.226469 0.38943
312 1 8.6963 2.96713 1.02929 0.380785 0.707519 0.315547
313 1 6.41159 3.12414 3.84156 1.33674 1.41691 0.0691625
314 1 8.75967 8.26249 1.72205 -0.619332 0.168384 0.712268
315 1 3.5516 2.97115 4.4718 1.18219 -0.461392 1.31028
316 1 0.429787 1.39344 8.66188 0.721963 -1.36329 0.274427
317 1 2.79057 3.63903 5.63189 0.897516 2.08965 1.34831
318 1 0.819281 0.465574 2.26109 0.273037 -0.21044 -0.353841
319 1 3.50565 2.96161 1.47596 -0.59818 -0.626593 -0.0837144
320 1 2.34991 3.66319 9.00262 -0.607107 -1.73988 0.544817
321 1 1.24211 3.07735 8.91679 0.0817704 1.485 0.0388035
322 1 8.6002 6.28421 5.53537 -0.912593 -1.24146 -1.0238
323 1 7.79653 6.56475 7.01618 -0.826153 0.209894 -0.505738
324 1 2.32943 3.01784 2.93026 0.126297 0.581234 -1.16644
325 1 8.33237 7.51973 5.77428 -0.309553 0.158708 1.71937
326 1 7.55261 4.36146 7.83609 1.10261 0.670622 -0.447809
327 1 8.52976 1.50098 1.36847 0.617099 0.962095 0.476699
328 1 1.14117 2.56715 1.4995 -0.638922 -0.586371 -0.462562
329 1 6.88492 0.0967457 8.61359 0.987989 -0.563478 -1.43226
330 1 0.856868 6.0125 6.30339 -0.163869 -0.768144 -0.0622204
331 1 2.07552 0.736168 4.76329 0.792614 -1.3071 1.37155
332 1 2.04436 7.5662 8.0139 0.713758 -0.201948 0.714696
333 1 0.580398 8.43656 5.2526 -0.924739 0.85554 -0.542545
334 1 6.44941 2.06269 5.27312 -0.844192 0.306733 -1.04451
335 1 8.52115 4.17861 5.98906 1.11194 0.705927 0.648584
336 1 3.93556 6.85957 0.675094 -0.859082 1.04951 -0.44
337 1 1.26099 3.18148 7.86925 0.18931 0.334255 -0.43097
338 1 8.48758 8.61037 0.665648 0.772252 1.17713 1.30754
339 1 4.89839 7.26114 0.712622 0.145424 -0.423011 1.33956
340 1 8.7218 2.80689 4.8204 -0.301783 -0.721943 1.10158
341 1 6.76271 1.09872 8.34367 -0.38542 -0.578941 0.239663
342 1 5.05045 4.97748 5.68794 -0.155452 -0.33216 1.10926
343 1 5.46589 0.00922839 4.6592 1.05667 -0.0859465 -0.572377
344 1 7.71425 2.54935 3.01749 -0.119679 -0.174633 0.751625
345 1 5.16064 7.80368 5.89328 -0.0335561 0.731988 0.252301
346 1 2.01628 1.17805 1.09446 0.62285 1.02107 -0.24789
347 1 1.67996 7.60723 0.111879 -0.354781 -0.172341 -0.299196
348 1 0.175646 5.29195 7.6471 -0.573309 -1.01934 -0.243724
349 1 7.34092 2.05631 4.8433 -0.116204 -1.10515 -0.508787
350 1 8.83038 4.89232 2.0626 1.57609 -1.45241 0.391423
351 1 6.37064 7.5941 8.46297 -0.207566 -0.473656 -0.719136
352 1 0.0589313 8.28191 3.87438 0.232439 -0.899644 0.577899
353 1 5.84487 5.78184 2.82708 0.00821613 0.295526 -0.410573
354 1 8.22403 1.33464 9.19773 0.0013442 -0.00432737 0.930419
355 1 4.91629 3.2448 4.11371 -0.622058 1.13456 -0.407202
356 1 6.63961 0.706905 0.108981 1.17154 0.775575 0.646813
357 1 2.10986 8.37811 9.07496 0.905427 0.554965 -0.648561
358 1 8.42443 3.19317 5.62599 -1.22153 0.316534 1.05418
359 1 1.03287 5.83915 2.79697 -0.447248 -0.212397 0.834792
360 1 2.71614 2.8172 4.01952 0.0233184 0.618432 -1.13931
361 1 2.56461 2.92058 8.54256 -0.360223 -1.31101 0.343748
362 1 5.93445 0.166717 7.20812 0.675186 0.0593307 -0.580067
363 1 4.2792 1.33137 1.14371 -0.963286 -0.438127 0.308059
364 1 3.73013 2.48569 5.1931 1.52767 -0.909577 1.46901
365 1 1.05625 2.93599 3.34981 0.0191164 1.37412 -1.79712
366 1 0.0858401 2.23254 2.21203 0.856284 0.729559 -0.0589665
367 1 6.46941 2.39516 7.80583 -0.264931 -0.0192049 -1.6203
368 1 0.828353 4.30727 8.0608 -0.306717 -0.775139 -0.440725
369 1 6.98072 6.71572 5.5129 -0.448931 -0.02543 -0.908534
370 1 8.92128 0.587383 2.77265 -1.35008 -0.72257 -1.96271
371 1 5.43714 0.816207 1.70432 -1.91732 1.1657 0.418409
372 1 7.74888 0.473271 3.52234 0.317083 0.8393 -0.399847
373 1 2.89622 8.85196 1.55037 0.889994 0.118354 0.861144
374 1 7.91818 7.48041 7.54788 -0.965256 0.821367 1.33482
375 1 9.36201 4.12026 5.57273 0.695581 -0.0954285 0.478894
376 1 4.48207 6.45384 4.00749 -0.305842 0.961609 1.32384
377 1 1.22291 0.579233 3.15069 1.05802 -0.607025 0.479055
378 1 6.08055 7.97781 6.97611 -0.754589 -0.497506 -0.689575
379 1 2.4076 4.69411 0.478124 0.966834 -1.56439 -0.253682
380 1 8.78628 5.23805 3.92048 -0.965375 -1.57429 -0.207098
381 1 5.32752 4.6855 4.20051 -0.420749 0.961992 0.357536
382 1 2.30357 4.40771 3.15324 -0.340161 0.45453 -0.544278
383 1 3.29254 0.197785 3.44427 0.695526 0.0428441 0.115732
384 1 1.25379 8.17269 1.82926 -0.175368 0.000405134 0.174829
385 1 9.06502 9.1267 1.07688 -1.74888 0.490232 0.470382
386 1 3.75445 2.40735 9.15171 0.572601 -0.530239 -1.39629
387 1 0.597973 7.93082 6.40196 1.44491 1.02754 0.71041
388 1 2.97598 6.50893 6.98946 0.415173 0.211718 -1.3488
389 1 8.76388 9.24384 7.62884 0.729647 -1.44952 0.413754
390 1 1.88015 0.795612 2.11813 0.864267 -0.321125 -0.337794
391 1 5.59741 8.84543 0.318539 -0.349917 -0.56673 2.10064
392 1 8.59827 0.399624 6.6419 0.307561 1.41898 -0.684491
393 1 8.10297 0.736178 2.26703 1.63743 1.14322 0.720397
394 1 1.75797 8.40913 4.26854 -0.386254 -0.924082 0.0221178
395 1 7.07274 0.0335715 3.3999 -1.31421 -0.583623 0.487072
396 1 6.26307 3.9659 2.67448 0.0425572 1.60716 -0.120603
397 1 7.62405 1.06241 1.43964 0.431607 0.926985 0.393055
398 1 6.36035 2.76964 6.90936 0.422442 0.0934896 -0.879688
399 1 1.44366 8.96472 6.94439 -0.00832534 0.150199 -0.360283
400 1 8.26792 3.97656 6.90399 -0.745734 -0.675431 -0.277674
401 1 3.13065 7.15291 1.36612 0.234464 -0.00881382 0.68819
402 1 0.222161 7.76145 2.16565 0.364025 0.27502 -0.210146
403 1 4.86883 2.16363 6.44836 0.159689 0.639795 -0.411535
404 1 0.89466 8.19094 7.17858 0.499208 0.370282 -0.165559
405 1 4.76301 2.54311 2.49813 0.103884 0.617809 1.46959
406 1 4.87438 0.994024 4.66359 0.0961702 0.625247 1.56543
407 1 1.50507 1.74395 5.02744 -0.91691 -0.412535 -0.886193
408 1 7.87227 2.21226 8.88816 0.268603 0.232374 0.446656
409 1 1.84052 6.17371 3.13628 0.0573236 0.359422 0.202251
410 1 2.90386 5.05391 8.22318 -1.7195 -1.05971 -0.307625
411 1 7.25577 2.66333 7.199 -0.0625297 1.7205 -0.27926
412 1 5.47581 2.06781 1.93014 -1.07523 -0.123267 -0.326344
413 1 8.75549 8.35023 7.45547 -1.01647 1.23996 0.0852398
414 1 3.25992 7.01208 3.41045 -0.208494 -1.08817 0.305117
415 1 3.86553 1.41323 0.367416 -2.00653 0.206545 -1.75184
416 1 4.05861 2.54345 7.19472 -0.089508 -1.53763 -0.307392
417 1 0.810908 2.08656 2.77062 -0.243048 0.552995 1.09373
418 1 8.20306 7.02343 3.05166 0.065161 -0.477259 1.32691
419 1 9.35339 5.88207 8.36243 0.232429 0.707742 -1.00392
420 1 8.39365 4.13407 8.72138 -0.820593 -1.36209 -0.335153
421 1 1.90299 3.62633 8.23937 -1.47214 -0.0596224 0.812079
422 1 5.18613 8.82006 8.89065 0.051326 -1.34454 -0.321386
423 1 5.76173 1.57837 2.85557 0.52126 -0.960612 0.177184
424 1 7.07083 1.5827 9.1308 0.184744 1.17598 0.131412
425 1 0.0956481 1.53401 3.98073 -0.3639 -1.58296 0.873244
426 1 4.1498 4.01803 2.96518 0.440648 -0.026934 -0.543024
427 1 0.464175 3.47037 8.07168 -0.792696 0.430825 0.207068
428 1 1.12769 0.24254 6.33749 -0.652953 0.242594 0.0648771
429 1 9.22081 3.15973 6.99716 1.22367 -0.186532 0.0583699
430 1 3.41596 1.39339 4.66156 -0.046404 -0.248206 -1.20643
431 1 5.11081 6.39393 6.53122 -0.398288 -0.203791 1.26162
432 1 6.79569 2.61262 0.599933 0.973459 0.619472 1.88264
433 1 2.67768 5.60361 9.34751 1.25217 -1.32125 0.498496
434 1 6.83584 2.55212 8.86005 1.23545 0.175365 1.47809
435 1 6.88509 8.0819 0.595168 0.60701 -0.0578685 0.790822
436 1 8.28753 6.85836 1.34545 -0.980645 0.30019 -0.420748
437 1 1.11534 3.17862 4.29331 1.4968 0.379212 -0.591639
438 1 5.88859 3.80085 6.78034 1.3032 -1.10187 1.99531
439 1 8.10983 5.44543 0.686215 0.0516297 1.12026 -0.598362
440 1 0.881275 1.1219 6.54214 -0.178978 0.602285 -0.187264
441 1 3.84683 5.18316 6.27731 -0.833752 0.695974 -1.26084
442 1 4.14973 3.91822 1.51559 -0.248033 -0.459315 -0.00637557
443 1 8.42548 9.01317 3.28077 0.842833 0.378598 0.378035
444 1 6.33326 6.61311 0.0599705 -0.974983 0.299141 1.41769
445 1 2.23099 3.36955 2.04193 -1.30432 0.284169 1.10286
446 1 1.56254 6.2129 4.63956 -1.53681 -0.0729441 0.517448
447 1 6.05579 8.2455 7.86268 0.594143 1.13447 -1.17603
448 1 6.50207 1.77129 6.79919 -0.0714137 -0.0559325 -1.30755
449 1 0.678308 5.24356 2.08151 -0.436478 1.68345 -0.0278847
450 1 5.21623 5.65543 5.15598 0.502156 0.0685766 -0.187309
451 1 4.85752 4.11346 4.59868 1.6723 -0.873661 -0.480037
452 1 5.73391 6.02238 0.309563 -0.0952679 0.262441 -0.599227
453 1 8.83935 1.88301 8.89394 -0.599128 0.417038 0.898964
454 1 1.48412 4.63242 0.133382 -0.520655 -0.392075 -0.665254
455 1 6.93843 8.45974 8.43566 -0.0928964 0.67698 0.723071
456 1 2.31037 6.65129 4.73331 0.0963363 0.11464 0.149365
457 1 0.151757 4.75979 9.36261 -0.502707 -0.536011 -0.335452
458 1 5.81871 0.334183 0.828298 1.02955 0.428317 1.16037
459 1 6.85736 6.97903 4.5983 -0.241803 0.0976533 -0.962803
460 1 6.35196 8.98456 5.73497 0.602104 0.487587 -0.984804
461 1 0.420398 0.341395 1.44108 0.0702637 0.895029 -2.01907
462 1 2.36438 1.97344 3.53265 -0.897353 0.843733 -1.79289
463 1 1.3173 9.39487 1.57703 -0.353015 0.455252 0.209892
464 1 2.30957 0.897688 5.79427 -0.34588 -0.0987151 -1.37645
465 1 9.09084 1.52655 4.81241 0.0025634 0.256627 -0.341754
466 1 5.37868 2.43993 8.56277 0.663913 0.635041 0.227186
467 1 7.72247 4.22665 2.13487 0.649806 -0.336526 -0.343238
468 1 1.39143 7.06184 0.841329 -0.775276 0.682198 -0.430527
469 1 8.67426 0.988185 8.1145 -0.861335 -0.733004 -0.145742
470 1 5.27418 0.292351 0.10068 0.193477 -1.11983 -1.31626
471 1 1.6212 5.32901 5.12457 0.52037 0.234138 0.574623
472 1 4.54719 3.90273 6.39321 0.234469 -0.809309 -2.36091
473 1 3.49155 6.93968 8.2036 0.5887 -0.0795633 -0.725625
474 1 6.72171 2.14816 2.70627 1.38665 -0.112542 -0.494964
475 1 3.6327 1.26067 2.02666 -1.10132 0.428754 -0.857578
476 1 8.59407 5.93933 1.21567 -0.998308 -0.971354 0.0657056
477 1 5.2915 5.73408 1.45692 0.479852 -0.12192 -0.339488
478 1 7.47615 3.65376 7.30355 0.385181 -1.0043 0.121663
479 1 2.19488 9.12687 1.93224 -0.483551 2.71892 0.601616
480 1 1.13229 3.689 6.39672 0.0123487 -0.152019 -1.11366
481 1 1.1481 4.35983 2.13636 -0.440986 -0.16068 -0.930531
482 1 0.0153836 5.55434 1.46975 -0.906599 0.946489 -0.5779
483 1 8.12529 1.5892 4.528 -0.0842331 0.708914 -0.103839
484 1 6.7466 6.267 2.68243 -0.0533146 0.271725 0.892176
485 1 7.44708 4.1555 6.46652 0.530537 0.87698 1.17966
486 1 6.37691 9.24156 2.73321 0.512352 -0.490925 -1.20426
487 1 5.99331 2.81457 0.247759 -1.1298 0.0316175 1.02605
488 1 5.2023 8.15415 0.829558 -0.471029 -1.18585 0.440572
489 1 5.57967 3.11086 5.40999 -0.00448502 -0.940961 0.237961
490 1 7.83534 2.7402 1.13132 0.154117 -0.379022 -1.20929
491 1 1.45245 7.4985 7.06022 -0.528533 -0.298822 0.0294009
492 1 2.72059 0.0932874 5.70154 0.379845 -0.645748 -0.365432
493 1 7.5307 0.0355439 2.63836 0.617274 -0.35555 -0.407456
494 1 7.10161 7.97215 4.27986 -0.954637 2.23826 0.467033
495 1 7.41821 5.67275 6.37996 0.501209 1.01582 0.319402
496 1 4.96213 8.59979 1.74793 -1.39858 1.49344 0.905472
497 1 8.13069 9.1491 6.22941 1.48233 -1.09429 1.23697
498 1 6.91851 8.70922 9.31391 -0.868342 0.242926 0.684908
499 1 1.72491 3.11012 0.869236 0.019612 0.108278 0.248299
500 1 7.21107 1.57883 7.40201 -0.758697 0.600523 -1.52269
501 1 7.47712 1.52525 2.8821 0.308516 0.444495 0.862471
502 1 6.39625 3.72863 5.5606 0.488098 0.144599 -0.323637
503 1 6.73911 4.85035 5.45649 -0.1414 -1.28368 -0.0762286
504 1 8.75282 3.05543 2.34518 -0.832229 -0.742776 -0.240521
505 1 5.28969 8.21066 7.37792 -1.26411 0.620641 -0.0231423
506 1 4.8935 1.37808 2.8866 -0.562936 0.424969 -0.625663
507 1 0.17938 3.04843 2.98291 -0.202656 0.0451915 0.687122
508 1 2.95796 7.93433 1.91534 -2.01419 0.0281389 0.0577532
509 1 3.03717 0.364144 6.70429 0.268241 -0.802663 -0.74441
510 1 3.50538 0.555097 8.40308 0.585057 0.87443 0.815103
511 1 5.59821 4.49664 8.73809 -0.535511 -0.305037 0.515408
512 1 3.13475 5.41409 0.824112 -1.38704 1.02902 1.15593
513 1 1.8797 6.57214 7.48764 -0.283941 1.17604 -0.287841
514 1 5.43704 5.41407 6.63091 0.579808 -0.724129 1.78653
515 1 9.36003 8.58547 5.93502 0.813539 -0.445686 0.20946