ITEM: TIMESTEP
19400000
ITEM: NUMBER OF ATOMS
1000
ITEM: BOX BOUNDS pp pp pp
0.0000000000000000e+00 9.4000000000000004e+00
0.0000000000000000e+00 9.4000000000000004e+00
0.0000000000000000e+00 9.4000000000000004e+00
ITEM: ATOMS id type x y z vx vy vz
1 1 7.71078 3.90407 5.67577 -0.717343 0.525667 1.30135
2 1 8.01189 4.72272 8.42725 0.872905 -1.02381 0.776369
3 1 2.27433 4.56706 3.80369 2.21582 -0.540347 -0.78466
4 1 2.46895 8.66857 7.67485 -1.20529 0.160416 0.264447
5 1 1.68627 6.65629 3.0066 -0.584977 -0.142592 0.322402
6 1 2.10241 1.49703 6.25722 1.58423 -0.589517 1.28508
7 1 0.856383 7.16544 2.97658 0.907391 -1.55325 0.452961
8 1 0.362276 0.46427 6.52311 -0.416804 0.120047 -1.79128
9 1 8.6406 9.34606 4.09705 0.208104 -0.331279 -0.929471
10 1 8.14485 1.32013 0.117588 -1.49419 0.0307062 -1.36527
11 1 3.23706 0.949543 5.69956 -0.450876 1.47635 -0.50421
12 1 0.0646451 1.2958 5.71977 0.467615 0.315249 -0.53556
13 1 6.2399 8.50319 2.04562 -0.483175 0.237503 0.0037919
14 1 1.98476 2.46131 2.00759 -0.653213 -1.05869 0.0151863
15 1 4.50694 2.18861 1.61102 0.161273 -0.999669 0.103328
16 1 0.314128 5.97394 8.67224 0.0263725 0.555126 0.635487
17 1 0.0723646 1.78087 8.16816 -0.0537587 -0.581162 -0.458854
18 1 3.83062 9.00555 8.71871 1.48915 0.0713506 0.397674
19 1 7.32221 8.91545 5.74155 -0.0944564 -0.872341 -1.9636
20 1 8.39383 0.939897 4.16749 1.30923 0.0431531 -0.597658
21 1 9.40036 8.34268 3.61858 1.55643 0.73432 -0.457523
22 1 6.13903 7.19971 6.75888 0.196331 -1.03479 0.056824
23 1 1.59287 6.42833 4.02093 -0.339187 0.668527 0.0390117
24 1 1.11293 1.20505 7.66704 1.17899 0.00340066 -0.855476
25 1 2.27755 4.49961 5.12208 0.283004 0.771777 1.01388
26 1 8.65614 7.73961 3.95919 0.810675 0.0581001 -1.28997
27 1 4.0343 7.55322 6.8139 1.28447 0.148747 -0.286824
28 1 7.86095 3.18686 8.0353 -0.255115 -0.143529 -0.588392
29 1 2.572 2.04908 7.78632 0.341191 0.271167 0.303209
30 1 5.36197 0.738031 7.5374 0.941668 -1.54033 1.27367
31 1 4.91574 0.664457 2.06744 0.031768 0.360329 -0.414399
32 1 4.41853 0.133302 2.85959 0.299682 0.619197 0.240071
33 1 2.72464 0.748586 6.34683 1.47827 -0.271156 0.117894
34 1 3.99362 5.74205 4.02083 -0.207296 0.754028 -9.43457e-05
35 1 6.18887 6.14447 9.34843 -0.260785 0.315001 0.778394
36 1 8.22369 3.52505 0.698623 -0.662102 -0.764192 0.628757
37 1 3.46786 3.57165 0.765086 0.0291559 0.0891697 -1.26681
38 1 8.94578 1.70956 1.56346 -0.618593 0.687188 0.631598
39 1 1.50757 4.80038 5.94344 -0.77556 -0.424863 1.59883
40 1 8.00024 6.62863 6.25345 -0.327947 -0.260227 -0.886834
41 1 1.03753 7.31946 2.04235 -0.716833 1.55701 -0.935883
42 1 8.26727 5.8426 4.05458 0.643961 0.117111 1.10198
43 1 4.58765 7.00589 4.03594 -1.2449 -0.880636 -0.825878
44 1 1.49497 3.26285 5.66026 0.857169 0.447611 0.489598
45 1 6.92584 6.47623 8.06886 -1.29064 -0.131119 -1.03497
46 1 7.22297 3.00767 3.67957 -1.99574 0.242641 0.402814
47 1 6.76827 4.78141 0.418999 0.153283 -0.350023 -0.60515
48 1 7.13023 1.28926 1.62806 -0.366489 0.839156 -0.115101
49 1 5.87643 6.89067 3.78935 -1.28201 0.45082 0.104749
50 1 1.79026 2.43634 6.35125 -0.39101 -0.204357 -0.318962
51 1 7.72662 3.65838 3.11767 -0.54775 0.0366883 0.265287
52 1 2.68766 3.97891 0.258749 -0.0304281 -1.24716 0.268048
53 1 3.87847 2.19185 0.0270101 -0.885766 -1.11791 -0.0319839
54 1 4.86089 8.21137 8.7036 0.0226154 0.846493 -0.098124
55 1 8.65561 0.175984 1.71667 -0.399463 1.06655 1.903
56 1 1.35138 4.52795 3.38027 0.334377 1.44231 -0.528723
57 1 5.99157 7.32415 1.69824 -0.780472 -0.235001 -0.449232
58 1 3.54266 1.22493 9.13618 -0.000530087 0.444397 0.162613
59 1 7.14822 3.00949 5.90851 -0.531883 0.118413 -0.361431
60 1 0.613075 1.53435 4.1146 -1.02577 0.543395 -0.958157
61 1 7.36415 0.593686 0.810858 -0.457675 -0.75393 -0.83768
62 1 8.55466 6.63051 2.45744 0.283794 -0.916367 -0.905051
63 1 3.44321 1.07765 2.91032 0.442362 2.07851 1.53391
64 1 7.65467 0.452144 4.83299 -0.0649199 0.673894 -0.0941633
65 1 1.27965 2.89202 7.46761 0.540102 0.657883 -0.123
66 1 7.69026 2.81904 7.15129 0.741931 -0.881404 -0.713588
67 1 6.87225 7.37711 8.87222 0.51215 0.650801 -0.100795
68 1 9.31659 9.29611 3.54179 -0.0357602 1.5296 0.844037
69 1 6.52631 5.34138 5.87778 -0.12382 0.358885 -0.701482
70 1 2.8637 7.66862 3.55262 1.5704 -0.316816 -0.328937
71 1 4.65273 9.07397 8.65142 -1.82789 -0.602407 0.45299
72 1 5.69939 8.85986 4.20155 -1.22601 1.92852 -1.8365
73 1 0.403197 3.41061 0.956369 0.799145 -0.169774 0.573321
74 1 1.06457 7.33402 9.0078 -0.30349 0.00587763 0.345614
75 1 2.24282 7.54349 6.07152 0.437923 0.17798 -1.41494
76 1 7.53164 2.49449 8.51731 -0.355004 -0.59478 -1.03156
77 1 5.23209 1.571 1.47179 -0.166913 0.129855 -0.37284
78 1 6.33494 1.15651 4.11272 -1.26342 0.704072 -1.17851
79 1 3.76742 5.56273 6.99003 0.420146 0.0455761 0.884022
80 1 2.10897 1.02292 0.414921 -0.646237 -0.204573 1.13708
81 1 1.13453 2.17455 4.11323 -0.20351 -1.18843 0.246888
82 1 2.03612 9.06143 9.35734 -0.674889 -0.629371 -0.524821
83 1 2.74151 7.48015 8.31382 -0.00537611 0.393007 0.744385
84 1 0.545976 4.92534 7.26256 -0.662221 -0.796691 0.989951
85 1 8.2213 0.118136 6.66152 -0.129503 0.659835 0.40434
86 1 2.4312 5.47932 1.89898 -0.382474 0.308938 0.157276
87 1 8.71935 5.62956 2.25665 0.994258 -0.245007 0.463636
88 1 3.4585 1.82237 3.32899 1.14673 0.457538 -0.300122
89 1 1.79562 1.64709 3.35232 0.482776 0.334241 0.0205197
90 1 2.5947 6.44366 3.32382 0.586491 -0.731373 0.375907
91 1 7.40508 8.00618 2.43643 0.574728 0.41341 0.672899
92 1 5.72598 2.07824 0.368552 -0.865051 -0.00218387 -0.331846
93 1 6.64908 5.8129 2.45499 -0.308674 1.71137 -0.10281
94 1 5.59404 7.92203 9.31287 -0.0869361 0.761673 -1.40223
95 1 2.63356 8.2298 6.66239 1.07845 0.270873 1.1264
96 1 2.29724 9.37759 5.95058 -1.34356 -0.344872 -0.251939
97 1 3.95678 0.34165 8.24415 1.1696 -0.489726 0.635797
98 1 0.475002 6.15724 1.67335 -0.290453 -0.316412 -0.178367
99 1 7.0312 7.93392 0.500417 -0.106833 0.341621 -1.25588
100 1 0.480348 6.41742 3.53841 -0.630716 0.0901196 0.333325
101 1 3.78539 0.803321 2.03302 0.242431 -0.103128 1.12865
102 1 6.686 4.69059 1.32648 0.348481 -1.21466 0.647095
103 1 0.229385 4.47604 9.19778 0.570563 -0.239578 -0.0587361
104 1 7.97034 6.12539 7.1606 2.15729 -0.215623 -0.424702
105 1 6.03727 2.74258 5.75327 -1.21372 0.813142 -0.184787
106 1 5.12649 6.89304 1.12951 0.0478265 0.367878 -0.979344
107 1 7.41758 7.36711 8.18475 -1.18465 -1.53282 -0.377386
108 1 2.33374 3.73599 4.43128 0.133303 0.614462 -0.397474
109 1 2.98619 0.661642 0.489314 0.547475 -0.40572 0.176614
110 1 5.77357 4.14577 9.18452 -0.288444 0.0825938 0.0453304
111 1 5.27933 6.35849 7.83219 0.109311 -1.13026 1.28012
112 1 4.4972 5.33859 6.26336 -0.463274 0.760559 -0.430373
113 1 2.49996 2.09757 3.16838 -0.524961 -1.17807 -0.394446
114 1 2.41335 6.57835 8.53376 0.313849 -1.08975 -2.29805
115 1 5.19368 8.54528 6.89041 -0.7452 -0.801779 -0.77212
116 1 6.24316 7.91393 5.91983 0.867376 0.900165 0.102163
117 1 2.41539 0.0611472 8.34346 -0.68318 -0.0016432 0.0861489
118 1 8.80068 2.58688 4.61517 -0.289563 -0.781008 0.221394
119 1 7.04844 5.61983 1.6085 -0.27381 0.314897 -0.573994
120 1 3.60047 8.14886 8.198 -0.309284 0.336337 0.833965
121 1 8.39675 2.31921 3.03257 -0.418156 0.2022 -0.432868
122 1 3.4713 6.0191 0.463899 0.127791 0.0861803 1.11524
123 1 2.00304 3.10959 7.92547 0.329134 -0.0353098 0.318428
124 1 5.78248 4.62341 7.10441 -0.0181898 -0.427515 0.145672
125 1 8.06868 8.71405 1.89952 -0.181125 0.385278 -0.840378
126 1 5.92536 0.722957 4.95267 0.150312 -0.715202 -1.14408
127 1 6.59788 3.88697 0.0476635 -0.745789 -0.405438 0.969783
128 1 5.33386 5.16523 2.5603 0.130572 0.521527 -0.980351
129 1 6.362 3.68005 7.60734 0.346623 -0.114048 -0.641296
130 1 3.76965 6.8092 5.13788 -1.11589 -0.956647 -0.198847
131 1 6.09178 8.05484 6.88623 -0.0672729 0.12206 0.846737
132 1 6.11221 7.5495 2.59558 1.25588 0.665567 -0.989581
133 1 0.940438 4.00906 1.60083 -0.0957974 -0.61058 0.535755
134 1 9.28106 5.99419 0.942553 -0.401369 1.28228 -1.11367
135 1 0.294063 5.84202 7.62158 1.0208 -1.77875 -0.750528
136 1 4.01741 3.3327 4.65982 -0.135048 0.297876 0.327515
137 1 5.71555 2.71347 9.11035 0.296896 -0.260081 1.16975
138 1 2.99455 6.73648 4.77288 -0.637268 0.0910673 0.257249
139 1 6.37539 0.621772 7.25601 0.465951 -0.377347 -0.352289
140 1 6.58274 5.37651 3.91928 -0.281227 1.6649 0.0860051
141 1 0.143889 0.762036 3.61594 0.851759 1.09395 0.263809
142 1 0.342683 5.40454 0.113928 0.0586731 -1.79629 -1.2478
143 1 4.15155 1.23535 8.24118 -1.41866 -1.02594 -0.114207
144 1 4.93598 9.08142 6.0634 -0.429443 0.758163 0.00897533
145 1 0.560374 2.78876 5.68098 -0.155952 -0.041034 1.50537
146 1 7.98288 2.85343 6.31318 -1.39962 0.832929 -0.936017
147 1 0.0850568 7.81165 4.51165 1.59677 -0.00144066 0.01013
148 1 3.47544 3.92958 8.39454 -0.106521 0.3357 -0.914205
149 1 1.6849 6.56139 7.99028 -0.175105 -1.66004 1.80029
150 1 1.28323 1.52793 6.7317 1.57263 -1.27709 0.331785
151 1 8.9284 1.49671 8.86277 -0.0102005 -0.144421 -0.351275
152 1 7.21612 0.858073 4.17131 -0.584412 0.719703 -0.584961
153 1 4.243 4.58754 8.28009 -0.449793 0.523831 -0.360222
154 1 4.00788 4.6467 6.44739 -0.474005 -0.177901 -1.3831
155 1 5.88796 6.1633 5.51471 0.587929 -0.62823 -1.72982
156 1 6.18828 6.66715 8.51406 -1.07594 0.122963 -0.453772
157 1 4.41239 8.41412 5.41362 -0.456543 -0.67248 0.486738
158 1 1.8056 3.59716 6.73591 -1.01179 1.80351 0.350867
159 1 5.48915 4.91511 3.99797 0.78315 -0.244972 -0.571963
160 1 8.78245 5.17841 6.23251 0.80243 -0.129289 -0.796265
161 1 3.15338 9.00107 6.95981 0.436007 0.219539 -0.0849459
162 1 7.40945 8.64979 9.29678 -0.979609 0.981457 -1.07079
163 1 3.38486 1.56741 2.17527 0.510404 -0.404592 1.43351
164 1 6.51535 1.43424 0.465558 -1.2772 0.850715 0.405986
165 1 6.22786 6.4838 7.40337 0.0327258 -1.27913 1.21327
166 1 5.11012 0.613869 4.45874 0.48437 1.13374 0.100137
167 1 1.05053 3.87238 7.28317 -0.292011 0.0112732 -0.988465
168 1 0.350344 1.47684 0.763902 1.149 0.279752 1.28692
169 1 5.64279 7.54613 0.726479 -0.980876 0.15409 0.581091
170 1 0.189646 6.90123 8.85534 -0.00343629 -2.05442 0.886797
171 1 0.114464 5.25241 2.26747 -0.403655 1.0214 0.905273
172 1 6.95078 9.24566 4.77728 -0.389381 0.289618 0.365117
173 1 6.21523 1.9656 6.20436 -0.0447569 0.142797 0.530231
174 1 0.888329 2.00425 8.17593 0.270279 0.987856 -0.0917407
175 1 8.97888 8.60465 4.65248 0.32268 0.0774226 -1.00886
176 1 5.82849 7.3451 4.84721 0.310938 -0.0829895 -0.393892
177 1 6.33766 5.06727 2.19003 -1.92427 -0.100698 -0.454569
178 1 5.57572 1.43165 4.65343 1.1703 1.15712 0.6766
179 1 7.28007 3.83727 7.59534 -1.10611 0.0959226 -0.780173
180 1 6.25211 3.56292 6.13549 -0.388644 0.337094 0.187528
181 1 1.96085 1.03697 5.19271 -0.727824 0.0810188 -0.236986
182 1 1.46071 8.73741 4.88792 -0.321767 -1.24225 0.541933
183 1 8.20042 3.36928 4.98855 -0.468324 -1.02118 -0.654874
184 1 6.05923 8.19897 4.77712 0.188518 0.590664 -0.614192
185 1 6.70263 6.40868 1.80808 0.0870525 -0.760449 0.576761
186 1 4.59956 0.519385 0.917015 0.145707 1.06449 -1.83732
187 1 7.38762 3.45407 4.75468 -0.771855 -0.998339 0.338689
188 1 8.98103 3.02809 0.766855 0.139045 1.29296 -0.28941
189 1 0.495349 8.13227 5.26439 -0.768278 -1.9821 -0.300767
190 1 5.31502 2.68258 1.68202 0.634503 0.685899 0.167799
191 1 2.53984 3.56835 7.32013 0.0153045 -0.884008 -0.649463
192 1 3.66259 0.0173476 2.51072 -0.257781 -0.539213 -1.4925
193 1 8.65178 8.16757 9.38384 1.50592 0.950621 -0.253817
194 1 4.06099 4.4376 2.9811 -0.0260897 -0.018273 0.613474
195 1 9.10471 3.37322 4.37728 -0.117244 -1.33044 0.489853
196 1 0.50707 4.25039 8.385 -0.476362 -0.511821 -0.755476
197 1 8.39191 7.65519 3.03865 -0.715967 -1.09182 0.814417
198 1 7.44389 5.64946 3.35626 2.50016 -0.364287 -1.42995
199 1 4.51986 0.906119 7.55228 -0.67978 -1.50765 1.20326
200 1 5.90182 5.63314 8.51781 -1.31036 -0.84045 0.0248163
201 1 5.61222 8.76242 8.71682 -1.16964 0.0644676 0.0980326
202 1 1.89394 4.09434 9.21613 0.503647 0.574275 0.250027
203 1 4.96789 6.16961 5.84019 0.847251 -0.68861 0.036881
204 1 1.75223 5.66204 0.578761 0.41298 -1.32871 -0.0821642
205 1 4.85977 5.40341 8.49419 0.0347675 0.243236 -0.193362
206 1 0.283789 7.838 6.41332 -0.0477113 0.662137 0.213982
207 1 9.41196 3.33437 2.76201 0.528354 -0.360735 -0.180901
208 1 0.927252 3.1654 4.10445 0.384257 0.290743 0.260185
209 1 7.05395 2.92289 2.72003 -0.226891 0.76036 -0.354003
210 1 3.47825 5.98551 4.7064 -0.108451 -0.571613 1.015
211 1 7.12553 6.81846 3.69042 -2.56498 -1.48535 -0.000675296
212 1 0.497181 0.783945 9.41605 -0.703315 1.38439 0.8105
213 1 6.59233 1.00058 8.79462 0.972881 -0.126455 -0.410876
214 1 9.22433 4.49194 3.66975 0.85772 0.801354 -0.708769
215 1 0.261028 4.59115 5.47655 0.326134 -1.67611 -1.3023
216 1 2.51188 6.00015 0.957721 0.230574 0.280113 0.479857
217 1 4.82837 2.32833 8.40705 -0.0936833 -0.304446 0.557226
218 1 7.36887 7.88428 5.79462 -0.34898 0.21529 -0.804981
219 1 0.770405 7.26606 5.03466 0.570433 -0.742042 -0.369925
220 1 7.24247 6.69806 7.10531 -0.442691 1.40964 -1.11971
221 1 7.08691 1.81313 9.02457 0.150749 0.279839 -0.713796
222 1 7.6485 7.99066 1.22927 -0.686256 -0.349303 0.142319
223 1 4.6027 4.5636 1.24293 0.996032 -0.516582 -0.53746
224 1 0.125325 0.242388 4.33514 0.289004 1.35721 1.51279
225 1 4.69404 2.52313 9.34818 -0.942744 -1.21726 0.309484
226 1 5.3495 1.54982 8.56742 -0.446961 0.23938 -0.284191
227 1 3.9101 9.11045 5.55372 -0.474599 -0.160519 0.990832
228 1 4.39434 7.88215 2.34439 0.219477 -0.602475 -1.26014
229 1 0.652367 8.08057 2.26387 0.978442 0.169601 -0.535705
230 1 1.48925 8.46106 3.91364 0.495062 1.96911 -0.2659
231 1 5.60328 4.42981 1.78227 0.372649 -0.584736 -1.54519
232 1 0.714858 0.568158 1.08659 0.277594 -0.391913 -0.699182
233 1 1.20408 8.04324 7.19539 0.195463 0.144527 0.374848
234 1 4.02571 3.04643 8.55873 -0.0306706 0.0764741 -1.12178
235 1 0.812088 1.70997 2.8346 1.34971 0.3766 -0.250517
236 1 5.75425 9.36585 6.93442 -0.0969042 -0.355201 1.04686
237 1 1.73688 1.498 2.40495 0.177299 -1.05193 -1.053
238 1 5.00956 7.75139 1.6924 -0.809249 -0.507097 1.33594
239 1 3.64235 1.904 6.33708 0.472967 -0.0626336 -1.00797
240 1 7.81889 7.76076 6.88434 -0.0693266 -1.65189 0.755932
241 1 4.66556 7.26861 8.01731 -1.32611 0.220361 -1.2146
242 1 8.54601 7.23658 8.82029 -0.837339 -0.891032 1.18555
243 1 2.81811 2.8333 6.04158 -0.891314 0.752783 -0.171673
244 1 1.76901 5.78632 9.06907 -0.143749 0.581626 0.226161
245 1 1.18065 5.03686 9.00789 2.29277 0.642049 0.476115
246 1 8.58279 7.84892 4.89142 -0.646083 -0.034259 0.439386
247 1 3.71761 2.29421 7.50702 0.0901206 -0.556608 0.695035
248 1 7.39617 0.994983 2.53328 0.208564 -1.62899 -0.639539
249 1 5.88157 4.4895 0.630983 -0.353275 -0.138835 -1.15528
250 1 6.40907 2.59048 4.36528 0.0605945 0.980884 0.446374
251 1 1.23485 1.49276 4.83258 -0.7062 0.639941 -0.883581
252 1 2.39309 4.99073 0.045855 -1.269 -0.176693 0.118409
253 1 5.11363 2.36448 4.41957 -0.180388 2.48764 -0.378308
254 1 1.20605 0.206884 7.07717 0.0450001 0.0366587 -1.0943
255 1 7.32067 1.95717 5.90934 -0.00160484 -0.420527 1.59538
256 1 7.68727 5.50219 2.45593 0.28374 -1.78949 -0.715482
257 1 4.67886 1.49797 6.86014 0.902727 2.03968 0.274971
258 1 5.79967 0.325147 5.93458 -0.703325 0.354031 0.648449
259 1 7.14959 8.83026 1.62415 -0.483466 0.706597 0.734327
260 1 3.11238 5.90404 7.45376 -1.35372 -0.123671 -0.746483
261 1 8.62635 6.24737 1.65129 0.808604 -0.0383338 -0.152973
262 1 4.75721 6.15096 3.7371 -0.209762 -0.704466 0.395639
263 1 3.34259 3.99485 2.39024 0.369352 0.750668 0.0202307
264 1 3.79706 1.25993 4.72531 0.173436 -0.819911 -0.216752
265 1 4.28641 6.46801 1.33553 0.268436 -0.378841 0.0860529
266 1 3.96207 3.18727 2.69055 0.281311 -0.64346 -0.705532
267 1 8.4806 2.22825 6.79475 -0.0885703 0.69312 0.317482
268 1 4.20598 1.95111 3.9343 -1.08157 -0.0564395 0.447277
269 1 5.69686 5.93959 3.81121 2.17572 -0.902082 -0.0756033
270 1 5.47179 3.60873 5.42707 -0.790809 -0.16604 -0.266724
271 1 9.01104 5.12743 1.529 -0.0100772 1.84956 0.192785
272 1 6.51632 0.763791 1.36985 -0.450748 -0.705271 -0.062573
273 1 9.06599 5.5073 8.20448 0.578887 0.502138 -0.101062
274 1 1.41032 9.2536 8.67343 0.401465 0.5751 0.758663
275 1 1.34373 0.712738 9.01612 0.13116 -0.142773 0.420997
276 1 1.85583 0.592416 3.4133 -0.626374 0.541276 -0.934466
277 1 5.52926 7.00478 5.75639 0.737264 0.900976 0.880253
278 1 3.95704 2.82519 5.53869 0.817776 1.41659 -0.20137
279 1 9.29301 1.55576 3.13255 -1.11555 0.627513 0.110468
280 1 0.955887 2.98673 1.8268 -0.158908 1.89685 -0.635014
281 1 4.26628 8.29342 1.5034 0.15523 1.32613 0.198347
282 1 8.01573 1.64719 8.5881 0.159277 0.349334 0.857273
283 1 3.11793 4.48429 8.98681 0.130491 -1.54474 0.190371
284 1 2.71499 6.5649 2.02882 0.84451 0.876567 -0.76677
285 1 9.07817 7.87655 5.71897 0.758662 0.158598 0.355655
286 1 2.79342 5.56666 5.10728 -0.959985 0.0692251 0.197935
287 1 7.01408 5.12076 2.82272 0.114772 -1.36686 -1.27857
288 1 0.906471 3.95405 5.98639 1.35224 0.0341771 -0.232522
289 1 3.18442 7.35475 5.63964 -0.966331 0.141149 0.364215
290 1 0.42694 4.35131 0.745889 -0.336303 0.609943 -0.656056
291 1 8.82614 0.822152 6.78893 0.0668828 -2.02395 0.975529
292 1 1.56196 1.63495 8.66079 -0.181 0.669538 1.47174
293 1 6.38317 8.89847 6.43884 -0.708676 0.14908 1.75211
294 1 6.63833 5.09397 7.73652 0.41697 0.255575 -0.709665
295 1 3.79961 1.37766 7.24506 -0.943313 0.734923 -0.817225
296 1 9.20417 6.24928 9.31305 -0.382788 -1.74799 -0.173635
297 1 4.97832 4.24516 0.217246 -0.262683 0.559052 0.656834
298 1 1.7718 6.5326 6.51546 0.395634 0.487531 0.340337
299 1 3.00418 3.94976 3.82636 -0.606353 -0.71781 -1.366
300 1 9.0672 0.426733 8.32713 0.845989 -1.46803 -0.12526
301 1 7.67681 7.48665 4.9681 0.963489 0.652747 1.82443
302 1 8.84227 7.73931 2.10488 -0.585401 1.57954 -1.05819
303 1 1.31686 5.83943 5.03106 0.444231 -0.337484 1.14436
304 1 6.05397 9.05015 0.107739 -0.908797 0.045259 0.515788
305 1 9.36183 6.11898 2.46877 -0.529941 -1.07161 1.20586
306 1 8.06532 4.83933 5.47639 0.65256 1.03616 -0.90466
307 1 0.798578 2.11969 7.29845 -0.2613 0.327263 -0.638529
308 1 1.61922 7.74617 2.6292 0.547362 -0.0489246 -0.302631
309 1 7.44218 4.72002 3.60836 2.02234 0.381424 -0.697408
310 1 2.78276 2.39053 2.40157 -0.17655 -0.977235 0.68475
311 1 4.85104 3.20899 8.13658 1.63679 1.09515 0.0361537
312 1 3.46616 2.51589 1.45273 -0.763672 -0.596854 -0.297301
313 1 4.03657 6.98868 8.71816 0.284725 0.193652 -0.815094
314 1 5.43552 0.94261 6.69552 0.249383 -1.00573 -1.32413
315 1 4.92336 4.84069 6.91515 -0.0475016 1.51269 0.415729
316 1 3.54827 5.31606 5.58422 0.527415 0.494513 -2.47369
317 1 7.74568 0.121591 0.201953 0.838312 0.961712 0.035952
318 1 8.53213 8.59381 3.66665 -0.631337 -0.895406 -1.08243
319 1 9.09083 5.13779 9.02374 1.32946 -1.38402 0.709573
320 1 4.7594 4.40376 6.08793 -0.925649 -0.473687 -1.07471
321 1 2.29991 5.02438 2.93894 0.231147 -1.69224 -0.467462
322 1 4.94909 7.8017 7.30635 -0.0592336 0.411657 -0.786324
323 1 3.95987 0.192538 3.65028 0.720125 0.658314 -0.052078
324 1 1.23437 5.00068 0.591974 -0.277603 -1.00172 -0.205304
325 1 1.79892 8.20846 9.34085 -0.358231 0.577248 -0.105677
326 1 5.92317 7.62101 8.47848 -0.416364 0.427324 1.40964
327 1 5.8749 5.45606 1.62936 -0.660901 -0.723134 0.19959
328 1 8.31605 6.90797 7.17123 0.441237 0.142213 0.978726
329 1 4.19849 0.473411 9.10237 0.0646811 -0.375956 0.516507
330 1 0.0213049 8.57493 0.434719 -0.72046 -0.367516 -0.438373
331 1 8.99481 4.07629 1.43339 0.975228 -0.652386 -0.517753
332 1 5.10098 5.12746 9.45603 0.944728 -0.132018 2.17203
333 1 1.1019 2.98532 6.51239 0.317043 -0.701287 -0.0427078
334 1 7.27268 6.54317 8.97424 0.365105 -0.676374 0.756742
335 1 0.287793 2.85197 7.25264 0.641635 -0.473759 0.13562
336 1 2.66181 4.28887 8.15372 -0.385418 -0.403783 -1.43351
337 1 4.74369 4.28321 4.04399 -0.603328 -0.619374 -0.132836
338 1 5.35849 2.9317 7.03912 -1.21878 -0.333106 -1.16299
339 1 7.72313 8.18022 7.96715 0.633593 0.333284 -0.115385
340 1 3.70639 6.57399 7.02258 1.54815 -0.197595 -0.463561
341 1 1.19668 3.42628 0.527312 -0.273461 -0.64894 -0.191767
342 1 1.01546 7.79678 1.28963 -0.405955 0.462209 0.322782
343 1 0.410909 3.33042 -0.00129999 0.58731 -0.0341903 -0.212801
344 1 6.47046 3.5165 4.39222 1.29223 1.70944 0.232953
345 1 7.27859 5.81671 4.22751 0.86544 0.78401 -0.262559
346 1 8.09708 7.5234 5.95294 1.2612 -1.43374 0.915701
347 1 3.42256 3.55163 5.69955 -0.256682 1.52905 -0.154839
348 1 1.97001 5.49128 6.70515 0.789097 1.18244 0.261342
349 1 5.28711 6.5343 4.45262 -0.67382 0.190044 0.216051
350 1 1.82691 8.38676 5.83191 -1.30773 0.814138 -0.21424
351 1 5.30316 3.87377 1.20787 -0.422835 -0.125337 -0.337408
352 1 2.0918 1.94122 4.36704 0.197858 1.68879 1.4273
353 1 6.1454 6.18508 4.60222 -0.157036 -0.184495 0.106644
354 1 4.96095 3.2208 2.75827 0.741049 -0.324318 -1.84031
355 1 5.31112 5.95788 9.17146 0.0857657 -0.154467 -0.98444
356 1 5.72268 1.32445 5.59419 -0.525413 0.0250164 -1.00352
357 1 5.77 2.74253 2.49921 0.960043 1.75397 -1.22153
358 1 7.43163 5.69848 0.147746 -1.44959 0.84928 1.37256
359 1 0.475512 4.81397 1.53605 -0.0220874 -1.26017 -0.940124
360 1 5.71567 7.23435 7.69593 -0.0547353 -0.644575 0.0888664
361 1 0.121616 1.07259 4.82821 0.284537 0.54267 0.227685
362 1 8.11985 2.19509 9.29493 -0.465996 -0.000383793 -0.80983
363 1 6.16869 1.57148 7.08218 -0.448484 1.15949 0.491173
364 1 1.02598 2.75926 4.89769 0.413927 0.833427 -0.648497
365 1 3.40687 0.567832 7.32484 -0.180663 -0.00626132 0.926715
366 1 3.37561 7.65374 2.75888 0.974291 0.675127 0.134067
367 1 0.525369 8.84761 4.34972 1.08811 -0.27834 -0.704054
368 1 6.56964 8.72908 7.37695 0.317625 -0.56851 1.23687
369 1 1.85589 3.8776 1.55886 -0.163435 -0.995738 -0.816628
370 1 4.73728 0.36149 6.83933 0.925472 0.168998 0.224564
371 1 1.85393 5.73494 5.8731 0.420719 -1.06332 -0.362486
372 1 2.61871 0.146692 4.40282 -0.648826 0.859885 -0.570916
373 1 8.75266 6.37229 7.80277 -0.190945 -0.806567 0.521669
374 1 7.32891 0.899347 9.24465 -0.841455 0.224774 0.200285
375 1 0.711676 4.86217 2.74429 -0.52775 0.282134 0.710639
376 1 4.78286 9.1932 5.11909 -1.12721 0.355202 -0.710452
377 1 7.17626 5.82206 6.42459 -0.642843 0.491207 0.782283
378 1 2.63552 5.33791 5.96526 -0.564003 -0.361821 -0.352072
379 1 9.20247 8.41514 7.31959 0.307153 1.02414 0.217932
380 1 2.03483 9.00013 2.93439 1.68134 0.578898 -0.516536
381 1 6.67834 8.59085 4.14803 0.693484 0.541728 1.22303
382 1 2.24072 7.83765 7.65795 0.320857 -0.139563 0.231263
383 1 4.34695 3.63294 6.59537 0.690561 -0.45877 0.468752
384 1 5.44382 6.11437 0.776753 0.777274 -0.487505 0.670804
385 1 0.277385 0.187929 2.03272 -1.17818 -1.79661 1.53996
386 1 2.47308 6.37301 0.0667998 -0.594568 0.27754 0.108597
387 1 6.12213 1.90601 8.79209 -1.10113 -0.739932 2.30275
388 1 5.20017 0.241412 9.17428 -0.24761 -0.783913 -0.166599
389 1 3.34245 0.549043 4.0975 -0.562608 1.20337 0.210505
390 1 4.50594 1.83205 7.68006 -1.10636 0.289542 0.21952
391 1 8.32978 2.36958 1.30045 0.195998 -0.0471373 0.125106
392 1 9.14152 8.83378 8.94524 1.03604 -1.67668 1.3347
393 1 5.12548 2.92971 0.74081 -0.342777 -0.279903 0.206669
394 1 7.95104 1.57281 1.15572 1.15212 0.121945 0.623955
395 1 6.58549 8.37602 9.06685 -1.47597 0.69013 0.798471
396 1 8.56347 4.00908 4.15381 0.854009 0.999308 -0.116218
397 1 1.31656 3.44167 3.06388 1.72911 0.695134 0.210689
398 1 4.66255 4.99729 3.36057 1.11655 -1.24042 -0.223622
399 1 4.10046 5.96927 5.50419 -0.749497 -0.274819 0.918399
400 1 8.26323 3.8054 8.6389 -0.932776 1.98159 -0.105809
401 1 3.45661 2.72647 3.22231 -0.598413 -1.49871 0.109738
402 1 6.44257 0.929712 6.11148 -0.741286 0.874918 -1.59419
403 1 0.699643 3.58956 4.95423 0.290256 -0.000155942 0.124107
404 1 8.92661 2.83538 5.66988 -0.371025 0.34025 0.806833
405 1 2.09978 2.86935 3.08725 0.124983 -0.287586 0.374781
406 1 7.2558 0.963415 7.42101 1.25692 -2.33555 0.841202
407 1 7.76438 6.09957 1.16002 -0.433885 -0.914944 0.335106
408 1 0.428393 1.45 1.92177 -0.0566414 0.14226 -0.33408
409 1 8.23363 5.76591 5.01556 0.343296 -1.01151 0.219388
410 1 1.87956 7.04245 2.08885 0.329873 -0.395974 -0.522654
411 1 6.44536 7.14357 0.190565 0.663808 -0.884346 1.82736
412 1 0.0481434 3.27866 1.75414 -0.154795 0.0504133 1.36044
413 1 6.9589 7.71149 4.37621 -0.129842 0.235302 0.03524
414 1 4.3925 6.38092 4.6915 1.58473 -1.0116 0.99744
415 1 2.12336 5.70342 3.51079 0.29225 0.213843 0.0797595
416 1 3.2294 5.90301 6.35219 -1.42032 -0.791299 0.739585
417 1 1.52019 4.37929 4.29129 0.898658 -0.127403 0.27444
418 1 4.97591 0.673028 5.41683 -0.170873 0.0163004 -0.9974
419 1 7.49197 6.57006 4.6349 -0.40775 -0.814134 -0.101456
420 1 0.982251 8.3525 8.72073 1.32819 -1.02489 -1.12894
421 1 8.07381 2.23649 5.53662 0.826051 0.0972442 1.28838
422 1 3.73427 1.99647 8.6083 0.939858 -0.396791 -0.312569
423 1 6.73322 5.47914 4.92388 0.145803 -1.56237 -0.31503
424 1 0.870932 2.0972 6.27532 -0.986617 -0.0271278 -0.555219
425 1 8.48952 7.08534 1.19429 0.0798856 -0.35399 0.893562
426 1 7.92162 8.66105 2.83734 -1.1829 0.654449 0.0755767
427 1 2.55228 1.2302 2.79869 0.717387 -0.372365 -0.355283
428 1 5.84208 1.17183 3.30336 0.0213818 -1.21187 0.722639
429 1 6.5545 6.16839 3.33252 0.0917782 -0.622161 -0.471762
430 1 0.156049 4.14261 7.43399 1.7389 -0.895201 1.02424
431 1 4.58197 8.45025 7.9205 1.19324 -1.54649 -0.0344177
432 1 9.00983 0.892012 0.40298 -0.311288 -0.582994 1.33657
433 1 0.661126 5.03212 3.87416 0.589286 -0.471298 -0.046148
434 1 1.97743 1.99998 0.302674 -0.412995 -0.166032 -0.759826
435 1 1.298 1.04978 1.6938 0.627643 -0.376598 -0.689708
436 1 6.17734 2.50037 7.20666 0.692774 0.908806 -0.493656
437 1 3.34427 8.26424 4.90861 -0.966616 0.150867 -0.3062
438 1 5.56942 6.86051 0.110467 1.26625 -0.137451 0.398512
439 1 0.23919 2.75415 8.55295 1.19522 -0.407438 0.420629
440 1 9.05076 8.90923 1.9772 -0.802934 -0.447943 0.233714
441 1 1.3354 8.53079 1.90961 0.400291 -0.0150927 0.0589205
442 1 2.8064 0.0318195 3.43566 0.263753 0.68122 -0.0821988
443 1 8.42927 6.91741 5.36527 1.07932 -1.21802 -1.8566
444 1 5.96267 5.21888 3.2402 0.44182 -0.823056 0.82215
445 1 7.09762 5.86938 7.39646 0.235996 0.561102 -0.139704
446 1 9.36848 6.63606 7.20589 0.946252 2.00408 0.795732
447 1 5.629 2.40014 8.1112 -0.113701 -0.450187 1.23963
448 1 6.44964 7.55742 3.63571 -0.421227 -0.067137 -0.657251
449 1 0.8462 5.88035 0.868234 0.502994 -1.10017 -0.100225
450 1 7.00491 1.8523 4.1173 -1.60957 0.222267 -0.641543
451 1 7.66774 7.24583 0.595236 0.708564 -0.595538 0.81726
452 1 4.30927 7.34282 1.14072 -0.853785 0.3929 -0.633121
453 1 5.14076 1.403 3.80736 0.397996 0.428921 0.00586569
454 1 4.64818 5.13706 4.36501 0.156362 -0.704722 0.0830869
455 1 3.9957 6.13177 2.21033 1.11401 -1.13489 -0.0116353
456 1 3.21974 5.11442 1.97048 1.46174 -0.099839 -0.673252
457 1 7.8821 9.32465 7.92792 -0.189819 -0.59329 0.0216365
458 1 4.8394 2.29334 2.4575 -0.885156 -0.299962 -0.153523
459 1 5.41931 1.59829 7.60134 1.70428 0.939158 -1.68991
460 1 4.92917 5.87622 2.6196 -0.725776 -0.448395 -0.409643
461 1 2.90886 5.75181 2.7294 0.36466 1.08027 -0.0328665
462 1 1.98533 2.76451 4.04566 0.567186 -0.0129107 0.800222
463 1 4.02299 3.87695 7.66697 0.441026 -0.225278 0.279486
464 1 1.95239 7.00779 5.20144 0.922374 0.228415 0.357011
465 1 0.738255 6.67648 0.426888 0.559732 -0.695275 1.02271
466 1 6.67496 2.86444 6.61855 -0.142542 1.02645 0.401274
467 1 8.13715 2.24852 2.13158 1.39696 -0.539832 0.228316
468 1 8.58539 0.465103 4.91588 0.675809 0.120841 0.487848
469 1 3.86666 4.94455 3.81113 -0.0239333 -0.119014 0.76428
470 1 7.43335 3.60536 6.54815 -0.117042 0.581596 -0.268567
471 1 4.49845 8.16172 6.31979 -0.98316 0.581739 0.645379
472 1 4.98061 3.55394 4.61019 -0.0143844 -0.195304 -1.80368
473 1 8.88018 7.0053 6.29504 0.73428 0.886331 -0.597218
474 1 3.33036 4.9748 8.04465 0.73897 -0.125136 0.472443
475 1 0.710058 0.846522 2.51011 -1.12831 -0.4908 -0.186984
476 1 5.90334 5.33586 0.517978 0.396058 0.126564 1.60759
477 1 4.48647 7.70219 4.85989 -0.757476 -1.81567 0.912137
478 1 2.32861 0.751856 9.00251 0.932618 0.552231 -0.605913
479 1 9.31324 7.53768 3.11865 -0.425481 -0.0914834 1.12717
480 1 7.21447 1.41762 8.2207 0.312625 -0.732694 0.436684
481 1 9.1476 2.09825 7.33796 -1.03656 -1.25723 0.804859
482 1 6.61049 6.86547 4.98011 1.52761 -0.623963 1.41589
483 1 8.02366 5.35895 6.745 -0.252491 0.470222 0.522833
484 1 6.02778 4.22507 8.19008 0.21068 -0.316988 1.05929
485 1 3.49414 8.8092 1.22078 0.437694 1.26573 0.52701
486 1 1.02917 4.13206 0.160814 -1.40779 -0.0927009 0.892413
487 1 5.95582 2.01689 3.79385 0.183662 -0.59974 -0.558295
488 1 0.643931 4.6968 6.31239 0.224291 -0.199165 -0.0248112
489 1 4.96664 4.34243 8.61778 -0.457303 -0.443015 -0.452597
490 1 4.69297 7.05278 6.34954 -1.78023 0.498796 1.85471
491 1 6.43022 8.3176 8.13572 -0.449213 0.912885 0.695779
492 1 5.21316 1.41596 2.51286 0.560103 0.628568 -0.765117
493 1 7.43326 6.91611 5.5681 0.666615 -0.189407 -0.0718415
494 1 1.67285 5.01874 2.22149 1.31223 0.233662 -1.4768
495 1 0.423294 7.41319 7.20123 -1.15431 -0.114439 -0.165369
496 1 0.714099 6.45259 4.38383 -1.94388 0.145957 0.958858
497 1 8.69759 8.37893 2.75877 0.413716 -0.103309 -0.334424
498 1 5.48819 9.20418 2.1395 0.568838 0.827827 0.0853135
499 1 3.11129 2.77578 8.69725 0.0645431 -0.166593 -1.38924
500 1 2.36064 4.8797 7.46241 -1.0691 0.161909 -0.376675
501 1 5.4297 2.03323 6.85236 -0.106954 1.1904 0.421092
502 1 6.98612 6.08168 5.45891 1.0353 0.450082 1.59183
503 1 4.39723 2.73122 3.48613 -0.511594 -0.0610158 0.296462
504 1 3.71355 1.97804 5.31871 -0.422252 0.777769 0.380123
505 1 8.40052 3.37113 1.56584 0.546108 -0.940291 -0.327095
506 1 1.77588 9.21945 4.23325 -0.206161 -0.693043 -0.316004
507 1 6.39042 6.10434 6.55581 -0.307568 -1.15617 0.180968
508 1 8.59524 1.83462 3.76985 0.189404 -1.8219 -1.14654
509 1 5.50116 8.21916 7.85392 -0.11536 0.164185 -0.136308
510 1 2.57889 3.57393 8.78064 2.14795 -0.29001 2.1548
511 1 8.67001 1.1368 7.80127 -1.13513 -0.41283 0.500857
512 1 8.08984 8.97431 8.75506 0.461654 -0.0755803 -1.24982
513 1 3.85022 1.97076 0.969736 0.786678 -1.35948 -0.201794
514 1 6.95912 0.969896 5.22526 0.293796 -0.385449 0.0790448
515 1 1.16684 6.81456 1.22912 -0.138304 -0.180283 -0.370774
516 1 1.64592 7.66023 3.53313 1.14521 -0.726334 0.792005