ITEM: TIMESTEP
424600000
ITEM: NUMBER OF ATOMS
1000
ITEM: BOX BOUNDS pp pp pp
0.0000000000000000e+00 9.4000000000000004e+00
0.0000000000000000e+00 9.4000000000000004e+00
0.0000000000000000e+00 9.4000000000000004e+00
ITEM: ATOMS id type x y z vx vy vz
1 1 5.75958 7.58918 4.64724 0.969382 -1.47524 0.766094
2 1 7.70562 3.66677 5.82068 -0.753975 0.12626 -0.488502
3 1 6.47419 6.0817 1.0877 0.377005 0.323969 -0.692795
4 1 8.19607 3.88356 8.18545 0.0419408 0.357452 -1.18037
5 1 4.41734 7.44664 0.341905 -0.669481 0.0539031 -0.185218
6 1 4.73425 2.6936 8.86721 0.656245 0.86394 -0.767889
7 1 3.32763 0.161822 0.779032 -0.95579 -1.19639 -0.9109
8 1 8.23514 8.89731 3.03607 0.222458 0.0797534 1.02439
9 1 0.597594 8.63117 6.04502 0.343114 0.351681 0.719217
10 1 8.69511 9.0999 8.32824 -0.505925 0.296656 1.21462
11 1 8.1712 1.06483 0.0146466 -0.945524 -0.5554 -0.248759
12 1 0.199154 6.21883 6.00605 -1.05818 -0.349284 0.352576
13 1 0.921112 6.97847 5.53315 -0.227968 0.368943 -0.880461
14 1 8.58985 1.1917 1.56867 -2.22493 -0.638232 0.535179
15 1 4.62936 3.6774 5.06996 0.921529 -0.878709 0.90988
16 1 3.43163 4.89798 7.85804 -0.0503366 0.396125 0.629768
17 1 5.38878 2.99516 1.03752 1.70671 -0.385166 0.0191345
18 1 3.27187 7.10029 9.08448 2.05177 1.05359 1.08723
19 1 4.31424 9.00906 2.80098 0.435422 0.601811 0.030595
20 1 1.21 2.9151 7.77872 0.23447 -0.614583 -0.55932
21 1 3.38911 8.25342 6.40231 0.259105 0.0431383 1.46984
22 1 2.37887 5.87957 5.88392 0.540786 1.04745 -0.824143
23 1 3.38978 6.96571 3.00321 0.301973 0.168096 -1.43735
24 1 1.2903 3.04562 8.89114 -0.651246 -0.0896268 0.320889
25 1 0.607183 5.08612 0.0736129 -0.892958 0.488819 -1.64432
26 1 9.35395 0.520243 8.30496 -1.82348 0.375701 0.798759
27 1 8.91414 8.75726 0.927618 0.19555 0.146437 0.160492
28 1 2.09209 1.56024 4.94417 -0.327467 0.477014 0.058165
29 1 6.77652 1.12852 4.30612 -0.58425 0.606154 0.361641
30 1 4.49977 8.66345 8.75723 1.00021 -2.16735 0.235345
31 1 0.747035 2.02437 1.61722 1.17157 0.658589 0.300152
32 1 2.83584 2.87648 7.00939 0.379056 -1.37143 -1.10995
33 1 1.08659 7.05498 2.07908 0.934733 0.399302 1.72855
34 1 2.90252 4.38758 2.79048 -0.70285 0.352574 -0.486246
35 1 8.28066 6.17708 8.75494 0.734358 0.0140092 -0.392574
36 1 4.98058 1.44796 0.292718 1.36091 -0.344253 0.275518
37 1 6.57612 6.83699 0.403586 0.150572 0.230176 0.657107
38 1 5.00054 2.54394 8.12516 0.231173 -0.813966 0.888508
39 1 9.10103 0.365308 3.06582 -0.576683 -0.890456 -0.667647
40 1 1.91972 9.14265 3.89117 0.894949 2.06939 0.301289
41 1 3.13551 1.47567 1.70294 0.528556 -0.531971 1.00982
42 1 3.17419 2.85484 3.76736 0.291132 0.299564 0.382128
43 1 8.59733 3.73717 5.6071 -1.03871 -0.308817 -0.389533
44 1 4.66095 5.49291 9.08004 1.05102 -0.155163 -0.214203
45 1 6.18121 0.505883 4.58372 1.61245 0.432841 0.33445
46 1 1.31325 9.18114 0.579154 -0.438233 0.179184 0.348354
47 1 8.83296 8.23089 8.74167 1.17606 0.882955 -0.824048
48 1 8.69576 2.06186 6.08029 1.30144 -1.0596 0.0261381
49 1 7.64608 2.72034 2.76456 0.695787 1.60698 0.550899
50 1 7.82324 5.52869 4.02584 -0.224694 0.349531 0.911807
51 1 8.88824 5.23803 7.16727 0.485166 0.824341 0.627034
52 1 2.2631 6.3858 6.82584 -0.822222 -0.830497 -0.871326
53 1 2.97469 5.46275 4.34887 0.202516 -1.48565 -1.16763
54 1 7.37165 1.97434 1.10509 0.287857 -0.11218 1.44939
55 1 1.21687 1.08845 7.75175 0.0400721 -0.0785363 -0.00198447
56 1 3.81951 2.04128 5.73734 0.0425364 -0.335725 0.435676
57 1 6.46578 8.36832 7.80716 -0.952618 -0.208859 -0.279407
58 1 7.77662 3.67301 4.59919 0.353539 -0.00118835 0.444325
59 1 4.09554 7.89538 1.14168 1.16062 0.17507 -0.148723
60 1 4.03013 6.22372 2.94933 1.36986 -0.617732 -0.0066125
61 1 8.76856 2.25823 2.7479 0.983582 -0.321902 -0.325236
62 1 6.56616 1.91447 9.11923 -0.192993 1.454 -0.796236
63 1 8.90066 5.57116 9.26535 0.641963 0.107784 -0.034666
64 1 2.58799 3.69725 2.3049 1.76488 -0.255483 0.594475
65 1 8.89963 0.319083 1.4468 -0.0312228 -0.277682 -0.125801
66 1 1.12548 2.20468 2.63562 0.189307 0.143961 -1.2384
67 1 3.83153 5.02639 4.00823 0.506625 0.695348 0.0973839
68 1 0.231247 5.16423 2.42838 0.931777 1.29292 1.18174
69 1 7.04312 2.47042 0.307628 -0.615276 -0.996081 -0.0746097
70 1 6.09357 0.79997 7.602 0.529821 -2.28697 -0.692674
71 1 2.67327 5.92755 9.30238 -0.0385526 0.38365 0.538417
72 1 3.92927 4.03421 8.06919 -1.40885 0.0188078 -0.536119
73 1 7.81264 5.94392 6.81467 0.0896469 0.487103 -0.050565
74 1 4.72633 0.449553 3.23794 -0.214216 0.466574 -0.556952
75 1 2.28734 8.57809 1.3159 -1.4624 -0.658558 0.63268
76 1 6.96367 5.72702 7.50723 -1.12775 0.0150791 -0.122337
77 1 4.07443 1.07705 9.24811 -0.262472 -0.477069 -1.18228
78 1 8.21279 3.20167 3.69991 0.297292 -0.643036 0.203222
79 1 0.846297 6.08914 0.82684 0.955692 -0.347276 0.9571
80 1 8.00861 2.282 3.48589 1.28711 1.00709 1.71185
81 1 7.57981 3.20758 6.55518 -0.535193 0.949822 -1.21336
82 1 3.97506 6.87708 2.28984 0.172853 -1.21286 0.618385
83 1 3.20106 2.17207 4.85639 -1.10223 0.0904682 -1.25413
84 1 1.86764 7.45637 0.159649 0.963854 0.984742 -0.98748
85 1 0.826302 6.05961 4.10679 -0.478295 0.240371 0.692285
86 1 5.1128 5.91273 2.79535 1.42576 0.382512 -0.570045
87 1 7.0692 8.39432 6.5045 0.697794 0.0722981 0.658297
88 1 5.42249 7.01865 1.15205 1.29263 -0.173466 -0.624089
89 1 3.24728 3.12391 2.88558 -0.307503 -0.27351 0.764547
90 1 2.29114 3.54761 8.90458 1.16641 0.14935 0.723662
91 1 8.12445 8.9327 4.24114 -0.169373 -1.86192 0.312522
92 1 7.05083 3.01374 3.32637 1.0886 0.695216 1.89561
93 1 0.546503 6.49851 6.99385 0.178988 2.47696 0.428536
94 1 4.03514 3.86337 5.75678 -0.213388 -0.506859 -0.842784
95 1 9.29278 6.999 6.44541 -0.257196 0.649318 0.349431
96 1 7.3563 1.28512 5.03042 0.34676 -0.702469 -1.04479
97 1 1.38939 1.79763 4.55056 -1.54249 -0.429119 -1.0663
98 1 9.28891 8.71921 2.81657 -0.0766515 -0.242206 0.41455
99 1 5.83818 6.40006 0.45088 -0.00442495 -0.0521725 0.54564
100 1 2.1365 2.83692 3.15292 0.142397 -0.503061 1.21862
101 1 2.92915 1.16236 4.73685 -0.0340014 -0.226895 0.476952
102 1 0.888084 9.26792 2.1229 -0.0823394 0.418864 0.285099
103 1 5.83021 6.09427 7.01985 -0.279439 0.517757 -0.0657411
104 1 5.71052 4.9355 2.34883 0.133985 -1.07565 -0.300205
105 1 9.3809 4.3804 9.16035 -0.202958 1.3989 0.371087
106 1 6.8348 5.97137 6.66254 0.228173 -0.254642 -0.123484
107 1 5.59283 5.52383 6.19194 0.0275553 -0.800048 0.983391
108 1 5.51034 3.60212 7.89131 0.844581 -1.27416 -0.294973
109 1 6.97235 5.68282 3.03924 0.182384 0.126903 -0.423205
110 1 7.04702 6.94291 8.76033 -1.09463 -0.26659 -0.146425
111 1 4.04591 5.78113 5.694 -0.130359 0.0959112 0.282746
112 1 6.84815 9.24381 4.63466 -1.40802 0.518466 -0.306585
113 1 5.43855 1.1885 6.54512 -0.445138 0.498877 0.162214
114 1 3.79616 7.79547 2.18542 -0.533083 1.20782 0.932279
115 1 7.15913 2.43347 4.83698 0.600021 -0.353094 -0.229564
116 1 2.89926 3.39511 0.133239 0.322544 1.4915 -0.412767
117 1 6.53765 1.49115 5.02278 0.132538 1.30735 0.0334669
118 1 8.97727 1.28579 0.150248 1.19163 -0.151788 0.108712
119 1 4.43277 7.99808 4.1135 -0.0135557 0.400522 0.280312
120 1 5.37774 7.14109 6.67647 -0.32387 -0.586534 0.184773
121 1 7.00272 4.00552 3.88926 1.39926 0.509416 0.635543
122 1 5.25246 1.41202 7.72664 -0.174525 -1.23204 -1.28535
123 1 0.174254 8.37323 5.01692 -1.17757 -0.201533 -0.249861
124 1 0.922152 1.94043 7.00958 -1.25531 0.00609745 -0.449053
125 1 3.01689 1.66769 3.86598 1.33986 0.262225 -0.916138
126 1 0.549584 4.38515 0.568429 0.66981 -0.521584 -0.659292
127 1 6.61844 1.05974 6.77949 -0.276809 -0.481412 -0.283617
128 1 5.7888 1.424 0.00880554 0.403849 -0.330774 0.435847
129 1 4.78524 6.98981 5.79183 -0.532978 -1.05081 0.0518753
130 1 7.35456 6.48257 1.2329 0.208648 0.20835 0.0117281
131 1 1.4636 9.08735 5.49604 0.230416 -0.849484 -0.0222551
132 1 5.63422 9.09807 4.70045 -1.57893 -1.10019 -0.126592
133 1 8.90479 7.75846 6.10343 -0.0109283 2.13703 0.826827
134 1 3.36199 3.45178 0.962813 0.864642 -0.768642 -0.402997
135 1 0.919081 8.50814 6.88799 -1.77362 0.558958 -0.666104
136 1 5.59754 2.05404 5.57412 0.499992 0.486855 0.544588
137 1 6.98061 3.49451 7.4008 -0.16605 -1.17704 0.170124
138 1 1.92228 7.74884 7.65509 0.334673 0.303909 0.780746
139 1 4.96844 5.93506 6.7809 0.0853352 -1.08817 0.453349
140 1 6.92312 0.39715 3.62608 -0.535244 -0.190185 -0.73807
141 1 9.37981 6.31226 8.65782 -0.177844 0.811256 0.170856
142 1 6.42474 5.24471 6.99166 0.91717 -0.392392 1.89055
143 1 1.596 4.11067 8.33509 0.353087 -0.0511162 -0.68174
144 1 8.0739 4.99154 6.93172 0.238489 0.724915 0.158079
145 1 3.17002 7.49228 7.18676 -0.75902 0.743239 -0.850513
146 1 4.26396 2.24538 2.25771 -0.496356 -0.00896387 -0.244643
147 1 0.379769 0.0382862 1.35064 -0.735228 -2.007 0.0170504
148 1 3.5542 1.77039 0.0397685 -0.875311 -0.594092 -0.262318
149 1 8.28999 6.35688 7.43813 0.766206 0.943816 -0.677727
150 1 8.5455 6.58298 5.7387 -0.17213 0.785322 0.163214
151 1 7.11418 9.26225 8.17496 1.33084 -1.22202 -0.452752
152 1 3.91035 5.09781 1.87579 -0.690504 0.138654 0.322745
153 1 7.34164 6.72694 2.49653 -0.232844 -0.121137 0.0495322
154 1 7.86386 6.15784 3.1456 -0.580349 -1.36125 -0.72446
155 1 7.06897 3.74834 2.67959 -0.248667 0.271708 0.638751
156 1 9.01735 3.47162 9.06137 0.42378 2.01901 -0.999047
157 1 1.08121 6.47649 8.6684 0.141277 -0.369128 -1.78464
158 1 4.42842 4.67213 2.48968 1.10429 1.60471 0.645884
159 1 5.01278 5.9284 0.297644 -0.542546 -0.140789 0.288224
160 1 0.0385308 1.00168 1.3346 -0.115964 -0.204701 0.0418342
161 1 3.98236 5.93773 2.08264 0.703388 -0.328678 -1.05546
162 1 6.66339 3.96032 4.75117 0.71574 -0.399451 -1.05941
163 1 9.15639 3.69185 0.470166 0.666493 -0.116126 -1.0086
164 1 2.51826 9.16522 5.40339 -1.1875 -0.395525 0.269045
165 1 6.63805 2.29499 8.21873 0.454352 -0.517043 1.01204
166 1 4.8921 6.04711 5.91931 0.24767 -0.916549 -0.166224
167 1 2.02312 1.67719 1.53936 1.59897 -0.305439 0.488657
168 1 3.91556 8.44937 0.450881 -0.0516234 1.90365 -0.522698
169 1 6.65282 3.38211 6.14885 0.125205 0.235548 -1.60628
170 1 0.845568 5.08227 1.08839 0.177942 -0.643972 -1.75461
171 1 1.76586 6.39663 1.4534 -1.12489 -0.123221 -0.176875
172 1 8.1789 6.49231 4.07177 -0.0178773 -0.296411 0.305385
173 1 5.40886 7.99127 6.56135 -0.00022116 0.61434 -2.297
174 1 1.99663 5.32848 0.161661 0.191918 1.00193 0.0913734
175 1 3.89879 9.33639 9.36979 0.387249 -0.554653 -0.296988
176 1 5.96273 1.08753 1.13128 1.17776 -0.123153 -1.16345
177 1 1.31124 6.02398 9.34818 -0.210323 -1.53865 0.443079
178 1 2.93919 3.40927 5.23118 0.623347 -0.43659 -0.197682
179 1 8.09289 3.00935 9.35394 0.371969 0.286628 -0.178105
180 1 6.09372 7.67418 1.07499 -0.914137 0.824312 -0.149093
181 1 6.14215 3.84595 2.34426 0.780309 1.68333 -1.58263
182 1 8.80883 2.734 7.2979 -0.325367 -0.911488 -1.16781
183 1 8.16911 0.715657 0.936678 -0.291139 0.405868 -1.07384
184 1 7.99867 6.90907 6.66017 -0.790033 -0.465577 -0.318163
185 1 7.70966 4.32511 8.92975 0.678758 -0.173206 0.57424
186 1 7.83725 2.83804 1.73841 -0.390068 -0.299229 -0.141272
187 1 9.05093 5.7318 5.47067 -0.350089 -0.485793 -1.05548
188 1 0.437613 0.384252 3.88612 -1.40379 -0.607744 0.122948
189 1 5.8592 1.12406 5.7657 -0.456025 1.12043 0.180586
190 1 9.15581 9.127 3.8979 -0.770187 0.564922 0.939121
191 1 4.1691 7.95449 7.3495 -1.6273 0.418707 1.13041
192 1 7.62498 1.76659 2.64225 0.231923 -0.0901524 1.25712
193 1 7.80932 5.79399 4.97988 -0.275054 1.44922 -0.960669
194 1 8.51167 4.22856 0.162188 1.07876 -0.756616 0.886282
195 1 8.96175 4.55748 1.05562 -0.873643 1.4089 -0.254695
196 1 7.84557 0.255151 0.2404 -1.21677 -1.30078 0.820801
197 1 7.74685 8.04019 4.83143 -1.10755 1.07748 0.205214
198 1 5.25947 0.716554 8.3238 -0.0780041 0.628246 0.578875
199 1 2.9786 2.32739 9.00956 0.0259031 -0.0248567 -1.07474
200 1 2.19977 3.22997 1.07572 1.5539 0.309705 -0.0426052
201 1 8.99078 7.66506 4.90224 0.659038 1.62842 0.0320741
202 1 6.96587 0.631946 9.35896 -0.345832 1.25146 -1.53569
203 1 6.99263 0.974947 8.02902 -0.426801 -0.59714 0.685449
204 1 0.750831 8.11142 8.70814 -1.73424 1.34046 0.807956
205 1 8.9954 2.11339 8.16545 0.492314 -0.493037 -0.0355811
206 1 1.92168 5.13396 7.25512 0.440889 -0.958245 1.04983
207 1 4.72876 5.55162 4.07429 0.132435 -1.31888 0.252214
208 1 2.80561 6.07698 1.40984 0.634876 -0.0117449 0.656567
209 1 1.45595 0.566579 0.900717 0.909383 -0.169635 0.667533
210 1 4.65866 0.642739 1.84598 -0.134708 0.725104 -1.11566
211 1 2.4834 4.25888 5.22538 0.348548 -0.457114 1.30229
212 1 3.50462 7.35224 0.45189 0.825565 -0.301275 -0.759633
213 1 3.45111 2.07688 1.01401 1.16967 0.065335 0.855652
214 1 8.78949 3.06506 0.967559 -0.419988 0.830249 -0.78313
215 1 9.17057 0.741806 5.47879 -0.521299 0.846418 0.809893
216 1 7.74378 1.41713 1.80366 0.289076 1.14923 0.335809
217 1 5.12809 3.25378 3.54201 0.0256515 0.562395 0.151867
218 1 8.04716 1.16636 4.22918 -0.031186 0.957636 -0.865612
219 1 2.71677 3.78887 3.50633 -0.750307 -0.289439 0.678124
220 1 8.19648 3.43058 7.34894 0.462677 -0.930872 0.25828
221 1 1.10097 9.01657 8.54398 1.31594 0.674887 -1.48332
222 1 8.38859 1.23979 2.4558 -0.40426 -0.159347 0.0462562
223 1 1.73101 1.51485 2.52501 1.22736 0.522624 1.06626
224 1 1.64062 8.18598 0.837309 0.519921 -1.55399 -2.6301
225 1 7.32977 2.52631 5.81692 -0.171775 0.324246 -0.2799
226 1 2.21286 1.10052 3.20276 -0.0765901 -0.397918 -0.177749
227 1 8.64548 3.77703 4.28808 -0.782862 0.360622 1.2502
228 1 6.07806 5.70194 1.86068 0.374723 0.552528 0.137448
229 1 5.53231 4.83486 6.80611 0.485099 -0.220708 0.970806
230 1 3.21286 5.30367 2.45428 -0.543163 0.0579955 1.11253
231 1 0.897094 4.79399 6.5961 2.06485 0.950452 -1.60632
232 1 0.0112179 1.31483 6.28426 -0.106689 0.583459 -0.444249
233 1 4.19818 5.68928 8.25235 1.11923 0.0337935 -0.211366
234 1 8.29835 5.80852 1.5346 0.922976 1.53742 -0.645362
235 1 0.783332 8.78963 4.05691 -1.33682 0.0816062 -0.467802
236 1 5.15356 8.52873 2.51053 1.01167 0.854418 0.353409
237 1 1.68195 5.54297 6.39023 0.707755 0.731983 0.584575
238 1 5.43041 5.90161 8.77843 0.14596 1.01747 0.982988
239 1 0.3809 2.13104 3.13538 -0.157435 -0.284837 0.168608
240 1 8.51156 0.164285 4.7727 1.17848 0.301914 1.32963
241 1 8.51468 0.491525 7.9261 -0.853551 0.744444 0.115115
242 1 5.84502 1.25962 2.374 -1.12001 1.33514 -0.25964
243 1 0.851508 7.82174 3.33409 -0.712289 1.71433 0.436121
244 1 1.92739 1.94067 3.36183 0.528386 -0.575551 0.905779
245 1 7.93973 4.52655 3.99119 -0.813425 -1.42507 -0.944308
246 1 1.49821 0.585975 3.57078 -0.1284 -0.355861 -0.284968
247 1 3.79485 9.13939 2.07728 0.277791 -0.237299 0.0230342
248 1 5.79867 6.28705 5.34867 -0.497834 -0.377853 1.43978
249 1 5.71452 4.09611 8.69224 1.29148 0.944702 0.0485418
250 1 0.583171 0.841494 4.95652 -0.753265 -2.36969 0.747264
251 1 4.504 7.99883 3.07112 0.904572 -0.265961 -0.546929
252 1 4.86628 0.0439091 9.36448 -0.0743196 0.0603169 0.478031
253 1 7.62891 5.1938 8.61202 -0.238304 0.449782 0.148215
254 1 8.61967 6.83518 8.09254 -0.688096 -1.1869 -0.188424
255 1 4.23322 6.44951 0.531221 -0.143619 -0.132977 -1.39917
256 1 6.8837 7.19111 6.44987 -0.874147 -0.00881845 0.0127549
257 1 1.85809 3.14446 1.92643 1.71115 1.09736 1.31914
258 1 0.192099 3.49582 1.48162 0.990504 1.45344 0.328279
259 1 5.57607 7.83166 9.31745 -1.13513 -0.452094 1.39874
260 1 2.0192 6.51793 8.91106 -0.458628 0.173862 0.734526
261 1 4.40679 1.27203 8.17836 1.04329 0.980328 0.214596
262 1 4.28228 6.2743 4.21166 -1.38721 -0.284361 -0.416716
263 1 3.17711 5.82024 7.48055 0.625776 0.151156 0.614477
264 1 0.750763 1.42844 0.778053 -0.462133 0.297943 0.598227
265 1 2.42746 6.9259 4.71235 0.414296 -0.424931 -0.481315
266 1 6.79733 6.64629 5.22918 -0.240414 0.203166 0.583745
267 1 6.2264 8.64576 6.96643 -0.123313 0.930641 0.588717
268 1 1.53619 0.532575 6.26508 0.201682 0.218492 0.310138
269 1 8.6325 5.96072 4.69116 -0.301294 -0.533004 -0.351004
270 1 6.66086 7.02919 1.50654 0.532938 -0.431458 0.89855
271 1 3.57138 5.36272 0.125117 0.450796 1.23659 -0.4417
272 1 2.33627 3.12486 4.01366 -0.156789 0.284389 -0.403203
273 1 0.683535 1.29569 2.4897 -0.320528 -0.0362246 -1.32613
274 1 6.44746 5.8697 5.83533 0.910802 0.405789 0.0237298
275 1 0.057382 5.38906 1.61703 -1.08271 -0.861685 -0.549917
276 1 6.17771 5.26041 7.82352 -0.232689 0.131678 0.540259
277 1 4.19164 3.8339 0.0759466 0.226384 -1.56445 1.26084
278 1 2.62924 8.04346 2.0356 -0.419817 -0.401533 1.47632
279 1 1.36303 5.81556 7.48678 0.356688 -0.0378785 0.367799
280 1 0.36358 2.50874 2.27332 0.537562 -0.339994 1.07297
281 1 9.37703 0.08161 6.5414 0.905454 -0.653428 -1.23516
282 1 8.28536 7.50932 1.75491 -1.11912 0.208327 -0.164704
283 1 3.78215 0.811697 4.42407 0.290244 1.12351 0.612332
284 1 0.0342179 7.44114 9.05413 0.70628 0.0981986 0.029253
285 1 1.56564 7.22241 3.06903 0.835627 -0.453101 1.06112
286 1 4.46152 4.60799 7.29755 -1.66937 0.566417 -0.0805462
287 1 3.30876 4.28306 0.267354 -0.687465 -0.765731 -0.67071
288 1 8.07625 4.00158 6.52152 -1.46916 0.526551 -0.475711
289 1 2.93315 7.91744 9.24451 0.378092 -0.576315 0.578548
290 1 4.33889 3.07031 2.76475 -0.384304 0.360136 0.239768
291 1 1.59831 8.3619 3.5916 0.124964 0.305388 0.364291
292 1 0.171071 5.72357 7.42262 0.880979 1.35453 -1.12712
293 1 9.16112 0.781759 4.35021 -0.224351 0.0289245 0.73044
294 1 7.82167 8.0987 3.52024 -0.0901714 -0.692621 0.788456
295 1 4.47454 4.76456 4.62654 1.69847 -0.379357 -0.446365
296 1 5.19453 0.413846 4.82136 -1.07327 -0.873861 0.432237
297 1 4.10327 8.96729 6.53081 -0.755651 -0.111289 0.890734
298 1 2.32763 0.0398701 0.715798 0.770238 -0.50518 -0.643779
299 1 5.60124 8.32841 7.52421 -0.59519 0.205675 -1.35602
300 1 2.86872 5.14659 5.2329 0.810127 0.464003 0.749465
301 1 2.83785 3.01653 6.07225 0.0194718 -0.327276 0.293779
302 1 3.99364 5.69371 4.85462 0.847059 -1.52873 1.33925
303 1 2.6485 5.54203 6.68937 0.60428 -0.271885 1.38764
304 1 2.88223 7.12259 2.22476 -0.284593 -0.103043 -1.3711
305 1 7.98432 4.75619 1.60054 0.782591 -0.654145 0.18344
306 1 6.13718 5.10971 3.24018 0.191759 -0.107316 0.0316098
307 1 1.27863 6.20892 2.56019 -0.871265 -0.296863 -1.27202
308 1 6.19974 0.0895183 0.261158 -1.46264 -1.62953 0.379421
309 1 6.74355 1.17535 3.10035 0.430096 0.01497 0.694555
310 1 2.8344 6.97326 3.78226 0.0326346 -0.216366 0.77961
311 1 2.14748 4.28008 7.51015 -1.10524 -0.19953 0.652045
312 1 5.3288 2.18905 3.90121 0.0596613 0.0894483 -0.11235
313 1 5.098 5.53859 7.94377 0.280137 0.47043 2.33181
314 1 2.39965 2.24362 7.72811 -0.790422 0.478627 -0.372073
315 1 3.22766 5.60606 8.53017 0.209334 -0.732506 1.08214
316 1 9.312 4.82972 5.02446 -0.711787 0.175926 0.180389
317 1 9.05043 2.815 5.5607 -0.603343 0.555503 -0.420241
318 1 3.19161 6.17055 5.33424 -0.404952 1.23233 0.0140327
319 1 2.72838 5.28967 3.16817 1.16047 0.455502 -0.970047
320 1 3.5642 2.8928 5.52784 0.0124889 0.400137 -1.42339
321 1 4.13103 0.0679254 8.52841 -0.486073 -0.676425 1.59154
322 1 6.30862 2.51941 6.84213 -0.705537 -0.452994 -0.323781
323 1 3.52425 8.72935 8.5644 0.512436 0.0197667 -0.383458
324 1 1.56841 6.44393 4.47662 0.355163 1.64824 0.145765
325 1 6.68613 5.84035 0.0205928 -1.85743 0.4005 0.855944
326 1 3.96276 6.91112 4.79098 -0.715958 -0.615152 -1.96914
327 1 2.72149 4.66416 3.83054 -0.657572 0.379715 1.30328
328 1 0.402577 4.41085 1.59826 0.761024 -0.265379 1.08845
329 1 6.09861 0.750971 3.71193 -0.18251 1.26932 -0.941781
330 1 2.39916 7.5168 8.67771 -0.532059 0.860898 -1.73889
331 1 7.55854 7.12349 5.78962 -0.429196 -1.01266 -1.71462
332 1 0.796696 0.785968 7.08882 -0.228183 -0.730927 -0.99705
333 1 1.65232 8.98288 6.41956 0.975529 0.155405 -0.555349
334 1 2.94206 6.51617 8.65327 1.83652 0.0836159 0.652922
335 1 3.68822 5.38861 6.85065 0.737841 0.749603 -0.269177
336 1 6.50659 4.02669 9.16775 -0.163171 -0.6652 -0.244254
337 1 4.44241 1.33052 2.60449 -0.616689 -1.05788 0.527581
338 1 8.8457 1.24818 8.55656 0.525062 0.207089 -1.35287
339 1 3.59868 0.658329 8.00081 -0.332541 -0.192146 0.237721
340 1 8.66179 0.399145 8.97617 0.968466 -0.840802 -0.375575
341 1 5.14662 8.35333 4.72281 0.771224 -0.827235 -1.01611
342 1 8.72495 4.5864 2.60345 0.881942 0.572484 -1.68616
343 1 8.93484 2.66452 0.0902563 0.314238 -0.754131 -0.561968
344 1 5.64571 2.15465 1.26924 -0.235297 -0.17645 0.0339406
345 1 3.77959 8.7123 3.80383 0.497947 -0.399788 0.0372765
346 1 5.74417 7.15525 1.88634 0.830177 -0.330504 0.457777
347 1 1.58366 4.3909 5.82047 -0.56951 0.104653 2.20455
348 1 0.381362 9.27738 9.09175 -1.14692 -0.250587 0.160021
349 1 4.94992 7.5152 8.69161 -0.603998 0.685384 -0.993439
350 1 2.98232 0.627607 3.69284 -0.0991311 0.833689 0.250518
351 1 1.55589 0.0316268 1.56946 0.855893 -0.407782 0.149913
352 1 1.90633 1.97744 0.154393 0.154642 -0.526801 -0.541222
353 1 3.70286 2.15609 3.00089 -0.367148 -0.756882 -0.325794
354 1 0.163745 9.22417 5.5955 0.909257 0.596912 -0.353107
355 1 3.75914 0.514296 1.59097 0.425588 0.991214 0.532467
356 1 1.21984 4.57232 7.40602 -0.203657 0.097274 -0.565507
357 1 5.90915 2.91332 4.21392 -0.228386 0.727752 -0.525744
358 1 1.36765 7.87572 6.3726 0.630013 0.21283 -0.731574
359 1 9.17295 6.88132 1.73392 0.344519 0.627378 -2.15292
360 1 8.63349 5.70475 8.01081 1.51161 -0.268278 -0.303121
361 1 5.91548 3.6444 1.36234 0.689829 -0.0987931 -0.488871
362 1 3.52894 7.84942 8.22753 -0.666303 0.0307077 1.35191
363 1 6.49633 2.92066 9.15333 -1.22351 0.0900188 1.32009
364 1 4.31204 7.8093 5.86265 -0.32963 -0.556715 -0.282002
365 1 3.02811 5.07843 1.60404 -0.68615 -0.213827 0.013273
366 1 5.23045 5.03966 3.16615 -0.647838 0.750792 -0.121135
367 1 4.56971 3.53936 7.73283 -0.416166 0.575766 -0.985621
368 1 3.57628 8.96572 5.63368 -0.684183 -0.337638 -0.710798
369 1 6.53457 1.59136 7.50547 -0.869197 0.472872 0.0190723
370 1 9.3073 2.92196 3.3123 1.686 -0.827959 0.727233
371 1 4.83559 6.2801 3.51391 0.844255 -0.674896 0.652707
372 1 0.696765 4.17642 5.01842 -0.0595681 0.772863 0.95491
373 1 7.14435 8.98347 9.35798 -0.210698 0.358534 -0.8679
374 1 7.57456 1.75827 8.5281 0.714703 -0.0830976 -1.44301
375 1 7.65224 5.46245 0.0423903 0.326387 0.52127 -0.536027
376 1 1.83571 1.72732 5.95202 -0.102255 -0.724 -1.72727
377 1 0.596532 9.37132 7.6786 -1.90827 -0.271401 0.560007
378 1 4.81808 6.69779 8.20161 0.00353344 -0.149783 0.516936
379 1 3.84381 4.88765 8.81903 0.158334 -0.405136 1.00751
380 1 2.52441 4.04984 0.73035 0.0373517 -0.287298 -0.389822
381 1 3.09134 3.73096 4.32298 0.577275 -0.0808856 1.71605
382 1 3.93709 4.35523 1.05669 -0.589609 -0.745105 0.152983
383 1 9.25468 1.70552 7.31394 1.08686 -1.5059 1.00122
384 1 0.749859 3.64185 7.71867 -1.00113 -0.525895 0.596823
385 1 5.47479 3.21723 8.72731 0.138201 -0.598075 -0.945171
386 1 1.37079 2.10019 0.86908 -0.41245 1.00723 -1.20516
387 1 7.35514 5.663 0.921613 -0.271668 0.296666 0.249005
388 1 0.185797 5.79902 3.21328 0.542991 -0.462196 -0.0968296
389 1 3.93338 7.92029 9.20573 0.527675 -0.516322 -0.236452
390 1 3.31026 8.37604 1.57114 -0.0360894 -0.797826 -1.20755
391 1 7.18337 2.22351 2.02904 -0.273282 1.24595 -0.531817
392 1 8.75037 8.19447 2.20851 1.28522 -0.411589 0.431854
393 1 0.593398 1.31306 4.23762 -0.16506 -1.16654 0.133422
394 1 5.16439 1.44193 1.86959 0.043028 -0.570857 1.49865
395 1 8.50539 3.01664 2.36028 -0.167683 0.477999 -1.472
396 1 8.71752 7.12601 2.64487 -0.292965 -0.18213 0.162909
397 1 1.11875 3.93146 2.05047 -1.09252 -1.12295 -1.06746
398 1 2.37856 0.968332 6.01406 -0.451159 -0.214962 -0.815273
399 1 6.37431 4.08318 5.53601 -1.2738 0.59319 -0.586818
400 1 7.69285 4.58926 0.405853 -0.996522 0.866832 -0.464476
401 1 5.02865 8.54227 3.69737 -0.0605883 0.6504 0.124408
402 1 2.49487 0.789645 8.58737 1.18342 1.25079 -0.784722
403 1 1.00706 3.11112 2.34669 -1.33019 -0.093412 0.200957
404 1 8.18804 9.39437 1.84312 -0.531245 0.131655 0.0600478
405 1 2.4212 0.420491 4.43437 0.660649 0.245856 0.134298
406 1 4.42203 4.83148 8.21518 0.288683 -1.06701 0.372492
407 1 7.79889 1.67884 6.02356 0.748133 -0.597138 -0.938124
408 1 4.48235 2.69715 6.20448 0.641762 -1.33702 -0.663257
409 1 2.42426 6.69208 2.87758 -0.0993024 -0.810542 1.00063
410 1 8.34517 2.06904 1.6222 1.02339 -0.207928 -1.56596
411 1 1.22823 1.40601 3.37547 -0.908342 0.647378 -0.458236
412 1 0.404512 2.65424 0.920658 -1.57497 1.36903 -0.719405
413 1 3.41298 2.45974 2.19702 0.324304 -0.948313 -0.118807
414 1 0.0503521 5.46775 4.21485 -0.586608 -1.35403 -1.26057
415 1 1.76691 6.75515 8.02926 1.65279 0.890358 -0.285674
416 1 1.33868 3.08593 1.08865 -0.407367 -0.292559 0.274901
417 1 1.02336 2.24368 5.95391 0.781007 -1.10272 1.45288
418 1 3.07553 8.3111 7.63229 -0.0667526 -0.489927 -0.569277
419 1 7.44541 9.33291 2.61398 -0.887534 -1.10502 -0.184585
420 1 3.27047 7.49527 4.51043 -0.447373 -1.20954 0.457215
421 1 5.43227 5.00151 0.44166 -0.161564 -0.127338 -0.0917391
422 1 1.46728 9.32168 7.32386 -0.33595 -0.533972 1.42418
423 1 1.60453 3.64066 7.23369 -0.359216 -0.0624003 0.0674833
424 1 2.33286 1.61944 8.80933 -0.0393384 -0.000765812 -0.526504
425 1 4.10992 6.9902 8.77578 0.705 0.22786 -0.913776
426 1 4.87208 4.29296 6.36361 -1.22348 0.790782 1.06728
427 1 6.58768 2.26548 4.15119 0.553843 0.494691 1.02547
428 1 7.37829 1.79205 4.28737 0.912079 -0.627441 -0.729411
429 1 7.04764 8.27597 4.31829 0.388461 0.191824 0.641748
430 1 5.62987 1.93007 7.04747 0.704685 1.48117 0.171327
431 1 6.69673 3.21891 4.1754 0.627378 -0.137623 0.85073
432 1 5.09913 3.60859 6.87953 -0.284545 -1.14033 -0.0331261
433 1 7.95953 9.07905 7.82551 0.921361 0.80233 -0.327345
434 1 9.14306 3.57693 6.28152 0.55041 -0.433688 0.0756263
435 1 8.75723 6.12307 6.60626 1.34436 -0.422145 -0.0608192
436 1 5.51426 9.16887 3.41029 -0.944812 0.263452 1.17133
437 1 2.67026 8.57765 8.64421 -1.05688 0.52948 -0.051924
438 1 6.91583 3.50035 1.72159 0.900181 -0.910183 -0.46883
439 1 -0.00470616 4.93964 3.36012 -0.417433 0.39885 -0.760252
440 1 4.49053 6.44031 7.37286 -0.516335 -0.126425 -0.533697
441 1 2.95294 9.31797 8.07661 -0.65252 0.669484 0.0168746
442 1 7.00738 2.0715 6.58408 -1.23963 0.571435 0.465153
443 1 2.01224 6.87661 2.11692 0.211999 -1.0454 -0.394643
444 1 5.62246 0.572218 1.80983 0.350413 -1.06902 0.390492
445 1 0.724817 5.74257 6.59431 1.15596 -0.470317 1.426
446 1 7.64204 7.3259 4.29009 -0.327871 0.274095 -0.110749
447 1 5.24099 3.03663 5.51769 0.242883 0.0607667 -2.06369
448 1 3.92136 8.82047 7.42794 0.576832 -0.492461 0.2487
449 1 4.83584 1.92532 4.97114 0.04266 0.532898 -0.223141
450 1 1.27696 1.21953 5.42081 -0.535102 -1.43012 0.882558
451 1 2.53662 4.34862 8.35243 0.169038 -0.219773 -0.109432
452 1 6.68456 0.666161 5.37946 0.920646 -0.398336 0.298757
453 1 0.467633 4.98306 7.77129 0.105043 1.62216 -0.854926
454 1 6.3859 8.5335 4.98026 1.05055 1.1041 2.21546
455 1 4.03809 2.75403 7.34173 -1.30015 0.232163 -0.0654251
456 1 5.77811 7.63574 8.07387 1.32482 0.323255 0.744143
457 1 0.257254 6.05461 5.02043 -0.993829 1.01449 -1.03284
458 1 1.12698 8.35433 0.0644861 0.702908 1.06405 0.705341
459 1 6.72628 0.305724 7.22227 -0.0151891 0.6274 1.31502
460 1 8.64037 4.39449 3.42379 0.249082 -0.507724 0.793204
461 1 5.4524 6.13124 4.39671 1.16481 -0.163289 -0.0896166
462 1 4.51782 4.67405 3.54408 -1.04144 -0.117436 -1.00653
463 1 0.595059 3.69926 9.07285 0.618989 -0.39479 0.219706
464 1 5.5034 3.94177 4.9448 -1.74716 -1.25001 -0.485167
465 1 9.23505 0.165571 0.583766 0.181714 -0.139456 -0.974639
466 1 4.09031 1.60879 1.61724 0.555066 -0.162655 0.573306
467 1 2.01613 9.28314 8.84351 0.589151 0.134521 0.333276
468 1 7.99647 2.2955 7.86151 0.0925861 0.00652124 -0.868361
469 1 8.38673 6.63825 1.18396 0.094351 0.0416909 0.0720374
470 1 0.706032 0.535754 0.417714 -0.196864 1.28365 -1.08338
471 1 8.69806 6.95118 9.01595 0.812626 -0.443971 -0.14168
472 1 2.71232 0.627039 0.226703 -0.287349 -0.651043 1.91275
473 1 1.22798 0.580501 8.83971 -0.15386 0.99442 1.60548
474 1 6.53945 7.29249 2.66095 -0.26055 -0.487774 0.168922
475 1 7.8098 5.62081 7.62863 -0.404196 1.0911 -0.36211
476 1 0.727971 0.492499 5.75742 0.235546 -1.34949 -0.0293889
477 1 3.4995 1.10931 0.741477 -0.487916 -0.513863 -0.357869
478 1 4.69492 8.11336 8.10054 0.725602 -1.22284 -0.79704
479 1 6.35627 0.232189 8.72111 -0.968971 -0.363513 0.0650033
480 1 5.8107 2.52071 7.70772 0.119305 0.0105762 0.859328
481 1 2.17676 8.62588 0.155664 1.10574 0.357276 -0.926706
482 1 1.8847 8.33355 6.94985 -0.230397 0.438258 -0.701854
483 1 1.62414 7.61668 1.56619 -1.1811 -0.394178 -0.645387
484 1 7.40812 3.0633 1.0374 0.638986 -0.619878 -0.56242
485 1 7.60757 9.15866 5.18458 -0.769897 -0.448786 0.838671
486 1 3.77254 3.10278 4.60766 0.759428 0.817564 -1.17444
487 1 4.4044 4.00232 1.8539 1.1829 0.105986 -0.438307
488 1 1.96626 4.49034 6.62938 -0.447069 -0.9064 -1.47931
489 1 5.06488 1.45168 3.20958 1.94997 -0.149874 0.745245
490 1 2.43112 5.90957 4.84587 0.843067 -0.338188 -1.1924
491 1 6.73917 8.05366 3.3315 -0.0990294 0.576658 0.435948
492 1 5.77765 3.77251 4.06632 -0.856483 1.08238 -1.09566
493 1 3.72377 3.55007 2.27579 1.35525 -0.94722 0.362977
494 1 2.58024 7.57043 6.44123 1.8737 -0.801106 -0.584429
495 1 2.63579 7.74433 0.618875 0.185017 -0.127793 -0.939373
496 1 0.454851 8.70902 0.702677 -0.256322 -0.591911 -1.41463
497 1 8.36617 3.90653 0.997139 -0.548173 1.74104 0.179539
498 1 7.73141 0.688255 5.70849 -0.724895 -0.72484 1.41264
499 1 3.33808 5.27637 6.03416 -0.365682 0.696058 0.222079
500 1 2.29324 2.27107 0.911863 -0.12316 0.170243 -0.225506
501 1 3.76017 4.53532 6.44348 0.12524 -0.479562 -0.893607
502 1 9.16554 8.93354 1.75125 0.00288751 -0.271025 -0.761099
503 1 2.52041 7.07064 1.36084 -0.818269 0.207067 -0.22292
504 1 8.71705 7.54403 7.15412 -0.290335 0.16891 0.803354
505 1 9.0885 6.44133 3.05954 -0.258913 -1.0405 0.950538
506 1 2.24593 3.98973 4.27041 0.255048 -0.402275 -1.5816
507 1 6.82288 8.99138 5.76165 0.522255 0.624805 -0.766792
508 1 5.31754 0.624816 0.658437 0.599103 -1.02318 -1.1416
509 1 2.51116 5.13656 8.75849 0.465102 -1.02113 0.2245
510 1 5.86822 3.47093 0.101654 0.0531532 0.867989 0.949526
511 1 5.22378 4.48937 7.91338 -0.299277 1.76371 -0.0476285
512 1 1.37403 6.47724 6.47999 0.143466 -1.23372 -1.56044
513 1 3.52115 6.56381 6.14243 -0.740268 -1.09597 -0.185055
514 1 5.91404 8.41675 3.00408 1.20589 -0.719881 -0.144053
515 1 4.32235 1.13002 6.4769 -0.212987 -0.0543191 -1.48096
516 1 3.74142 6.89066 3.79441 0.477115 0.159665 -1.01629