ITEM: TIMESTEP
132400000
ITEM: NUMBER OF ATOMS
1000
ITEM: BOX BOUNDS pp pp pp
0.0000000000000000e+00 9.4000000000000004e+00
0.0000000000000000e+00 9.4000000000000004e+00
0.0000000000000000e+00 9.4000000000000004e+00
ITEM: ATOMS id type x y z vx vy vz
1 1 2.69341 7.13849 8.95264 1.23612 0.243391 1.10581
2 1 4.30252 8.1652 3.35325 -1.63046 -0.804373 0.824707
3 1 5.9793 4.70034 5.85705 -0.949757 -0.537078 0.126657
4 1 6.62911 5.86652 5.51133 0.097052 -1.96581 0.83382
5 1 0.368293 6.34801 2.06669 0.058008 -0.69054 1.58983
6 1 2.16593 6.55411 5.64627 0.172318 -0.833879 0.595523
7 1 4.01817 6.44859 2.93866 1.14257 -2.40459 -0.206961
8 1 9.24613 5.84114 6.57464 0.956504 -1.37489 0.647236
9 1 1.5102 2.46253 0.707611 0.485794 0.0869926 -1.05188
10 1 4.19545 6.82538 7.59434 -1.19945 1.2071 -0.0220224
11 1 1.06788 3.83809 6.37878 -1.25415 0.613541 0.588043
12 1 1.79359 7.5215 5.79067 -0.142987 0.712164 -0.376831
13 1 4.67851 1.43615 6.75661 0.485456 -0.135197 0.893916
14 1 6.67504 2.37393 7.67468 0.52904 0.18358 0.525483
15 1 6.10026 3.29698 2.78962 -0.330994 0.906388 -0.108189
16 1 7.15151 3.13235 4.52044 0.400685 0.517531 0.482567
17 1 4.57346 3.36843 1.79016 0.594683 -0.867013 -0.316426
18 1 0.0394494 6.63426 5.38545 0.665663 0.349806 -0.0960537
19 1 2.65301 8.67515 6.6966 -0.670783 -0.0570772 0.0629087
20 1 2.11309 5.05853 2.08864 -1.25091 -1.04689 -0.0920856
21 1 2.50226 0.0988138 4.37162 -0.779964 0.204596 0.610445
22 1 8.86694 2.60543 7.60199 -0.0154562 0.457706 -0.127294
23 1 3.21528 9.17385 3.63684 -0.536314 -0.503628 -0.546354
24 1 7.83139 4.64901 5.38243 0.578946 -0.337107 -0.077489
25 1 8.70719 1.41941 9.15504 -0.196998 0.113356 0.486991
26 1 0.0349967 1.40249 3.76687 0.914402 -0.0640782 0.295148
27 1 1.58611 5.75727 8.29319 1.03782 -0.0958305 -0.718154
28 1 3.70711 4.94253 7.68827 -0.406427 -0.588006 0.775874
29 1 5.69017 8.23915 3.56148 0.422612 -0.614702 -0.026098
30 1 8.31322 5.74507 1.77414 -1.35397 0.158927 0.295464
31 1 0.761115 1.91922 4.9262 0.23701 -1.57966 -1.23887
32 1 3.03179 3.40054 4.31073 -1.00266 0.760743 -0.655085
33 1 5.83008 8.92943 6.93852 -0.625288 -0.113604 0.842068
34 1 5.89734 7.66103 7.34515 0.407024 -0.152986 -0.379943
35 1 5.59069 6.34396 3.71431 -1.11152 1.4225 -0.248952
36 1 5.86816 5.90508 7.25569 -0.645574 -0.540382 -0.183497
37 1 7.3006 4.12392 3.4884 0.720149 0.161219 -0.384854
38 1 4.44104 2.48228 7.48272 -0.373716 -0.999958 0.0571378
39 1 5.95452 5.75305 9.13708 -1.21396 1.78576 -1.84238
40 1 0.521682 7.73948 9.24371 0.676379 0.392887 -0.523598
41 1 8.14931 5.45924 5.82796 0.575734 0.0295719 0.286228
42 1 3.82485 1.09569 1.38333 -0.182742 0.69989 0.76842
43 1 8.63725 7.01925 9.31339 0.406305 0.336052 0.901893
44 1 2.08636 3.16504 2.21729 0.762031 -0.435776 -0.354286
45 1 4.64368 6.37658 6.91104 0.436943 0.797641 1.12491
46 1 3.11931 3.60975 8.71209 -0.437956 -0.960532 -0.677367
47 1 8.48812 6.03754 0.381453 1.07965 1.20042 -0.202006
48 1 3.38783 2.19399 2.66508 -0.127811 -0.789599 -1.03146
49 1 1.38149 6.75112 4.89941 -0.752888 0.0734504 0.693197
50 1 5.30146 1.83893 4.84834 -1.45441 0.835474 0.0379894
51 1 8.03623 4.04717 8.73678 0.29723 -0.930369 -0.0974147
52 1 1.42722 8.59075 0.0537348 -0.723564 -0.150392 1.25057
53 1 0.371431 9.4115 4.23531 0.679421 1.98977 0.727171
54 1 7.46721 7.6085 3.08161 -0.235498 -1.02035 -0.0765959
55 1 0.795061 0.0852053 5.55569 1.70817 0.322707 -0.975042
56 1 6.94019 1.64177 1.45697 0.395511 1.08273 0.959763
57 1 4.27102 8.7635 0.740424 0.14433 0.641989 0.272108
58 1 5.18575 5.50709 4.2591 0.0125743 0.211377 0.452993
59 1 2.10618 3.50068 6.65112 1.55375 0.214923 0.433966
60 1 8.02456 0.829613 5.34474 -0.440746 -1.49187 -1.20094
61 1 6.13541 6.36025 2.87121 0.183631 -0.692462 -0.268114
62 1 6.57338 4.95074 1.01663 -0.883894 0.27837 0.264861
63 1 6.00526 1.6097 9.35138 -0.3473 0.135008 -0.13068
64 1 7.94136 9.34628 6.69514 -0.0585343 0.0708085 0.613416
65 1 3.20818 9.01086 9.30819 -1.3179 1.06369 0.470032
66 1 0.772464 3.38564 1.1845 -0.876166 -0.0958375 -0.627062
67 1 6.66941 1.46072 2.32646 -0.461137 -1.38698 -1.14337
68 1 4.66822 3.18458 0.262322 0.0691246 -0.245651 1.40452
69 1 2.31233 5.31519 4.07499 0.498279 0.603205 -1.04282
70 1 2.90661 7.37124 2.60002 1.93331 0.12987 0.18174
71 1 7.54535 2.19188 4.64051 0.724928 -0.0527553 0.876307
72 1 0.498697 3.64695 2.10787 -0.645098 0.881575 -0.131937
73 1 0.912768 1.36969 3.88353 -0.130546 -0.121472 -0.288764
74 1 7.55022 9.02659 1.64142 0.728351 -0.406562 -0.161498
75 1 5.15814 5.66602 6.57553 0.246049 -0.128598 1.0822
76 1 0.00721779 8.54639 3.71287 -1.19619 0.56204 -0.409049
77 1 7.00878 6.85163 7.72055 0.29241 -0.0605044 0.48142
78 1 1.72177 1.49977 7.84181 1.44743 -0.396177 -0.549437
79 1 7.8397 7.46801 7.97309 -0.818185 0.579176 -0.118639
80 1 4.63699 2.0794 2.56979 -0.148838 0.28689 0.898311
81 1 0.318695 6.78936 7.92538 -0.590254 0.646011 -0.359517
82 1 2.91552 4.93016 5.21001 -0.739339 -0.157416 0.664412
83 1 0.409324 8.52539 0.439156 0.545252 -0.757975 -0.0202525
84 1 5.87088 1.67035 5.475 -0.627779 -0.399656 0.662675
85 1 2.68383 7.75315 4.22893 1.59288 1.5638 0.154411
86 1 5.48337 4.31229 1.74331 -1.06952 -0.162579 -0.127894
87 1 4.02346 8.35184 9.13142 0.29671 -0.34673 0.262567
88 1 8.93423 1.85241 6.65517 -0.789331 0.486899 1.06449
89 1 0.574878 6.02188 6.00054 0.149333 0.55903 -0.204479
90 1 8.32609 2.70915 0.833093 -0.419328 -2.06689 -0.120523
91 1 5.72988 8.09274 9.17114 -1.41169 -0.56404 0.195955
92 1 2.62899 7.75678 6.84621 0.175573 -0.559798 0.371115
93 1 4.29899 4.53417 2.78314 -0.207075 -1.15879 -0.921717
94 1 6.63286 7.10105 0.686086 -0.0398283 0.0550101 -0.0524256
95 1 8.28209 6.31878 6.81263 -0.55286 -0.122435 0.963328
96 1 6.9114 0.804814 7.65891 -0.0831654 0.777551 -0.525546
97 1 7.84751 7.12711 6.36805 0.0276213 2.56334 0.384942
98 1 1.21173 2.99606 4.76316 0.401477 -2.13523 1.43198
99 1 5.4882 1.48455 8.32843 -0.132877 0.262164 0.618017
100 1 0.284639 7.92565 1.62084 0.189453 1.17696 1.18175
101 1 4.05921 0.854206 6.48348 0.383529 0.228228 0.0300162
102 1 6.5415 5.76833 3.85192 0.284418 0.394748 -0.57069
103 1 0.830572 6.48118 6.74159 1.22889 0.205848 0.327271
104 1 1.40869 0.639316 7.13714 0.0137038 1.73122 -0.119494
105 1 7.33358 5.72487 6.25742 -1.32969 0.421519 -0.357779
106 1 0.486785 5.96433 9.16132 0.0661794 -0.557577 -1.01626
107 1 5.85681 5.25115 3.65851 -0.338999 -0.279827 -0.657149
108 1 3.82113 8.69095 4.25926 1.03944 -0.134368 0.878926
109 1 5.86254 4.64445 2.51117 0.330315 -0.0349159 -1.63449
110 1 6.03192 0.396796 6.53642 0.900133 0.811511 -0.0370344
111 1 6.37217 4.77918 7.31539 0.345554 -1.07596 -0.513553
112 1 6.52463 0.860804 0.0186578 -1.15335 0.326717 -0.0676516
113 1 6.38947 0.237574 4.62553 -0.164971 -0.0347095 0.60285
114 1 2.20355 1.87372 5.21678 -0.508893 -0.826387 0.964832
115 1 4.56865 5.97134 1.45349 0.0687243 0.470985 0.0588917
116 1 8.48284 4.21688 0.358396 -0.0235318 0.213478 -1.67503
117 1 7.34862 4.80524 0.242386 -0.836726 -0.961956 -1.49548
118 1 3.16115 8.34105 2.5386 -1.22738 -0.287045 -0.950552
119 1 0.289459 0.895834 2.26426 1.25841 -0.118002 0.438222
120 1 2.99434 1.68976 6.76111 -0.474309 0.576982 0.226551
121 1 7.28757 0.351386 1.1695 0.130569 -0.619789 -0.0446775
122 1 5.10872 7.99629 2.87524 0.457799 1.66296 -0.30246
123 1 5.4776 4.39936 0.912475 0.388619 -0.462169 0.338341
124 1 3.37753 9.0035 6.14813 0.600586 -0.825488 0.851799
125 1 3.00503 0.840012 3.86195 0.331157 -1.73553 -0.418871
126 1 1.26877 8.85593 3.38746 0.449177 -1.05619 -0.298184
127 1 2.98236 3.71218 1.83707 0.372704 -0.210372 1.0211
128 1 6.31534 9.37751 5.59839 -0.333671 0.0809558 -1.58206
129 1 1.26814 5.58563 2.44462 -0.089176 -1.60346 -0.0779735
130 1 3.29052 1.98952 3.73178 0.670907 0.922243 -1.03645
131 1 3.11971 8.37386 7.39249 0.301156 -0.996402 0.300483
132 1 3.94324 3.05871 7.11073 -0.81879 0.570344 -1.06777
133 1 5.63127 0.736147 5.17625 0.0815186 -0.973815 -0.542072
134 1 8.44294 7.18049 4.11046 1.27163 -0.658977 0.654171
135 1 8.04248 2.5989 7.11088 -0.83478 -0.0830065 -0.715817
136 1 7.29948 0.984397 6.25778 -0.170439 -1.37535 1.0803
137 1 4.69455 4.13695 5.73397 -0.66633 0.164655 -0.908487
138 1 5.99562 2.52155 3.92017 -0.239015 0.023108 -0.27722
139 1 4.50519 0.21776 2.55423 -0.901085 0.81393 0.125435
140 1 2.2624 6.50196 2.01898 0.421944 1.56425 -0.290112
141 1 5.29482 3.57817 1.23167 -0.03425 0.0763577 1.24165
142 1 9.03931 2.87001 6.7788 -1.23553 -1.22806 0.014867
143 1 0.972082 6.19524 1.40465 -0.828175 -0.284082 -0.158117
144 1 6.17688 1.295 6.74564 -1.41782 0.712201 -0.704634
145 1 3.60951 4.09706 2.44166 -0.306383 -0.961236 0.791662
146 1 5.0414 4.75009 5.02303 0.637904 -0.306767 -0.806857
147 1 5.41862 0.809561 7.03103 0.753252 0.048062 -0.00118343
148 1 6.71103 8.52487 5.98376 -0.870404 0.138936 1.08616
149 1 8.02037 4.23447 6.83591 0.537108 0.0763079 -0.697219
150 1 7.0538 5.0988 5.71108 0.14129 -1.38923 0.0850757
151 1 0.0497307 7.87685 5.33554 0.949845 -0.530065 -1.03109
152 1 6.21486 7.39796 8.59974 0.415449 1.39666 -0.260027
153 1 8.7002 4.17419 8.19457 0.243791 0.221554 1.80692
154 1 7.54216 6.01926 5.21553 -1.84485 -0.414232 -0.163514
155 1 3.42014 7.41294 1.79718 0.774189 1.69211 -0.429225
156 1 1.5685 7.50216 0.0215635 -0.812522 -0.139604 -0.841283
157 1 2.60922 9.3007 8.51879 0.43747 0.301341 -0.640165
158 1 8.2895 2.29862 1.99293 -0.320602 0.0494562 0.00909406
159 1 7.45818 8.2438 5.37319 -1.67417 1.02383 -0.303419
160 1 5.71621 3.45206 1.97263 0.0495695 -0.484777 0.200566
161 1 1.63024 3.83525 0.540615 0.630097 -0.0631349 0.269438
162 1 0.454645 2.68924 7.63527 -0.0951024 0.804003 -0.67247
163 1 0.987572 2.08201 2.39459 0.834936 -1.33183 -1.03143
164 1 0.111091 3.50823 6.33791 0.227704 0.853862 0.430597
165 1 1.34547 6.51354 2.13434 -0.506404 -0.108987 -0.62854
166 1 2.82213 7.40954 1.08679 -0.398234 -0.0903643 -0.710989
167 1 3.45866 1.64306 8.05613 -0.50671 1.31867 0.400107
168 1 4.9671 2.82034 4.2953 0.376013 0.942109 0.0388953
169 1 2.06564 6.19563 7.22224 0.55425 0.429694 2.13442
170 1 4.7206 4.15655 4.45669 -0.758773 -0.485177 -0.940318
171 1 5.0516 0.14732 8.82692 0.454157 -0.313252 0.143045
172 1 6.35521 3.89168 4.41707 0.156501 1.15446 1.12624
173 1 2.28529 8.70348 7.72616 0.0524106 -0.940228 -1.09103
174 1 7.73013 7.22455 8.87243 -0.152588 -1.09302 -1.20519
175 1 3.11506 6.14636 8.78512 -0.231127 1.57341 -1.33441
176 1 6.699 2.70409 2.24611 -0.285281 -1.14208 -0.157832
177 1 6.77489 1.85702 6.24458 -1.16268 -0.118554 0.0934611
178 1 6.63372 2.41066 4.56477 -0.975228 0.359125 0.258655
179 1 8.26552 0.198035 7.67666 0.214208 -1.37459 -0.196059
180 1 8.31723 5.79399 3.1627 1.28688 -1.52483 0.733492
181 1 8.58221 3.18231 1.79183 -0.370566 0.81117 -0.451263
182 1 6.74617 1.10723 3.88593 -1.23763 0.20065 -1.24425
183 1 2.21079 2.42108 9.16434 0.836283 -0.32744 -0.97661
184 1 4.62226 5.40654 3.06061 -0.596817 -0.055787 -0.763227
185 1 6.38205 8.55229 0.30207 -0.481848 -0.200513 -0.144529
186 1 0.224332 2.60534 4.83285 -0.852039 0.0574531 -1.65911
187 1 8.94097 6.5647 4.65579 0.879608 -0.799196 -0.054229
188 1 8.25717 5.18419 6.70468 -0.0466505 -1.29375 -0.45028
189 1 3.20757 8.09249 8.58671 -0.0770993 0.406701 -0.916282
190 1 8.32578 0.638712 8.45284 -0.0697294 0.518545 0.369422
191 1 7.3466 4.24531 6.16794 0.886716 -0.345996 0.679137
192 1 3.1743 4.78486 4.27243 -1.21416 1.02289 0.234274
193 1 2.88382 0.386145 2.86885 -1.14282 -0.0157681 -0.671178
194 1 1.89802 7.03473 4.2184 -0.149685 -2.03794 -0.208375
195 1 2.16605 3.09023 0.587436 1.20395 0.98781 0.453483
196 1 8.03699 4.1722 4.12876 -1.10269 -1.31592 -0.619535
197 1 4.27937 5.36182 3.92435 0.832441 -0.196032 0.417415
198 1 5.03294 2.16185 8.81966 1.51237 0.783322 0.789354
199 1 7.77655 6.202 2.3159 -0.947603 0.169071 -0.263402
200 1 6.31397 3.91144 0.917589 -0.416496 0.710916 1.37621
201 1 8.54701 0.52004 4.22565 1.7114 -0.401406 0.0150745
202 1 7.3681 4.9024 7.00533 -1.85115 0.271201 0.508934
203 1 1.50972 8.6959 1.06113 -0.622641 0.630156 0.841828
204 1 4.59549 1.48028 7.89178 -0.303484 0.243904 -0.0902586
205 1 8.38185 7.13975 0.809125 0.697703 0.541017 0.297103
206 1 1.71145 8.8955 4.21652 2.09926 0.642133 0.166065
207 1 7.3768 5.65817 0.379896 0.522844 0.687793 0.356037
208 1 3.53289 4.60909 0.94633 0.813352 -0.384967 1.94243
209 1 6.8805 7.47598 7.0371 -0.333101 1.18114 0.867873
210 1 9.20724 7.5785 3.53971 1.05153 0.993969 0.303149
211 1 5.54622 0.177167 0.115227 -1.0637 0.690948 1.10824
212 1 0.578131 4.27229 6.92495 0.543994 -1.33128 0.0514331
213 1 5.55721 4.78627 8.69452 0.56228 0.229093 -0.332154
214 1 0.8287 2.46277 1.51637 -0.499169 -0.106655 -0.23082
215 1 1.39885 9.04658 6.21201 0.681097 0.217587 -0.750895
216 1 8.41344 5.16502 8.42668 0.11682 -0.178389 1.179
217 1 5.22956 2.42789 5.70607 0.0845687 0.186842 -0.75542
218 1 2.20684 4.58759 8.44301 1.15565 0.363194 -1.99329
219 1 6.05065 8.10918 2.80124 1.42534 0.015207 -0.529098
220 1 4.01882 3.66236 6.27809 -0.838321 -0.71239 -2.01228
221 1 4.25322 5.00533 1.44337 -0.651026 0.20791 0.0987209
222 1 6.50054 7.58725 5.48218 0.402739 0.0451505 1.19484
223 1 5.40517 0.134073 0.990883 0.464595 -0.0441593 -1.34655
224 1 8.5159 5.93187 5.09452 -0.667603 -0.545683 0.429692
225 1 3.79468 7.79157 7.36423 -0.247145 0.188111 -0.992161
226 1 9.15521 5.98717 1.6082 -0.662687 -0.76909 0.448878
227 1 3.80859 6.59855 1.11622 0.19495 -0.632428 -1.3263
228 1 2.27336 5.69476 1.3163 0.0492775 0.429937 0.911131
229 1 9.31102 3.64938 1.47288 -1.32436 0.239115 -0.231912
230 1 4.38243 9.12437 5.84924 0.100645 -1.29224 -0.0132616
231 1 5.19955 5.78305 2.25125 -1.17059 0.199968 0.27931
232 1 4.6493 0.206598 1.57934 -0.568818 1.59489 -0.309287
233 1 1.64467 3.79331 4.42034 0.747372 0.986303 0.194423
234 1 4.308 1.04016 0.240333 0.283297 0.56041 -1.14362
235 1 1.47526 7.66893 3.36622 0.36293 -1.57627 -0.527072
236 1 5.90703 0.259753 7.54766 -0.312365 -1.19553 -0.192767
237 1 1.11555 0.305988 3.61461 -0.428414 0.696347 -1.12418
238 1 2.44301 0.899681 6.89115 -0.258282 0.987776 -1.13503
239 1 4.53828 8.72132 8.08092 -0.172495 1.63432 -0.209476
240 1 9.25436 7.05125 2.65051 -0.514451 -0.491248 1.65655
241 1 9.37235 0.184337 9.00616 0.212094 1.4385 0.775088
242 1 3.05477 6.90523 7.06505 -0.188217 0.170931 -0.330229
243 1 7.29814 3.97885 4.69721 -0.582594 0.181206 -0.827469
244 1 2.04882 4.40027 3.77003 0.561476 -1.92924 0.126922
245 1 1.49491 5.91946 0.597173 0.256041 -0.237614 -0.209235
246 1 7.28536 5.28467 4.76836 -1.66435 0.340777 1.37069
247 1 6.29878 2.14938 8.5326 0.462883 0.979871 -0.00379015
248 1 3.81883 4.09758 4.63007 0.0717115 0.516353 0.633713
249 1 0.697508 1.2291 8.62679 -0.00276922 -0.450845 -0.732676
250 1 7.26819 2.54019 6.62457 -0.310348 -0.646501 0.068971
251 1 5.05224 1.61575 0.198909 -0.661769 -0.100559 -0.705299
252 1 2.47823 3.47655 7.68359 0.0664854 1.16929 0.00485703
253 1 8.68091 4.93035 2.39835 0.128512 0.434265 0.476349
254 1 0.084118 7.33482 0.453087 0.584993 0.405267 1.62016
255 1 6.66057 0.0576024 8.95467 -0.350922 -0.522166 -0.599005
256 1 3.76116 8.64157 5.3112 0.506064 0.397587 0.232405
257 1 2.77526 3.44604 0.13209 0.398771 0.309354 0.212009
258 1 8.72224 8.83957 6.98233 0.476266 1.03459 0.71865
259 1 7.49029 5.00774 3.85489 -0.327653 -0.487601 -0.307408
260 1 1.62945 6.29063 6.40736 -0.354147 -0.740438 0.176737
261 1 8.03987 6.89394 5.08683 -1.02675 0.0241496 -1.63753
262 1 1.57595 7.95062 4.43277 0.28473 0.238101 -0.342127
263 1 3.6008 4.94796 2.34328 0.574246 -0.152612 -0.0462222
264 1 5.59758 9.04487 4.71129 -0.689099 0.00553121 -0.0496319
265 1 7.14386 7.29527 4.85435 -0.301053 0.27191 1.18034
266 1 8.92001 9.06815 2.93714 -0.0135915 0.454544 -1.14577
267 1 2.01607 6.99209 6.81456 -0.132516 -1.00946 -0.255324
268 1 4.82252 2.89423 1.01712 0.715669 -0.868947 1.28676
269 1 0.959899 7.60376 5.04605 0.406664 -0.267661 -0.981673
270 1 3.62462 0.858216 4.90102 1.73797 1.68819 -0.657807
271 1 3.97429 2.40881 4.28286 0.875368 0.473489 0.0768591
272 1 5.80463 7.17007 5.00404 0.359918 -0.0342946 -0.0257718
273 1 3.9499 3.91805 7.4676 -1.58018 0.317861 0.179441
274 1 7.47309 8.03952 8.72721 0.250412 0.79641 -0.362651
275 1 9.24341 4.24654 4.32073 -0.0468248 -0.343932 -0.112392
276 1 9.10404 3.55456 9.10529 0.47189 0.221933 -1.88796
277 1 4.56292 4.35843 6.67746 -0.131725 0.429789 0.762895
278 1 2.06884 3.90136 9.19155 -0.606685 -0.688013 -1.74518
279 1 4.2877 1.95031 9.3289 -0.476836 0.807416 -0.046455
280 1 0.898536 4.6351 4.36305 -0.262825 0.811691 1.20566
281 1 4.86982 6.84261 8.56633 -1.58537 0.027568 0.742416
282 1 5.58913 9.02314 8.08775 -0.492254 -0.0498728 0.146383
283 1 1.61748 7.1568 2.62871 -1.2343 0.208286 0.175961
284 1 4.50382 1.4412 1.88479 0.50829 -0.232637 -0.282972
285 1 0.749278 9.02837 9.13414 -0.114001 0.51516 -0.283559
286 1 7.73199 1.29765 3.92422 -0.133573 -0.923285 -0.114377
287 1 5.16017 2.86163 2.48116 0.400758 0.475282 0.540445
288 1 5.67582 4.05832 5.12938 0.110571 1.49633 0.593225
289 1 0.45493 8.46691 2.30026 -0.0629189 -0.530954 0.369513
290 1 5.05497 8.93749 2.8382 -0.882137 -0.234921 -0.721484
291 1 8.74085 7.09521 6.62763 0.810226 0.121356 -0.00948449
292 1 0.023408 8.11091 6.69408 -0.677201 -0.932173 -0.885707
293 1 6.32457 3.78408 5.82274 0.479847 -1.31167 0.552563
294 1 5.46344 5.76141 3.07316 -0.894447 1.45009 -0.90326
295 1 0.809555 2.35252 4.06867 -0.185547 0.0977366 -1.19398
296 1 4.94713 8.49918 4.07863 -0.332651 1.7389 -0.79438
297 1 4.21014 7.10987 0.446875 0.920141 -0.804927 -0.785195
298 1 1.73199 3.75846 7.98567 0.891122 -0.376569 0.772262
299 1 1.3579 8.23469 2.57956 0.769247 0.562073 1.06496
300 1 3.25359 7.9993 3.4702 0.52227 0.457623 0.873383
301 1 9.24239 2.53748 3.72517 0.993707 -0.0997638 0.264533
302 1 5.60349 0.962377 0.655091 0.454249 -1.01873 0.133991
303 1 6.29264 7.26953 3.22246 0.235806 0.00953028 -0.447388
304 1 2.62702 2.42961 3.25174 -0.392248 0.560498 0.875158
305 1 7.52091 6.54916 0.0839056 0.857759 -1.63102 0.245293
306 1 4.59177 3.01034 8.7104 -0.76044 0.369663 -0.964979
307 1 4.61745 6.09121 3.55664 1.10088 1.14899 1.60639
308 1 5.78929 8.11426 4.5042 -0.396392 0.764162 1.24345
309 1 5.93026 8.9782 8.96719 0.024241 -0.535343 0.278516
310 1 7.45128 1.26337 0.665069 1.13797 0.575636 0.52352
311 1 0.887039 7.13018 4.11423 -1.24285 0.165453 1.45367
312 1 4.68806 3.5435 7.07577 -0.737856 0.430404 -1.28813
313 1 7.99538 8.97523 4.30778 0.582679 0.232655 1.92032
314 1 4.53787 2.50116 5.09161 0.579817 0.606216 -1.21307
315 1 3.37208 8.15782 6.44315 0.932081 -0.252085 -0.845002
316 1 9.35507 6.62627 3.6777 0.417786 -0.662624 -0.0582635
317 1 5.39543 0.981219 9.0409 -0.208817 1.24673 -1.27087
318 1 7.33167 0.619816 8.49632 0.0321175 -0.655115 -0.0937396
319 1 8.70113 6.30626 2.55958 -1.07566 0.411315 -0.202335
320 1 0.542829 5.18327 3.07808 0.251123 0.0621154 0.996985
321 1 4.52473 6.39779 9.28433 -0.0137463 -1.06778 -0.132934
322 1 6.24834 8.58823 7.64676 -0.0575119 -1.50575 -0.405953
323 1 7.27247 6.6473 6.88063 1.07256 0.134702 0.0869854
324 1 8.73754 3.92968 3.62943 -0.217808 -1.16835 0.83746
325 1 8.39295 5.25164 0.885731 -0.442289 -1.06408 0.29103
326 1 3.20242 1.3892 2.10503 1.13369 -1.31606 0.361267
327 1 2.93204 6.9385 4.42276 -0.525104 0.479501 0.965118
328 1 2.56805 7.06748 6.14029 0.436324 -0.717562 -0.416773
329 1 1.48799 5.18458 3.70298 -1.02008 0.554965 -0.0456925
330 1 1.78603 2.73459 3.02532 -1.71011 0.147633 -0.551685
331 1 8.31902 2.66547 3.89618 0.738987 -2.16522 1.03817
332 1 8.19056 0.643219 3.37196 0.988337 0.227642 -0.16259
333 1 8.0196 3.34152 4.74293 -0.361736 0.114372 -0.421946
334 1 4.48645 1.86789 6.01859 -0.553063 -0.640818 0.602328
335 1 6.61138 1.9586 3.35042 0.657972 0.165784 -0.413515
336 1 4.24523 9.27706 9.0484 0.489254 0.218339 0.535412
337 1 2.25855 8.99177 1.51045 -0.84737 -0.592455 -0.603253
338 1 6.50043 8.03462 3.78325 0.226099 0.0776057 0.255173
339 1 4.69175 2.33621 1.7366 -0.749673 1.44197 0.297429
340 1 1.43212 3.71414 2.78665 -1.60695 -0.332657 -0.863654
341 1 4.79137 0.932582 1.0796 -0.113065 -0.391485 -0.341501
342 1 0.563164 6.36519 2.97889 0.294187 -0.900185 -0.541159
343 1 8.69142 1.6309 5.69349 0.949598 0.112042 -0.596012
344 1 8.37857 2.28275 5.1417 0.871285 -0.967753 0.0893611
345 1 7.71897 3.79256 5.52398 0.152566 -1.2945 -0.879247
346 1 6.69016 6.63487 9.2425 0.967676 -0.459232 1.68351
347 1 2.35761 7.27085 3.33814 -0.556284 0.236887 -0.222204
348 1 7.48391 4.8426 8.63225 1.5209 0.736101 -0.762551
349 1 7.12667 7.74454 6.20031 -1.21602 -0.351451 1.05815
350 1 4.72212 6.02565 4.84615 -1.00956 -0.0730085 -0.917951
351 1 7.40823 9.26236 5.93579 -0.636212 -0.731764 0.280524
352 1 4.59467 4.48188 7.7088 -1.29134 0.352879 0.480159
353 1 3.6561 5.6953 1.61294 -0.11073 0.113888 0.455533
354 1 4.49739 5.31328 7.23224 -0.282898 0.336216 -0.0476601
355 1 5.42038 6.32687 0.242241 -0.125103 0.594879 1.40347
356 1 1.77842 4.12228 2.05579 -1.24386 1.17882 -0.738147
357 1 4.55827 6.02855 7.94284 -0.19494 -1.67317 -1.75085
358 1 1.97077 1.00257 2.96962 0.509747 -0.679373 -0.990456
359 1 2.63177 2.265 4.21192 0.377183 1.02902 -0.719455
360 1 2.27978 3.84484 2.93375 -0.586524 -0.919403 1.0457
361 1 7.14616 1.71333 9.05735 -0.102188 -0.459515 0.179842
362 1 3.69697 3.6168 3.34104 -0.593539 0.600783 2.12569
363 1 6.27752 0.0676112 0.51514 2.74743 0.686955 -0.114742
364 1 1.50575 8.45713 5.46919 0.0277029 -0.938311 -1.02322
365 1 2.27438 5.4564 2.87768 0.0111554 0.223061 0.639218
366 1 1.66471 1.44436 8.7737 1.40458 -1.03567 1.47751
367 1 2.81063 5.66824 2.02883 0.175535 0.479367 -0.0719936
368 1 0.942016 1.08896 3.0544 0.494892 0.441072 -1.66471
369 1 3.04454 7.4177 7.88467 0.557214 -1.06813 0.184115
370 1 1.76213 0.304438 5.36762 1.15072 -0.196866 0.957563
371 1 4.57712 0.149624 0.602295 -0.161219 1.58819 0.854634
372 1 0.573995 0.0928281 2.81262 -0.396541 -1.5364 0.14174
373 1 4.40694 4.14773 0.617072 0.394956 -0.685927 -0.1916
374 1 6.9943 7.22346 3.93667 -0.660784 0.313747 0.433408
375 1 6.85829 5.80579 9.0239 0.387958 -0.245479 -1.71346
376 1 7.82035 1.12292 7.23352 0.290141 0.709622 1.07071
377 1 0.722202 7.38951 2.35755 0.839478 0.547322 0.482575
378 1 1.83875 5.08421 6.74827 -0.792342 -0.171994 0.201745
379 1 7.11163 5.50013 3.12891 -0.381101 0.579956 0.0888485
380 1 4.97348 6.50194 2.80337 0.533025 -1.33511 -0.734266
381 1 2.01134 2.64874 6.63134 -0.281025 -0.31503 0.691295
382 1 1.43837 5.44063 4.55638 -0.663675 0.204468 1.63286
383 1 5.02586 0.870302 3.56888 0.915433 -0.559626 -0.693217
384 1 6.49472 0.208628 3.69036 -0.574573 -0.951053 0.359271
385 1 0.37753 6.4469 4.5489 0.614469 0.30759 0.998291
386 1 8.86093 5.90361 7.94868 1.07835 1.82478 -0.395952
387 1 0.874589 4.32428 1.37103 0.752454 -0.118803 0.0236368
388 1 7.20227 8.64129 3.85187 -0.482638 0.349404 -0.528238
389 1 3.15337 5.40815 0.83197 -0.0579132 -0.891039 0.714088
390 1 0.540574 5.52557 4.62506 0.567639 -0.0595979 -0.0813503
391 1 3.31529 6.62626 2.20016 -0.827477 0.12714 0.781958
392 1 4.17753 2.14313 8.36327 0.259845 0.38091 -0.239637
393 1 2.28417 2.47405 7.78382 0.138037 0.289304 1.39933
394 1 2.12989 1.29726 1.92396 1.40305 2.01055 0.168584
395 1 2.26201 1.02866 4.87331 -0.985281 -1.47003 1.20623
396 1 2.94216 9.15471 2.19234 0.136098 0.304095 0.549759
397 1 1.13944 2.99925 2.29675 0.827038 0.447676 0.284744
398 1 5.81508 4.43508 7.91192 -0.611433 0.613729 -0.31062
399 1 3.92206 0.455607 3.30231 -0.386583 -0.275028 -0.964345
400 1 3.23923 0.412596 8.1103 0.66747 0.5358 0.202866
401 1 9.05817 8.95865 4.74376 0.0305274 0.436561 -0.578913
402 1 9.00933 0.893404 1.64068 1.32747 -1.0644 0.948766
403 1 2.25769 8.07871 2.34087 0.762328 0.779172 0.740108
404 1 8.49464 9.02013 5.73099 -0.215564 -0.233818 -0.0683605
405 1 0.276197 4.81804 5.90441 0.27256 -0.857392 -0.657301
406 1 1.29441 6.60386 3.34636 -0.613979 -0.178338 1.13206
407 1 7.72961 2.00151 3.39162 -0.334107 0.533725 -0.00251643
408 1 6.2909 1.01441 3.14543 0.246711 1.23408 0.18316
409 1 0.452536 0.0678875 0.803261 -0.702157 -0.391867 0.699266
410 1 9.22915 4.91835 0.90049 0.242194 -0.839498 -1.96151
411 1 3.66579 0.359613 0.178327 -1.49646 -0.278968 0.279358
412 1 6.4531 4.36418 6.47141 -0.746306 1.42291 -0.618102
413 1 5.20437 0.110653 5.51574 1.34136 0.731487 -0.0983988
414 1 8.02996 2.7654 2.94622 0.355747 0.447001 -0.878652
415 1 8.28243 0.931793 6.27629 0.52755 0.178791 -1.38579
416 1 5.72678 1.56429 3.30047 -0.832333 -1.92621 -1.2307
417 1 0.667486 8.44593 4.90392 -0.682255 0.146008 -1.25609
418 1 5.65847 9.24227 3.59534 -0.742491 0.142174 0.249633
419 1 0.315409 6.43528 0.667005 -0.0499303 -1.36707 0.168751
420 1 3.80733 6.57733 4.10794 1.01221 0.301905 1.69884
421 1 9.28667 0.565783 3.38901 -0.623688 -0.15447 0.296965
422 1 2.25954 7.36629 5.09578 0.149721 0.221015 -0.418659
423 1 0.422154 4.02224 8.5868 0.277647 -0.198434 1.18696
424 1 5.78344 4.26739 3.38636 -0.649507 0.0257552 0.644408
425 1 6.22264 5.12755 4.56733 -0.100766 -0.505809 0.196299
426 1 8.26422 9.1843 2.35545 -0.976056 -0.3082 -0.0488565
427 1 3.72918 1.14464 9.04739 0.470703 0.493375 1.08531
428 1 8.94763 0.079484 1.06992 -0.176043 -0.138531 1.12611
429 1 9.37835 3.03333 2.37473 0.281098 0.751642 0.169432
430 1 7.4796 3.24382 1.12946 0.28099 -0.552562 -0.501865
431 1 8.0375 5.55595 4.19389 1.23443 -0.358259 -1.18253
432 1 2.2497 4.50591 1.34109 1.89855 -0.441696 -0.789911
433 1 4.66775 0.0161778 3.78243 0.0660082 -0.125548 0.147652
434 1 2.85798 1.68307 5.8373 -0.805921 0.384062 -1.6515
435 1 4.28978 0.866063 4.22049 0.765182 -0.0721641 0.384008
436 1 1.99027 5.16196 7.66089 0.679937 -1.50378 0.514811
437 1 5.3236 6.5072 5.34963 -0.501806 1.51656 -0.997996
438 1 0.0974584 2.61457 6.07721 1.68264 0.343645 -0.029418
439 1 9.39158 2.67658 1.2342 1.01263 0.983981 -0.319885
440 1 1.14625 1.99113 7.03232 -0.435803 -0.418581 -0.656279
441 1 8.00981 2.0431 8.47566 -0.886052 0.216266 -0.0731251
442 1 0.63697 2.64587 0.596178 0.283349 1.00773 -0.502272
443 1 3.10617 4.59356 7.12856 -0.136099 1.95266 -0.224167
444 1 1.17858 2.09635 9.30149 -0.941402 1.9418 0.118984
445 1 1.30057 0.299727 4.5669 -1.14242 -0.293383 -0.67879
446 1 6.25018 0.675998 2.27516 -0.274573 0.977147 -0.307332
447 1 4.85886 5.82707 5.7494 0.458492 -0.642824 0.575525
448 1 3.39127 2.90448 6.34601 0.734642 -1.11961 0.46341
449 1 1.02568 6.68689 9.28297 0.548024 -1.51803 -0.301683
450 1 1.8978 7.71007 0.985895 -0.0393153 -1.71346 0.0942545
451 1 8.50613 4.98161 3.51576 1.57595 0.181546 1.663
452 1 5.7401 0.757392 4.1692 -0.191976 -0.308115 -0.634091
453 1 8.92791 3.80748 2.43987 1.59777 -0.772074 1.37612
454 1 0.231516 0.0182312 1.94935 0.563803 -0.255944 -0.511778
455 1 6.26261 8.80514 4.17293 0.602282 -0.0127276 0.184478
456 1 6.18634 8.55189 5.2039 -0.17595 0.0978972 0.0241439
457 1 4.85635 0.190791 6.51935 1.28729 -0.619887 1.48835
458 1 4.23052 1.79123 0.968534 -0.882548 -0.344975 0.169501
459 1 3.27515 5.79482 2.74978 0.773622 0.68645 0.732211
460 1 3.44726 1.27902 0.540621 -0.320863 0.35503 -0.244843
461 1 4.70943 6.9987 3.42725 0.164629 0.755917 0.880659
462 1 2.75557 0.721258 5.44824 -0.250402 0.22111 0.865628
463 1 2.76471 5.002 6.34872 -0.622699 -0.104759 -1.97807
464 1 7.13619 3.35178 6.099 -0.0397652 0.99565 0.142753
465 1 5.55676 2.38145 0.251502 -0.830969 -0.429082 -0.438136
466 1 1.24682 4.67106 6.01722 -0.893498 -1.36772 0.51625
467 1 6.53452 2.3696 0.0474144 -1.395 0.0376266 0.0753274
468 1 6.66836 4.31878 8.19883 -1.23581 0.589502 0.793217
469 1 8.13839 0.344904 1.56597 -1.26106 0.508689 0.985158
470 1 6.45019 1.16494 4.96773 0.890122 0.959471 0.640027
471 1 5.37057 7.57488 8.40112 -0.654463 0.742158 1.18918
472 1 3.13556 -0.00754414 7.23196 -0.213938 -0.875463 -1.09552
473 1 3.94763 7.51308 3.98504 0.509077 -0.4076 0.427367
474 1 1.66069 7.30724 8.39094 0.521661 -0.758674 0.459827
475 1 2.7967 2.71351 7.03025 -0.104798 0.645282 0.24665
476 1 8.32288 1.45522 4.68815 0.637782 -1.00773 0.12932
477 1 9.117 1.78722 8.30405 -0.0743545 1.20506 0.118829
478 1 7.37336 2.58461 8.75226 -0.0209944 -1.26083 -0.419891
479 1 1.88753 0.765164 1.1063 1.41073 1.29144 -1.34132
480 1 5.03574 5.57068 8.82712 -1.16812 0.797227 -1.27635
481 1 3.99503 9.36895 6.69284 0.425948 0.713269 -0.149509
482 1 1.58654 3.11427 7.39357 0.433485 0.294279 0.033457
483 1 7.16098 3.55083 8.16989 1.06684 1.32444 0.665326
484 1 5.15136 4.90075 5.98362 -0.675637 0.0704121 -0.326475
485 1 0.64677 8.00335 4.18185 0.204505 -0.305987 -0.109787
486 1 9.35859 3.79387 7.70319 -0.832584 0.487712 0.433687
487 1 7.73962 4.72405 2.99325 0.0658115 0.943214 -0.124031
488 1 8.89291 8.02285 4.33392 -0.595642 0.736415 0.104522
489 1 2.97718 4.14947 6.15729 -0.279933 -1.04801 0.876935
490 1 8.71939 6.4026 5.9629 0.79938 0.958487 -0.512222
491 1 6.89442 0.409254 6.86012 -0.704306 -0.00868647 -0.759972
492 1 3.99934 4.77416 0.099352 1.32785 -1.28067 0.836148
493 1 2.56502 8.30066 0.916868 0.18903 0.345195 -0.0845873
494 1 3.26877 6.60831 7.9638 0.807883 -0.687896 0.36431
495 1 7.06371 5.63706 2.03202 0.401678 1.55453 -1.17317
496 1 9.10421 1.34196 2.8248 0.915734 0.728369 -0.0523282
497 1 1.2229 1.71853 1.24534 -0.675694 0.722591 1.23529
498 1 9.34046 5.56274 5.53648 -1.94226 0.356706 0.0215413
499 1 8.61241 3.99599 5.02138 -0.438014 1.45331 0.358606
500 1 7.97051 4.1673 1.76607 1.18742 -0.292431 1.31906
501 1 7.33978 8.71897 9.29041 -0.486167 0.369151 -1.14078
502 1 1.41924 4.4246 7.13307 1.01019 -0.469705 -0.408403
503 1 3.86375 9.29724 7.75115 0.0812578 0.712562 -0.842529
504 1 5.08948 7.57402 6.19627 0.300453 1.12086 0.991707
505 1 1.11158 0.531742 9.03801 -0.230019 1.14436 0.57404
506 1 3.02884 8.71654 4.5816 0.529555 -1.23255 0.341233
507 1 6.93734 8.94479 0.871399 -0.351718 -0.0156401 -1.35325
508 1 6.35565 6.74353 7.18466 0.0123887 -0.515233 0.157763
509 1 0.800819 8.84265 7.91975 -0.779594 -0.0779109 0.319725
510 1 6.77793 5.87864 7.36795 0.727223 -0.0124422 -0.495298
511 1 7.49786 2.67369 7.76473 1.08623 -0.0129858 -0.431888
512 1 8.87248 7.75306 1.93661 -1.2547 -1.09493 0.557846
513 1 1.55366 0.435327 8.19283 0.343081 -0.17126 -0.826867
514 1 0.661566 3.32634 7.10488 -1.1653 0.173175 -0.470347
515 1 6.1061 5.57221 2.38118 0.577021 -1.49019 -0.0559857