ITEM: TIMESTEP
384300000
ITEM: NUMBER OF ATOMS
1000
ITEM: BOX BOUNDS pp pp pp
0.0000000000000000e+00 9.4000000000000004e+00
0.0000000000000000e+00 9.4000000000000004e+00
0.0000000000000000e+00 9.4000000000000004e+00
ITEM: ATOMS id type x y z vx vy vz
1 1 3.07381 1.20766 6.85118 -0.298562 1.35539 -1.15692
2 1 6.62614 9.10428 4.69423 1.80067 0.316666 0.758214
3 1 6.05021 3.7049 1.02377 -0.236768 0.371793 0.0876907
4 1 1.92822 6.31795 8.45534 -0.827508 -0.3437 -0.889218
5 1 6.92438 4.46039 5.08724 0.419897 0.0606625 -0.707998
6 1 0.884795 4.5774 5.61438 -0.355539 0.645944 -0.76721
7 1 4.31621 7.01745 6.03577 0.116165 -0.775322 0.227362
8 1 7.84138 7.1254 5.52927 0.957959 -0.272934 -0.0140269
9 1 3.40713 2.4354 1.38786 0.0298973 -0.621506 -0.803675
10 1 0.133652 4.25614 2.92569 -0.794178 0.486096 0.668191
11 1 3.0832 6.50698 1.10647 -0.74576 1.00349 -1.51379
12 1 2.18986 9.3108 8.76603 0.893812 -0.46983 0.0370801
13 1 8.93358 2.57939 3.76222 -0.421105 0.192425 -0.569035
14 1 0.167755 3.87199 4.40022 -0.287295 1.96474 0.951888
15 1 2.91237 7.31806 0.67337 -0.336437 1.06127 0.216517
16 1 3.00211 4.83821 8.45559 -0.146701 0.489609 -0.584923
17 1 5.77841 2.33869 8.92116 -1.04826 -0.991792 -0.22387
18 1 4.78228 7.56282 8.65419 -0.810051 0.494749 -1.078
19 1 7.10315 2.92314 2.2458 -1.79488 -0.375291 0.292935
20 1 6.83854 4.73101 9.15592 0.699106 0.736006 0.836849
21 1 0.167265 4.70626 8.16205 -2.60961 -0.17006 1.64837
22 1 5.09738 1.66751 1.28347 -0.373025 0.00431835 -0.644469
23 1 7.55038 0.619595 1.56997 1.46573 0.42536 0.808182
24 1 4.19146 2.59862 6.80939 -0.0814941 0.542779 -0.874508
25 1 8.80007 0.908597 4.68006 1.03218 -0.640827 0.368864
26 1 6.3232 1.88253 6.89417 0.266978 0.539338 0.58305
27 1 9.4038 2.95913 1.71846 0.37605 -0.187524 -0.579172
28 1 7.26088 3.80005 2.37584 0.0617986 0.41671 -0.545621
29 1 6.13063 5.28135 0.0905342 -0.465194 0.304483 -0.915807
30 1 0.86875 1.91106 3.15549 0.017416 1.11472 -0.604346
31 1 3.97345 3.61027 0.544359 -0.298252 -0.404154 0.591688
32 1 6.25427 3.08549 5.69743 0.872487 -0.257051 0.873019
33 1 4.77328 2.7225 2.56745 0.331335 1.00211 0.476443
34 1 8.38257 4.3607 4.96956 -0.54937 -0.346803 -0.37017
35 1 3.14667 0.0309976 4.98629 -0.800234 0.513374 -0.812848
36 1 7.46173 0.0170862 4.15391 -0.150188 -0.251806 0.252848
37 1 0.5403 0.287647 0.367033 1.21395 0.561376 0.683363
38 1 4.58977 3.4112 3.84068 -0.286654 -0.0488027 -0.119864
39 1 2.68594 6.37209 4.5585 1.15569 0.705236 0.402026
40 1 0.846167 7.21263 1.9611 0.674406 -1.28598 0.128927
41 1 8.28372 1.71735 8.21283 0.706262 1.3732 -0.298406
42 1 2.88714 0.82698 1.62399 -1.04269 0.918996 1.21857
43 1 8.46837 8.39564 1.47453 0.00708988 -1.25986 -0.0722193
44 1 4.43523 4.87959 8.79884 -1.37682 -0.606311 0.189577
45 1 7.98877 0.598425 0.740764 -0.495875 1.26441 -0.848012
46 1 6.62425 4.4888 2.3123 -0.592264 2.99272 1.06623
47 1 6.53173 6.42958 6.99188 0.773502 -0.156458 1.5691
48 1 5.3706 0.603863 5.02937 -1.67314 -0.00293151 0.173121
49 1 6.72848 8.91897 3.74605 -0.706151 0.871307 -0.264233
50 1 3.30257 4.86974 6.91024 -0.986129 -0.668956 -0.758572
51 1 5.74731 5.4184 7.86435 0.491292 -0.170078 -1.15803
52 1 5.93139 4.85171 8.60821 0.332238 0.442712 -0.959355
53 1 9.23161 4.82373 2.24855 0.713474 -0.0174357 -0.619833
54 1 4.27755 2.63158 0.71923 0.782326 1.37393 1.18584
55 1 7.66149 8.60579 0.76589 1.32979 -1.10909 0.584946
56 1 8.48679 1.99044 2.83864 -0.844695 0.758537 -0.403033
57 1 3.58573 4.00772 1.7425 -0.145567 0.78435 -0.744267
58 1 7.55122 5.76562 2.12536 -1.09714 -0.989772 -0.818041
59 1 3.39829 5.7242 4.76175 -0.0137244 0.212304 -0.587967
60 1 1.95779 4.36961 2.52511 1.25738 0.248537 0.775724
61 1 3.97921 8.62464 8.62054 0.107882 0.798878 0.567891
62 1 7.76032 2.76553 7.4223 -0.0876289 0.103751 -0.612369
63 1 5.28594 2.32985 7.09468 0.328752 0.242263 -0.278788
64 1 5.86253 2.73506 5.00627 1.70814 -1.16396 0.30033
65 1 2.34227 5.02428 3.66947 -0.468555 0.705583 0.159522
66 1 3.14591 8.89813 1.14687 1.20018 1.21137 1.26131
67 1 3.56121 5.48031 2.22738 -1.13958 2.33171 -0.975572
68 1 2.91545 2.85158 2.19705 -0.770635 -1.29062 0.801489
69 1 5.80633 4.6645 7.11149 0.164056 0.338791 0.704271
70 1 6.87033 2.41248 7.60937 -0.963829 2.02331 -0.63584
71 1 1.45888 6.50693 1.38957 -0.222814 0.781808 1.62443
72 1 5.46115 7.33672 4.99195 0.303561 -0.75107 -0.957315
73 1 3.14317 0.181873 8.90853 -0.323098 0.389863 -1.25684
74 1 5.60324 7.84698 8.91793 0.0640318 -1.32365 -0.0422407
75 1 1.51409 0.93725 6.64682 0.45631 1.39392 0.759336
76 1 1.50282 5.78704 0.73201 -1.18383 1.20586 -0.148362
77 1 2.66315 3.16943 9.13376 -0.0895129 0.21586 1.01269
78 1 2.33044 0.462307 8.04396 1.33696 -0.8343 -1.95921
79 1 6.73108 3.16942 9.22513 0.892565 -0.199307 -0.426166
80 1 2.25122 5.26405 2.57702 1.02994 0.946033 -0.256877
81 1 3.85048 2.72954 3.82499 0.186301 -1.32189 0.632996
82 1 6.94293 5.75985 5.28854 1.09466 -0.83474 -0.311451
83 1 1.6634 1.89634 0.874094 -1.02938 -0.190829 -0.508963
84 1 6.29928 7.02715 3.18155 1.28261 -0.571464 0.818295
85 1 2.20459 3.7753 4.23238 0.354405 0.161337 0.805858
86 1 6.28047 8.44393 8.97729 -1.12484 -1.56788 -0.0814369
87 1 2.88214 7.41863 8.23852 0.298305 -2.06442 0.229122
88 1 9.37591 1.80337 2.92543 0.818077 0.447612 -0.650325
89 1 7.10634 0.0967877 6.5978 1.07004 0.447208 -0.30282
90 1 7.23188 2.93309 1.15016 -0.853895 -0.13284 -0.654726
91 1 0.197463 3.03988 0.773778 1.75192 -1.19125 -0.799272
92 1 5.59342 3.54713 3.02487 0.207084 0.271825 0.263043
93 1 1.72096 2.51303 2.0529 -0.543595 -0.353631 -0.174608
94 1 7.46543 7.95441 0.0908735 -0.106635 -0.302904 0.220049
95 1 1.30418 3.39431 0.712035 -0.740823 0.150799 0.456945
96 1 4.56793 3.4056 4.85091 -1.14434 -0.93431 0.724739
97 1 3.03379 7.23964 1.64387 0.0960292 -0.88057 -0.00442771
98 1 7.32578 4.10995 7.97019 -0.210971 -0.348205 -0.907499
99 1 5.25689 3.07823 5.61208 -1.18843 -0.661092 0.899938
100 1 8.26543 1.44155 2.02255 0.165092 -0.929572 1.22245
101 1 6.40792 5.09999 5.47233 -1.12064 0.866806 -0.237755
102 1 7.55592 5.39846 9.33185 0.747596 -1.05614 0.539791
103 1 1.7463 4.24234 0.595653 -0.220188 -1.81298 -1.07132
104 1 6.48919 3.22533 3.31552 1.09241 0.421825 0.838017
105 1 5.19261 6.96954 5.72383 -1.27801 1.17893 -0.295164
106 1 5.04585 6.11863 0.43083 0.989701 0.391132 -0.324208
107 1 9.01088 5.56552 0.160092 -1.02429 -0.0351749 -1.16537
108 1 8.11404 5.12973 0.685702 0.870086 -1.14575 0.536994
109 1 7.61939 5.94239 8.38745 -1.23394 -0.538278 0.773907
110 1 5.84521 5.21067 2.75603 -0.0658851 -1.06479 -0.648088
111 1 4.78455 3.62175 2.63213 2.53298 0.458417 0.581607
112 1 7.71996 2.21501 2.37918 0.684008 -0.153322 0.26434
113 1 4.68087 6.21905 6.33038 -0.222368 0.120094 -1.06461
114 1 1.28174 8.92487 9.22424 -0.0533077 0.443054 0.496452
115 1 5.33396 0.340961 9.14707 1.1494 0.509021 -0.122189
116 1 7.89384 2.38927 0.532465 -0.474833 0.970604 1.09532
117 1 7.0321 7.37764 2.43004 1.42512 1.37919 -0.683885
118 1 0.652165 4.60813 3.60206 -0.396371 0.390765 0.309321
119 1 7.37 5.19746 1.25542 -1.30522 -0.475647 -0.67921
120 1 3.80866 6.02753 5.94419 -0.471299 -0.16638 -0.313493
121 1 2.78603 7.3867 2.49292 1.16909 0.0801622 -0.419392
122 1 3.55512 8.92766 3.63642 0.80882 1.08422 1.35771
123 1 1.26378 2.82138 3.18728 -0.486214 -0.497366 0.144964
124 1 1.77862 3.29361 3.67602 -0.629124 -1.73711 0.336576
125 1 4.42916 9.09055 3.30849 0.427256 0.0995917 -0.433613
126 1 2.46398 5.14605 6.83839 -0.304956 -0.188895 0.2207
127 1 0.626705 1.21782 8.42633 -2.24679 0.31887 0.929624
128 1 2.51592 0.806458 5.11625 0.824125 0.00149808 -0.238186
129 1 3.018 4.70853 2.32311 0.105701 0.209002 -0.769342
130 1 7.16274 8.38435 8.78477 -0.0520549 -0.26826 -0.0382079
131 1 0.229881 7.79466 8.28918 -0.0541704 0.568907 0.214396
132 1 6.50063 7.55179 5.02325 -0.153279 -0.156373 -0.699532
133 1 8.90213 2.02724 0.682401 0.459997 1.44598 -0.500747
134 1 4.40901 0.197776 2.56426 0.250618 -0.518312 0.66891
135 1 8.34908 7.18599 4.39103 -0.0728443 -0.776719 0.330355
136 1 1.9985 0.559776 4.30921 -0.415516 -0.645565 -0.117697
137 1 7.42431 4.49581 6.0824 0.259712 0.337737 0.280726
138 1 7.87505 9.06281 1.54842 -0.0434292 -0.919627 0.089081
139 1 6.94013 5.49118 6.1988 -1.83995 -1.25576 -0.984949
140 1 1.17702 0.0594936 4.35309 1.18588 0.166017 -0.807857
141 1 4.80229 4.56859 6.02189 -0.75717 -0.939299 0.471467
142 1 0.36231 3.57736 5.36338 0.378164 0.0158433 -0.511686
143 1 2.08069 6.95014 3.02102 0.672372 -1.1185 -0.425103
144 1 8.06205 4.05028 0.881392 -0.472665 -0.316147 -0.219901
145 1 5.26657 8.74315 3.69004 0.0340308 0.654778 -0.144228
146 1 8.71875 5.55253 1.05574 -0.644196 -0.798969 0.377802
147 1 6.70573 7.61273 6.39144 0.0345269 0.122462 -0.903354
148 1 9.08579 2.8284 2.51546 -0.276235 -0.410994 -1.48679
149 1 7.65408 2.86965 3.05683 0.125323 0.456015 -0.947012
150 1 8.29884 9.44237 7.8322 -0.367397 2.35914 -0.384342
151 1 8.21807 0.27501 6.81552 -1.44902 0.58834 0.552226
152 1 5.23859 1.95244 2.26545 -0.218135 1.14317 -0.156349
153 1 0.0648386 1.06895 4.10828 -1.08531 0.398026 0.0276227
154 1 1.03673 3.15122 6.29471 -0.566346 0.185974 1.04609
155 1 9.12494 0.790094 6.53498 -0.684864 -0.894219 0.0560927
156 1 6.61879 3.67297 1.74579 -2.21734 0.360629 -0.448412
157 1 5.22746 4.00405 4.2254 0.13647 -0.0858663 1.00291
158 1 2.27193 0.971091 0.843762 0.0945181 -0.924567 0.572813
159 1 5.61361 3.62469 5.0384 1.30141 -0.225989 -0.429307
160 1 4.26385 7.67448 7.76435 -1.01026 -1.32113 -0.375867
161 1 7.65503 7.14394 7.69501 -0.53302 0.526774 0.633767
162 1 0.654192 7.96482 2.35705 -0.423414 1.14356 -0.631476
163 1 7.91006 5.45511 2.90359 -0.760121 -0.0695313 0.379826
164 1 1.53367 1.4155 7.72632 -0.473532 0.413082 0.95589
165 1 7.64007 6.33347 5.86315 -1.42621 0.847103 1.34761
166 1 0.5277 5.25797 2.97959 0.173773 0.45895 0.510937
167 1 4.36772 0.217725 9.00385 -0.547591 -0.0234702 -0.474272
168 1 2.2112 4.31991 6.78269 -0.365359 -0.851038 -0.519863
169 1 7.05788 2.85004 3.8963 -0.744335 1.30744 -0.301171
170 1 4.83086 0.264625 0.58739 1.80744 1.36225 0.417335
171 1 1.69897 7.38784 2.33566 -0.0378717 -0.487954 1.09053
172 1 3.94209 3.22353 1.31346 -0.0599429 -0.53158 -1.12961
173 1 9.00495 3.85657 2.24949 1.36525 1.07914 -0.435459
174 1 4.08864 7.02643 1.59546 -1.30329 1.00414 -0.148502
175 1 3.21326 5.47151 8.97999 -0.907527 1.98619 1.46371
176 1 1.99417 5.81607 9.35334 -0.25902 0.0272336 0.622331
177 1 7.81088 3.59318 6.1824 -0.177979 -0.666871 -0.635181
178 1 0.31765 2.76344 3.18965 0.36378 0.834326 0.340388
179 1 2.84376 2.2091 7.5028 -0.314438 0.673823 0.0481191
180 1 5.69484 4.89931 1.79332 -0.569019 0.518334 1.13611
181 1 7.93955 7.78553 8.53256 -0.360332 0.0211542 0.586448
182 1 0.0319043 4.72282 0.469888 -1.26242 0.245735 -0.0405065
183 1 7.0637 6.37654 1.33965 -0.152437 -0.834762 0.789508
184 1 4.35143 5.45179 0.726422 -0.260859 0.458673 -1.30185
185 1 2.70582 7.22375 4.78812 1.44623 -1.22011 1.36786
186 1 7.23779 7.07036 4.34477 0.027563 -0.433348 0.774514
187 1 2.98482 0.159828 6.82777 1.17405 -0.173634 -1.21208
188 1 1.74916 4.43677 7.55351 0.225356 0.144487 -0.691392
189 1 6.77664 6.4851 6.19557 -0.322101 1.59292 0.143912
190 1 4.77099 0.654889 3.15716 -1.4141 1.28003 -1.05204
191 1 8.41757 4.04875 3.46591 -0.492518 -0.0458133 0.368561
192 1 5.7366 0.783907 5.81279 -0.556796 0.376029 -1.92518
193 1 0.314863 8.13165 4.78269 0.492773 -0.716489 0.444869
194 1 8.08774 3.02592 3.83902 -0.16957 0.789161 -0.622004
195 1 7.79645 5.9624 0.9407 1.1337 0.807311 0.34547
196 1 1.98835 9.28592 2.39968 -1.39571 -0.0167543 0.942609
197 1 7.90124 0.01775 8.85354 0.0390293 -0.11258 -1.24851
198 1 0.61565 0.683832 6.03376 -0.0857276 0.174494 1.00183
199 1 -0.00707214 2.97287 4.53522 -0.468767 1.59451 -0.361642
200 1 9.10677 1.08142 2.10305 -0.0509856 -0.671708 0.560746
201 1 8.44122 4.26185 0.0760196 -1.00285 0.46277 0.332845
202 1 5.33991 8.60316 1.85469 0.777946 -1.25148 -1.31283
203 1 1.71001 6.03658 4.82111 -0.813318 0.834333 0.200766
204 1 5.83993 9.39405 1.69941 0.965124 0.728905 1.64269
205 1 2.71828 8.35894 6.26592 1.06567 0.564907 -0.344403
206 1 3.07012 6.49298 2.15151 0.452175 0.454714 -0.607933
207 1 0.0995814 5.4301 1.6378 -1.22956 0.390431 0.288102
208 1 3.67433 1.61296 6.0804 -0.116697 0.571321 -0.629665
209 1 5.34173 3.05847 4.12919 -0.980242 -1.42874 -0.0662117
210 1 0.233221 0.603868 1.54884 0.57099 -0.447142 -0.193739
211 1 1.30773 4.0489 3.27962 -0.555816 0.676677 -0.953176
212 1 1.68236 3.11894 4.79571 -1.3983 -0.459058 0.73586
213 1 2.55595 2.02145 2.68083 -1.03187 -1.53747 -0.551825
214 1 0.914257 4.90679 1.81737 1.73891 -1.50128 -0.517884
215 1 5.62093 3.73144 1.87264 0.430056 0.52371 0.0864784
216 1 3.79705 7.43907 0.386407 2.22652 -1.04585 0.0232288
217 1 5.67837 8.70459 7.63971 1.6381 -1.34668 -0.817651
218 1 6.88291 2.33063 2.94062 -0.243806 0.136699 0.963639
219 1 5.37428 6.77573 8.07895 0.600695 0.399505 0.418535
220 1 4.92255 4.67493 2.75987 -0.115605 -0.66083 1.04442
221 1 9.19264 7.31764 1.78561 -0.229735 -0.423356 -1.07964
222 1 0.119493 7.71148 5.58123 2.04739 0.0123982 0.269272
223 1 0.995455 8.36763 5.95669 0.667738 -0.726124 -1.24479
224 1 6.47214 3.49879 4.74478 0.162274 -0.206223 -0.958907
225 1 3.71637 4.92612 7.73497 -0.749219 0.289114 -0.153048
226 1 8.33273 2.05928 5.45956 -0.0239065 1.58957 0.583178
227 1 2.53701 1.52062 6.16244 1.13861 0.124896 -1.28828
228 1 2.48592 3.42158 8.36109 -0.47732 0.0178103 1.05175
229 1 8.30086 4.44401 5.8175 1.68617 -0.424016 1.79578
230 1 0.261667 4.28325 7.2133 -1.92528 -1.18584 0.421311
231 1 5.14548 4.16005 0.98501 -0.2289 -0.00849365 -0.257683
232 1 2.71749 3.96185 1.94327 -0.42378 0.841094 -1.36908
233 1 4.21045 7.622 6.89049 -1.16672 0.877451 -0.961876
234 1 5.41618 0.675916 7.94728 -0.224196 -0.501916 0.641848
235 1 7.99717 8.17595 7.57205 0.785197 0.0971315 -0.708962
236 1 2.70479 0.256777 2.82256 -0.119407 -0.670824 0.76057
237 1 6.55397 8.10764 0.507468 1.25367 0.00587795 0.345714
238 1 8.85885 8.04436 3.96684 -0.245664 -0.535677 0.378624
239 1 8.69441 6.03276 5.6042 -0.234987 0.959168 -0.0722919
240 1 1.03467 7.27411 2.96988 0.382174 1.48975 0.145481
241 1 6.01881 0.203328 4.18572 0.215724 -0.143561 0.111372
242 1 5.27586 6.51718 9.04788 0.576616 -1.01523 -0.175617
243 1 3.76398 0.718249 8.60127 -1.01677 -1.056 -1.00456
244 1 8.8795 6.56177 0.070469 0.159371 -1.87564 1.16526
245 1 3.87203 4.91182 5.22645 -0.453208 -1.02038 0.48486
246 1 4.67828 8.70738 0.412704 -0.317828 1.22737 0.540771
247 1 0.824912 7.71576 0.739874 0.0742083 -1.12749 -0.834233
248 1 6.84303 9.02248 1.48206 -0.606155 -0.460763 -1.03309
249 1 0.286415 3.23933 7.05227 -0.12063 1.84563 1.91091
250 1 0.560793 3.2735 8.49801 0.448379 0.56005 0.900948
251 1 5.96014 9.17096 8.28807 0.262614 -0.806714 0.219629
252 1 7.54998 5.54031 4.02095 -0.365976 0.74618 -0.445339
253 1 1.17924 3.94391 6.74512 -0.167382 -0.481754 -0.0313517
254 1 7.63724 3.23184 0.474377 0.224791 0.699846 -0.725801
255 1 4.04867 4.2296 2.41966 -0.644006 1.06115 0.601158
256 1 0.813313 2.32965 0.389225 0.31177 0.627829 -0.274177
257 1 8.17613 4.09504 1.99935 -0.502316 -1.06488 0.618275
258 1 0.281671 9.23126 8.25115 0.0697622 1.01503 0.204348
259 1 5.67042 1.60034 8.35086 -0.548458 0.0649158 0.66115
260 1 1.90052 2.38834 8.59654 0.948982 0.0160618 0.326641
261 1 3.75647 7.42563 2.47328 0.287616 -0.904665 0.365637
262 1 0.788233 4.08518 8.74997 1.21201 0.769148 -1.19315
263 1 5.97425 7.43377 0.618707 -0.0132166 0.230035 -0.183262
264 1 1.87342 5.57013 5.83288 -0.162319 -0.0160664 1.00445
265 1 1.13384 7.68915 4.71772 0.189308 -0.233263 -0.294788
266 1 4.99657 2.26896 5.13217 -1.34466 -0.280361 -0.133758
267 1 4.41688 8.74755 4.10495 -0.764011 -0.26067 -0.742449
268 1 0.694646 8.61543 0.552282 -1.25357 -0.0164969 -0.022373
269 1 3.56842 5.01154 4.13385 -0.0601695 0.127404 1.68847
270 1 8.02441 8.63696 8.40021 -1.245 -0.510443 -0.314629
271 1 0.916759 6.77621 5.18221 0.824607 -0.596895 -0.196494
272 1 5.46114 2.77085 1.64019 -0.0794574 -1.26216 -0.0909283
273 1 8.70076 0.342293 1.4239 0.426543 0.316852 -1.10277
274 1 8.26191 7.41647 9.38252 0.899075 -0.488667 0.405989
275 1 2.15864 9.00202 1.45117 -0.609304 -0.281864 -0.308795
276 1 1.97636 6.37331 7.45322 -0.178546 -0.887303 -0.0438595
277 1 5.47591 0.618748 2.36492 -0.415966 -0.972509 0.83611
278 1 1.34357 9.12767 6.6816 0.423734 -0.43652 0.05632
279 1 6.33874 6.73645 1.92297 0.956871 -0.480346 -0.932047
280 1 2.30307 1.76802 6.99378 -0.0822957 -0.328364 0.721292
281 1 8.89547 4.72686 7.37029 -0.369449 0.322231 -1.23056
282 1 8.73534 6.99842 5.52069 0.446532 0.702005 -1.35598
283 1 4.18812 1.30574 3.75598 0.485713 0.571194 0.209055
284 1 8.86489 8.828 7.58496 0.461772 0.579411 1.28248
285 1 0.198819 7.99404 1.49556 -0.769977 0.72094 0.361776
286 1 3.04743 5.24337 3.09835 0.618803 0.0563094 0.465628
287 1 1.30346 6.56714 0.137898 0.639689 0.186894 -0.816678
288 1 8.47129 7.64143 2.99363 -0.348359 1.52078 0.528638
289 1 2.66604 1.73471 8.75633 0.433926 0.461683 0.622359
290 1 6.58506 0.306266 7.97582 0.825332 0.996588 -0.137331
291 1 6.91608 5.87809 8.86155 -0.718928 -0.265783 -1.09569
292 1 6.16483 0.0472267 6.37674 -0.199384 -0.381463 -0.993712
293 1 2.71528 2.28623 5.9186 -0.0885496 -0.168178 0.118409
294 1 6.06406 8.53037 1.34704 0.790292 -0.149956 -0.972668
295 1 2.36549 4.09221 9.3006 -0.209468 1.06471 -0.670305
296 1 3.9826 5.55902 3.06983 0.206189 -0.0230599 -1.17535
297 1 3.50921 8.32028 2.32602 0.309306 0.797263 -0.386332
298 1 5.2288 7.74638 6.36903 -0.633937 0.261344 -0.320379
299 1 4.55471 5.44288 2.27513 -0.58515 0.357138 0.00504905
300 1 5.09757 2.9697 9.06394 0.870561 0.902677 -1.1359
301 1 1.48162 7.69619 3.66462 0.20926 -0.758237 1.78221
302 1 2.78767 6.27436 3.05727 0.00948992 -0.787906 -0.817782
303 1 8.74074 4.10912 8.53418 -0.441725 -0.0287059 0.329728
304 1 1.81654 4.49343 4.27868 -0.204791 -0.0366556 -1.65363
305 1 3.71946 0.174837 6.21896 0.0331566 -0.120056 -0.296174
306 1 5.58664 0.980313 1.50618 0.194396 -0.192975 -1.28127
307 1 3.2356 3.53587 3.63398 0.388421 -0.425973 1.11841
308 1 3.26579 6.63616 6.07866 -0.862895 -0.192087 -0.119645
309 1 5.18923 1.25029 3.96478 -0.960888 0.139832 -0.818571
310 1 8.40511 2.22342 9.06717 0.974735 1.69616 0.52637
311 1 8.62014 6.32517 4.41771 -0.253189 0.779025 -0.634121
312 1 6.30762 7.26626 4.10185 -0.214728 -1.04051 0.170337
313 1 2.59508 9.104 0.14791 0.51665 -1.18746 -0.509135
314 1 1.04972 5.04489 7.45336 0.0117215 1.12726 0.33333
315 1 0.54507 1.96411 7.55708 0.717645 0.272594 0.457296
316 1 5.3531 8.07406 0.847114 -0.0669279 -0.314878 -0.395117
317 1 5.47273 6.7866 1.37135 0.536737 -0.830047 0.10519
318 1 1.92196 8.68284 0.501911 0.666231 -0.0861422 0.716593
319 1 8.97809 0.4762 7.34327 0.564065 -0.372124 -0.334765
320 1 1.79142 6.03867 3.01421 0.448023 -0.736988 0.182536
321 1 5.51693 5.44097 3.66932 0.0544713 -0.0341656 0.484227
322 1 6.28176 6.14778 7.80724 -0.0460841 -0.251178 2.31467
323 1 6.42913 4.28378 6.00745 -0.0701277 0.926403 -0.544564
324 1 7.89047 0.273313 3.14442 0.217717 0.747257 -0.21873
325 1 9.35699 5.9337 6.50447 1.12993 -0.187815 0.596219
326 1 1.29906 0.851591 5.37938 0.725863 0.303051 0.767559
327 1 2.50162 1.33645 7.86033 -0.350156 -0.723977 -0.63703
328 1 8.68249 0.707199 3.72002 -0.527205 -0.812953 -0.417293
329 1 4.9087 0.32284 7.24524 0.160903 -1.02397 -0.220265
330 1 3.06393 8.65077 8.71989 0.0455021 -1.20658 0.284319
331 1 5.91719 8.10173 2.38819 0.233582 0.0616214 -0.460133
332 1 7.00439 7.20236 0.743564 0.847716 -0.654159 0.681028
333 1 8.21767 7.80832 0.882223 1.48653 -0.756628 -1.28169
334 1 0.482853 4.1915 6.29913 1.21052 1.49155 -1.41284
335 1 3.93203 0.199214 0.418821 0.0886878 -0.142282 0.56563
336 1 3.48135 1.8041 3.28438 1.95401 0.0717025 0.963485
337 1 1.84246 2.52552 0.273727 -0.700073 -0.83488 0.785106
338 1 4.86614 8.63465 6.99393 0.321519 0.0220786 0.172128
339 1 5.5207 4.42448 3.43152 0.614427 -0.80574 0.496835
340 1 0.474363 3.64652 3.52838 0.986373 1.08137 -0.287496
341 1 5.94848 8.11322 4.05381 0.205631 0.653124 0.261653
342 1 4.90216 1.60432 0.402632 0.687267 -0.766921 0.890131
343 1 8.72106 3.52419 5.07996 -0.220828 -0.506939 1.18308
344 1 6.31919 0.51755 0.976846 -1.18163 -0.358201 -0.705634
345 1 1.58186 3.92617 1.59806 -0.505045 0.32999 -0.272702
346 1 2.60018 1.81558 1.86592 -1.55949 0.779299 -1.02118
347 1 9.20163 4.66404 9.03732 0.352751 0.32121 -0.580038
348 1 0.0454657 0.0997999 2.51059 0.255041 0.172345 0.514856
349 1 4.35942 4.285 7.94503 -0.886274 -0.439316 -0.660332
350 1 5.02019 7.50277 0.158305 0.507087 -0.196764 -1.26092
351 1 4.23718 8.0658 9.25339 0.740947 0.66908 0.869873
352 1 5.88754 6.16427 4.02486 0.894079 -0.223727 -0.160776
353 1 3.66672 1.98232 0.083074 -0.697875 0.114024 -0.0864808
354 1 0.506768 0.54583 7.74695 0.137457 1.09347 0.459862
355 1 7.74895 5.83407 6.79392 -0.475747 0.274353 -1.83761
356 1 9.02556 8.30557 6.30038 -0.0991316 0.370261 -0.473013
357 1 6.65275 5.48797 2.37889 -1.75994 0.395097 -0.173288
358 1 1.05559 1.23191 0.246521 0.202339 0.973309 0.558202
359 1 4.35806 2.45411 1.59653 -0.550966 -1.13256 0.383387
360 1 1.96998 3.68237 7.26244 0.172455 1.38304 0.222202
361 1 7.40282 3.68482 4.65564 -1.43342 -1.17437 1.08825
362 1 3.3875 3.91776 4.79076 0.880286 -0.411737 0.111095
363 1 5.62555 3.03038 7.44495 0.154416 -0.127177 -0.726651
364 1 1.09575 7.78727 8.48622 -0.664375 -0.299108 0.0227076
365 1 5.67905 0.838306 6.71275 2.03571 -0.178329 1.1205
366 1 8.47133 2.53667 1.86003 0.549727 0.033119 0.171299
367 1 3.89957 5.9351 4.07292 -0.855142 0.322784 0.529219
368 1 4.10354 1.16553 0.255062 0.490017 -0.322408 -0.58843
369 1 6.85873 2.39615 0.50153 1.70482 0.731676 -0.0220309
370 1 6.59657 4.78343 6.76463 0.866331 0.547979 -0.650761
371 1 8.15886 1.32801 6.18547 -0.686309 0.206123 -0.296269
372 1 6.07408 8.32529 4.95863 -0.803262 0.691101 0.0787175
373 1 3.31114 2.95186 0.481789 -0.642801 -0.545094 0.740508
374 1 8.7682 0.0019335 8.71064 -0.233713 -0.754513 -0.327666
375 1 4.9257 3.52094 8.28144 -0.360858 0.322892 -0.245744
376 1 6.27024 0.20521 2.96308 0.366847 -0.393232 -0.66825
377 1 4.92272 8.20433 7.99097 0.227357 0.412738 1.37865
378 1 8.51555 3.18699 3.1463 0.636076 -1.30985 0.41716
379 1 5.91034 5.56895 4.81569 -0.0265087 1.06434 -0.980543
380 1 2.97605 2.59685 5.09232 -0.112384 -0.285232 -0.207128
381 1 3.06657 1.17474 0.283012 1.1762 -1.20935 -1.31398
382 1 9.38353 6.61862 4.9709 -0.202393 0.827246 0.24291
383 1 7.24978 0.680071 2.58694 -0.882642 -0.770931 0.83767
384 1 8.89761 2.83577 8.52636 1.17055 2.4334 -0.201815
385 1 7.03934 8.15204 4.15821 0.814018 1.05591 -0.115897
386 1 0.85339 4.3852 0.219212 -0.63189 -0.369431 -0.691156
387 1 1.98641 7.14411 8.6493 0.242145 0.0180646 -0.202918
388 1 8.26059 1.82518 6.96481 -0.170267 -0.237768 0.711689
389 1 9.24965 7.39414 4.32466 -0.224234 0.787018 0.273437
390 1 3.72833 8.50484 6.2901 -0.697102 -0.0348584 -0.00536026
391 1 2.67825 6.62311 7.81511 0.708573 0.485413 -1.28142
392 1 7.97107 3.21678 2.23674 0.103613 0.291107 -0.836714
393 1 7.41663 8.26392 3.2402 1.23977 -1.55178 0.778929
394 1 0.28011 6.72942 3.03837 -0.296774 0.229557 -0.219621
395 1 5.24292 7.50073 7.55841 -0.173194 -0.674569 -0.0218205
396 1 8.35645 5.61242 7.89835 1.09755 1.08848 0.205368
397 1 7.45928 3.59862 7.03 -0.123647 -0.354064 -0.747315
398 1 1.99106 8.17671 4.89998 0.449817 0.501352 0.0387104
399 1 8.83937 5.1768 6.0211 -0.342097 -1.10124 -0.732805
400 1 9.18052 7.36365 0.457463 0.273371 -0.678414 0.653534
401 1 0.736946 1.95353 4.54379 0.0616887 0.681765 -0.721315
402 1 8.94635 1.48516 5.67687 0.557146 -0.997685 -0.0732537
403 1 2.65177 8.23415 0.517744 0.131095 -0.646851 0.0409975
404 1 7.57175 6.72692 9.06152 -0.0504075 -0.293591 0.0484311
405 1 4.39869 0.924038 1.10858 0.352933 0.668852 0.995397
406 1 6.15382 6.05404 5.67196 0.15957 1.2128 0.628187
407 1 8.11193 4.8389 6.69288 -0.373299 0.149255 0.013186
408 1 4.10324 2.88425 9.15998 0.30866 0.159384 0.843414
409 1 2.50074 7.00836 3.88864 1.40255 -0.24189 -0.423237
410 1 2.91234 4.31325 4.04004 1.00862 -0.0387838 0.0767672
411 1 9.10017 4.56968 5.48141 -0.094388 1.30302 -0.109996
412 1 3.47523 7.07965 3.92273 -0.93607 -0.23935 0.947976
413 1 2.22342 5.16139 0.68056 0.792172 1.12269 0.523298
414 1 2.35425 5.34759 4.56314 1.71336 -0.387455 -0.269532
415 1 4.96713 6.97947 6.65395 -0.0962788 0.438382 0.619056
416 1 5.27829 7.64959 1.5427 -0.954416 0.0559542 0.0846266
417 1 6.42459 1.6449 4.78776 0.365481 -0.4834 -0.616225
418 1 8.8564 6.8746 2.61125 0.103541 -0.982706 0.0627164
419 1 4.5803 3.8782 9.27197 0.249487 -0.0851452 1.30618
420 1 0.426369 5.52641 7.85705 1.03053 -0.734397 -0.742126
421 1 3.36581 1.62146 4.20384 -0.270727 0.0505084 -0.124084
422 1 7.68099 5.01109 5.11618 -0.36903 -0.340264 0.842371
423 1 1.04637 8.27571 6.93317 -0.553499 0.260156 -0.0119383
424 1 9.29266 5.42195 8.60431 -0.378625 0.550634 0.355736
425 1 6.96681 2.47478 8.63489 -0.396699 -1.07195 -0.0606893
426 1 2.62555 4.67977 7.71998 0.336224 -0.768039 -0.881895
427 1 7.5455 8.72481 4.75203 1.65559 0.235749 0.362003
428 1 3.12387 3.82147 0.847276 -0.821198 1.01257 -1.6444
429 1 0.466615 0.285619 3.93463 0.830963 -0.901963 -0.639678
430 1 0.222707 5.45383 5.50149 0.736678 -0.0386398 -0.208775
431 1 4.24153 5.7507 7.43446 0.157033 -0.333985 0.110508
432 1 1.45874 6.69787 3.56581 -0.00633151 -0.758906 0.972551
433 1 4.51117 1.83833 6.4222 -0.188059 -0.580159 -0.194839
434 1 7.91594 5.41497 5.95592 -1.21653 0.573663 -0.798586
435 1 2.97805 3.74392 5.67821 -0.0572171 0.223326 -0.584962
436 1 6.3208 7.53627 1.55964 0.0460582 -0.394147 0.0412034
437 1 5.19189 3.51588 0.388402 -0.792253 0.504505 -0.0138659
438 1 6.03952 4.88159 4.07368 -0.468252 -1.52023 -0.663338
439 1 8.00547 7.78307 3.7753 -0.300996 -0.576416 0.427411
440 1 4.93442 4.2784 5.12041 -1.41615 -0.817527 0.694145
441 1 8.96419 7.40227 8.93741 0.0899419 -0.0265594 -0.0111004
442 1 7.80317 8.58083 3.94057 0.889635 1.4184 0.716043
443 1 1.54087 5.03414 8.20794 -0.748987 -0.240523 -1.1007
444 1 3.5217 0.796749 0.959405 -0.177415 0.883236 -1.40877
445 1 0.656972 2.7751 4.04191 -1.61384 1.34931 -0.616011
446 1 2.48477 5.52106 8.45103 -0.355068 -0.505474 0.969474
447 1 9.25237 3.64141 9.10728 0.923553 -0.74551 0.343623
448 1 0.928901 0.163274 1.37149 -1.37562 0.287 0.501679
449 1 3.25417 7.64112 3.25217 -0.530169 -0.39665 0.353512
450 1 5.62066 2.60295 3.05478 0.477645 0.689836 -0.362425
451 1 6.60663 7.22011 7.47474 0.86866 -0.0417011 0.768287
452 1 6.61987 3.9701 8.67308 -0.537409 -1.40869 0.478055
453 1 4.49795 8.06191 1.12533 -0.324045 0.486528 1.48336
454 1 6.65572 7.87868 3.28681 -0.667216 -0.726309 -0.296786
455 1 1.13787 6.30889 2.33607 -1.5849 -0.904537 -0.0356409
456 1 6.87317 6.45267 2.87408 0.118269 0.451156 -1.38994
457 1 7.1988 8.41604 2.05197 1.23683 0.323679 -1.04037
458 1 2.95934 5.73194 6.08999 0.666821 0.735586 -0.331142
459 1 7.05511 9.10391 2.93323 0.366397 0.290913 -0.152452
460 1 7.2152 7.22658 3.50054 -1.22278 0.713833 0.778776
461 1 0.373216 8.74659 6.53363 -0.828147 -1.82616 1.59835
462 1 0.535561 3.4439 2.60905 -0.262787 0.774181 -0.49091
463 1 1.1512 4.9494 0.888526 -0.582365 -0.557875 -0.621432
464 1 1.93239 8.88795 7.5566 -1.08787 -0.907839 -0.0236991
465 1 7.86738 7.01752 2.93346 0.446634 -0.0782198 -0.05487
466 1 9.05702 1.69143 8.72377 -0.12896 0.412386 -0.211419
467 1 4.62539 2.81262 7.65774 0.399957 0.458158 -0.00466897
468 1 4.64843 7.03851 0.866785 0.923123 0.702198 -0.477307
469 1 3.6976 5.66962 8.21517 -1.08125 0.898165 -0.259762
470 1 2.92938 2.71093 3.40486 0.341467 0.384674 0.506703
471 1 1.11539 0.234169 2.22262 -0.545819 1.58075 -0.0973091
472 1 8.88988 4.13152 6.67224 0.455409 0.249669 0.726311
473 1 2.5461 6.61462 9.34486 -0.815652 -0.981051 -0.501001
474 1 8.50056 5.23759 4.67058 0.448832 0.680363 -0.371131
475 1 8.25056 4.75471 8.04584 -0.420132 -0.155552 1.18805
476 1 0.116753 1.76197 0.0328811 1.7371 0.714265 -1.09267
477 1 0.793334 8.34209 3.36028 0.774958 -0.453457 0.255937
478 1 6.62409 7.14237 9.30916 1.11772 -0.459786 0.810163
479 1 1.30079 5.92723 7.82284 0.842577 -0.125975 0.151369
480 1 5.92754 2.84415 0.37763 -1.22445 0.746814 -0.115928
481 1 7.04799 7.55293 8.33261 -0.228908 -1.13891 0.540065
482 1 4.07595 4.29433 6.87517 1.97244 0.0319319 -0.70759
483 1 1.46497 1.56914 1.78094 -0.417947 -0.260494 -0.234217
484 1 0.14382 1.07603 0.677579 -0.819462 -0.72434 0.948383
485 1 0.142483 6.4249 1.98244 0.00715375 1.35554 1.72328
486 1 0.933569 3.82159 7.63218 -0.242715 0.504335 -0.676496
487 1 1.52403 1.49853 4.75728 0.501115 -0.1507 0.402635
488 1 6.57694 1.27298 2.86027 -0.319853 0.62393 -1.45262
489 1 2.24916 6.72675 2.04693 0.676966 0.0393465 -0.554314
490 1 4.04485 0.892782 5.69185 -0.709468 -0.371306 0.320307
491 1 8.33201 1.04202 7.51824 -0.33335 -0.535918 1.75674
492 1 0.360137 2.48642 8.58806 0.813141 -0.754 0.910405
493 1 3.57566 8.01903 1.48191 0.472589 0.188483 0.57814
494 1 8.82426 9.18202 6.38712 1.01607 0.0305993 -0.750742
495 1 4.57132 7.76353 2.12377 -0.447716 0.337876 -0.225949
496 1 4.7972 1.02663 8.81382 -0.576837 0.634865 -0.528953
497 1 4.81403 8.66795 8.90649 0.0524293 -0.00916841 0.394901
498 1 3.07986 0.599553 5.85169 -0.156441 -0.13412 0.852692
499 1 4.46611 6.66376 0.0852818 -0.370327 0.136548 -0.650453
500 1 7.16438 1.0629 0.72024 0.782507 -0.139806 -0.577012
501 1 7.90255 2.64167 8.28161 -0.334224 -0.030428 0.447746
502 1 3.30144 9.23683 7.93469 0.476901 0.145401 0.0341949
503 1 0.897477 5.74174 6.13826 0.486411 -0.0254996 0.00246679
504 1 6.81274 8.68735 6.45123 -1.2464 1.2512 -0.249201
505 1 7.51321 0.484906 7.55335 1.48255 0.109773 -0.477205
506 1 7.3596 3.62257 3.60055 0.186967 0.305009 -0.604474
507 1 8.82854 1.2415 1.25519 -0.0503016 0.00496309 -0.461127
508 1 5.86543 3.16322 8.61519 -0.990245 0.290703 1.0078
509 1 1.47371 4.96731 0.00421062 0.586634 1.49981 -1.70739
510 1 1.59774 4.70209 6.26549 -0.512268 -0.60581 1.16736
511 1 1.72365 8.693 3.09959 0.328777 -1.33164 -0.532664
512 1 0.405001 6.41302 5.7789 -1.22706 0.145619 -0.390902
513 1 1.75936 4.16273 8.34313 0.477278 -0.197954 -0.946993
514 1 2.50239 0.816397 9.01102 0.83215 -0.868389 0.441945