ITEM: TIMESTEP
257300000
ITEM: NUMBER OF ATOMS
1000
ITEM: BOX BOUNDS pp pp pp
0.0000000000000000e+00 9.4000000000000004e+00
0.0000000000000000e+00 9.4000000000000004e+00
0.0000000000000000e+00 9.4000000000000004e+00
ITEM: ATOMS id type x y z vx vy vz
1 1 2.89054 7.62977 3.6583 -1.88669 -0.787039 -0.218935
2 1 6.773 2.69948 7.25702 1.25891 -0.0950281 -1.2849
3 1 7.73956 0.852066 7.3098 0.968965 -0.472529 -0.875117
4 1 0.0506862 3.11122 1.79021 0.459405 0.971374 0.780411
5 1 2.64595 3.10049 5.11278 -0.767842 0.710005 1.54636
6 1 0.996007 3.48096 0.0760928 -0.731644 -0.555102 -0.00528655
7 1 5.51572 1.20486 7.66126 0.616523 0.687736 0.722497
8 1 7.39646 4.53345 1.69338 0.436483 2.791 -0.804728
9 1 3.38092 2.18548 4.21506 0.576924 0.197505 0.415532
10 1 6.55122 8.04887 5.89836 0.5738 0.347864 0.645407
11 1 5.41247 5.05661 0.596357 -0.361056 -0.731992 0.973578
12 1 7.52106 3.49388 2.43841 0.507535 0.668745 0.159197
13 1 8.11783 5.62815 6.75956 0.304596 0.719045 0.674409
14 1 1.14325 3.12696 8.22103 1.0047 0.75934 1.4082
15 1 2.43836 0.521011 -0.0183553 1.32429 0.349864 -0.971183
16 1 2.11393 1.47653 8.24858 -0.939391 -0.919013 0.521081
17 1 2.64894 7.10662 2.89745 -0.651421 -0.0720842 1.13689
18 1 5.63018 4.91721 7.03186 -0.271362 0.652603 -0.317011
19 1 5.95982 6.99063 8.83021 1.07966 -0.0786633 0.139861
20 1 2.87954 4.68778 4.30284 -0.269518 0.0409079 -0.668731
21 1 5.38576 4.83661 3.12832 1.02432 -0.00584715 1.59168
22 1 8.75069 5.26331 4.87241 -0.50587 -0.282259 0.00837252
23 1 7.86755 0.460795 2.45859 0.725861 1.26406 -0.120684
24 1 6.37263 1.02915 2.22187 0.0243976 -0.0864538 0.152939
25 1 6.75266 1.90174 0.57676 0.431204 -0.422199 0.692079
26 1 6.56356 9.17787 5.7935 0.149433 1.35594 0.172275
27 1 8.82915 5.56504 2.10618 -1.39654 2.17805 -0.365183
28 1 8.1672 1.89164 3.39428 0.519116 0.752289 0.814969
29 1 6.78273 2.59198 3.57624 -1.46418 -0.999335 0.29422
30 1 5.62277 7.90953 3.86459 -0.0727217 -1.39878 0.711282
31 1 2.99231 4.19729 0.739844 -0.367978 -0.851318 -0.381955
32 1 6.85435 1.18206 5.1664 -0.0664516 -0.135797 1.4403
33 1 3.5945 8.91005 5.00724 -1.81458 -1.28618 0.265788
34 1 6.94555 3.22132 9.10175 -0.171773 -0.0217896 0.636852
35 1 8.54569 7.57541 0.0371675 0.305982 -0.608379 1.26385
36 1 7.12187 2.81752 0.85562 0.829689 1.01457 0.545171
37 1 5.29855 2.22803 2.27771 -0.994182 -1.54652 0.0511703
38 1 7.79045 4.85391 6.31331 -0.183949 -1.38702 1.32766
39 1 1.79566 9.35734 1.49933 -0.0631762 0.405875 0.260621
40 1 1.31789 1.90349 3.94902 0.724167 -0.904612 1.53333
41 1 1.20368 9.28439 8.65769 -0.388678 0.74918 0.295649
42 1 0.860931 0.879021 6.59941 0.620906 0.998954 -0.940536
43 1 6.37167 1.8889 4.1092 -0.0800772 0.235831 1.26014
44 1 8.52247 3.45954 2.22915 1.73266 0.0574135 0.143658
45 1 0.599365 7.95409 4.15545 -0.652087 -0.626205 -1.5324
46 1 0.542144 4.38922 9.20443 1.09251 0.691668 1.05452
47 1 0.469349 6.23273 7.09541 -0.0195815 1.0881 0.129907
48 1 9.27784 3.53912 3.05511 0.830701 0.837519 0.165931
49 1 4.16101 4.2056 0.947905 0.860445 0.606885 0.509689
50 1 6.20672 1.80907 5.11547 -1.35642 -0.226206 -1.23919
51 1 3.70658 1.85845 2.53268 -0.0306205 -0.965174 1.12382
52 1 0.083042 5.04188 2.53859 -0.160724 0.184425 0.349749
53 1 2.82409 2.76124 1.27117 0.628834 -0.515425 -1.6094
54 1 3.14895 5.76668 1.73782 -0.375003 1.01939 0.977803
55 1 1.23126 2.62957 2.08698 -0.312276 0.499536 -1.10749
56 1 3.36997 1.65326 0.912862 0.150545 0.752766 0.339509
57 1 1.90607 2.71377 3.84766 -0.270232 -0.375491 -1.05383
58 1 3.26472 5.69817 8.18995 -0.903593 0.315358 -0.186828
59 1 6.76472 3.02944 2.63871 -0.129893 -0.17508 -0.38562
60 1 0.556616 4.74355 7.12724 1.14925 -1.21018 0.475719
61 1 1.68324 8.90929 3.84865 -1.43401 0.88756 0.415542
62 1 7.06299 0.671124 7.99773 -0.97516 -1.45902 1.20718
63 1 8.72356 0.5049 2.34938 0.118995 -0.303873 -0.277215
64 1 7.08129 4.45624 2.69254 -1.46748 0.483482 0.244311
65 1 0.833105 2.1989 5.5475 -1.14175 -0.850603 0.197202
66 1 0.954806 3.46953 1.60768 0.0558714 -0.632183 -0.329799
67 1 8.75955 2.95885 0.218737 0.435731 0.447387 -0.733211
68 1 3.38491 2.56581 4.97697 -0.797139 -1.1601 -0.652133
69 1 1.56568 3.34547 6.33225 0.0386819 0.369941 1.84823
70 1 5.27584 3.93999 3.32148 -0.184101 -0.691527 0.905213
71 1 1.06395 8.72669 9.34814 0.0454861 -0.943166 0.604364
72 1 0.198918 3.18829 3.79495 -0.811978 -0.717436 -0.0115245
73 1 5.37684 0.215192 8.97816 -0.547597 0.730764 -0.919688
74 1 6.35572 4.53908 2.02688 -0.622811 0.300819 -0.142479
75 1 1.38313 4.10873 8.57017 0.0854706 -0.659645 0.871234
76 1 6.19328 8.82916 2.82371 -0.751446 -0.532874 0.29888
77 1 2.67861 0.675894 8.46314 -0.588277 -1.10328 0.0275945
78 1 4.10656 5.55214 1.6928 -0.432718 -0.287966 1.1331
79 1 8.36203 7.97845 7.70042 -0.863994 0.731896 0.612606
80 1 5.40169 6.28531 3.07164 -0.438985 -0.0558059 0.151846
81 1 1.38906 7.71379 2.61153 -0.475789 -0.12517 1.1744
82 1 2.63375 9.04952 1.49508 -0.282879 -0.293502 0.00337921
83 1 1.53752 5.62779 2.53702 -0.693931 0.957754 -0.454374
84 1 2.99918 3.13769 2.3315 0.789903 -0.274318 0.397524
85 1 0.243147 5.75498 1.80707 -0.146567 0.373975 -1.58041
86 1 0.443747 7.53138 8.08325 0.192042 0.0381681 0.488217
87 1 4.64503 7.72056 4.30145 -2.03119 -0.916757 -0.985822
88 1 1.21796 0.305443 3.80667 1.59335 -1.13028 0.64069
89 1 0.999467 4.77933 7.98473 0.669497 -0.350174 1.07812
90 1 8.69731 2.60732 8.05722 -0.37445 -0.00583667 -0.32842
91 1 0.448074 8.649 8.35885 0.203482 0.514553 -0.624304
92 1 4.55108 3.82991 4.2575 -0.0906091 -0.20116 0.80991
93 1 8.79615 0.664436 8.69681 -1.3998 -0.111841 0.937783
94 1 3.5327 2.2542 0.177961 0.0997712 0.490107 -1.39953
95 1 2.90952 6.6672 1.23758 -1.08837 -1.46535 -0.144309
96 1 0.0275321 9.20889 2.69009 0.893117 -0.389871 -0.143243
97 1 0.383899 6.3893 5.07292 0.50181 0.721055 -0.395478
98 1 9.40063 5.68662 6.46724 0.347296 0.28742 0.503838
99 1 7.99894 1.97194 5.26833 0.789428 0.771552 1.79199
100 1 7.53555 3.50759 3.76026 -0.0238663 -0.36348 1.7077
101 1 5.86225 3.09715 2.05671 0.512383 -0.28972 0.367319
102 1 6.68216 6.74902 4.02133 -0.00434213 0.397026 -0.239945
103 1 7.00036 2.22941 5.48568 0.454125 -0.116569 0.133406
104 1 7.92796 0.440589 8.08108 -0.293944 -0.898335 0.0974263
105 1 2.47331 4.15896 5.01433 -0.58154 -0.54214 1.29273
106 1 7.49884 0.787903 4.27329 -0.91681 0.419222 -0.325693
107 1 1.0387 2.39831 7.60875 -1.13768 -0.101961 0.179942
108 1 8.9466 1.20155 4.58063 -1.37619 2.33856 0.23787
109 1 6.15978 9.33595 6.61957 0.562603 1.24054 -0.442544
110 1 4.80535 9.24756 1.98212 -0.63601 -0.857685 -0.275878
111 1 2.46344 9.32184 7.51697 1.4666 -0.80753 -0.130194
112 1 3.85507 5.43516 9.2887 0.720391 0.76677 -0.209572
113 1 7.7895 4.10273 7.99593 -1.00484 0.625555 -0.296699
114 1 1.1991 1.36156 1.0643 1.02677 -0.750054 -0.259513
115 1 3.45027 1.01468 2.58327 -0.0850587 0.875189 0.162057
116 1 2.26298 4.31867 8.51568 -0.995548 -0.354093 0.678116
117 1 4.69179 7.86899 7.00965 -1.70855 0.340696 -0.640481
118 1 8.49957 8.60854 5.28501 0.899512 -0.0479678 1.50404
119 1 1.49553 6.0858 8.85341 -0.640698 -0.846847 0.683634
120 1 6.32353 1.69152 9.28941 0.948322 0.63557 -1.30733
121 1 9.35101 5.65785 4.44851 -1.04299 0.856354 -0.208839
122 1 7.74369 2.52449 8.05051 1.37028 0.199304 0.646938
123 1 3.11046 4.54195 8.4896 0.221449 0.279332 0.590659
124 1 0.942729 9.19591 1.7632 -0.395382 1.61545 0.509502
125 1 5.45972 6.7802 6.80946 1.59656 -0.269031 0.714637
126 1 3.82879 4.59258 0.0686846 -2.70089 -0.496992 0.471391
127 1 5.00656 5.62139 7.74588 -0.191084 0.734334 0.0255899
128 1 1.73766 0.249495 4.68947 0.196944 -0.153822 0.463359
129 1 3.94042 5.12796 6.20199 0.54087 0.567329 -0.912134
130 1 1.08479 6.91899 9.21916 0.641661 1.37918 -0.317674
131 1 5.30212 8.65457 6.84932 0.158649 -1.16503 0.0541236
132 1 1.27267 1.45915 4.79199 -0.900854 -0.0145003 -0.677721
133 1 0.890169 3.89515 5.9442 0.718827 1.24954 -0.480474
134 1 1.76298 1.39234 6.56328 0.561375 -0.639503 -0.279332
135 1 5.90812 3.51195 6.01228 -0.129945 -1.04123 -0.252131
136 1 2.91621 7.95152 6.56509 -1.89519 0.393031 0.450562
137 1 6.05523 7.04033 7.40769 -0.496512 -1.039 -0.291604
138 1 1.06309 4.70836 5.00095 -0.231297 -0.129562 -0.975757
139 1 1.66226 8.43196 5.71952 -0.870357 -0.861814 0.100504
140 1 7.46682 2.53437 2.29911 -1.26416 0.392619 -1.2949
141 1 5.87684 9.05837 3.73232 -0.071082 -0.852616 -0.833693
142 1 7.08247 6.52838 8.87072 -0.0442908 -0.504905 -0.134497
143 1 8.19458 1.12446 0.119662 -0.0400565 -1.66312 -0.870632
144 1 4.54714 5.05128 4.54583 -0.684921 -0.749111 -0.0309633
145 1 3.39695 5.87911 0.868097 0.614078 0.672872 -0.678809
146 1 7.48368 3.17501 7.33396 -0.0354621 -0.164029 0.272883
147 1 4.1651 4.74387 6.99112 0.266272 1.93 -1.0928
148 1 3.23384 5.16119 3.42769 -0.844698 0.870041 -0.394016
149 1 7.16309 1.12073 2.7216 -0.162657 0.468732 -0.252317
150 1 3.28897 6.10898 3.442 1.26956 -0.464256 0.732127
151 1 2.44855 7.59964 0.792109 0.746279 0.0985582 0.968571
152 1 9.09907 6.05322 0.846397 0.292066 -0.634152 -0.26698
153 1 4.55275 2.78048 4.45181 0.998003 -0.321518 1.08685
154 1 8.33843 1.50472 6.42134 1.08704 -0.154011 -0.372771
155 1 9.29462 4.13495 3.87822 0.0353331 -1.00069 -0.777434
156 1 0.652256 3.98789 2.35563 -0.740809 0.691955 0.413025
157 1 7.16908 1.80571 1.71847 0.354057 -0.225614 -1.22085
158 1 2.42126 5.75927 3.32348 0.293831 -1.39623 -1.78184
159 1 2.04984 4.10992 2.61652 -0.3658 -0.0952102 0.147448
160 1 0.339684 5.72349 8.57011 -0.505426 0.0422978 0.314078
161 1 8.27581 4.38469 2.33858 0.316781 0.303415 0.0902424
162 1 0.951347 1.73335 8.40853 -0.356373 0.332371 -0.683095
163 1 8.61009 2.38413 6.79923 -0.183705 1.06642 -1.48827
164 1 9.36394 6.64169 6.48409 0.849928 -1.11445 -0.96637
165 1 0.409548 4.78715 0.63161 1.07107 1.72823 -0.754583
166 1 1.37103 4.28444 0.18223 -0.33712 -0.7932 0.379301
167 1 6.80925 8.67075 0.567731 1.05108 0.479435 0.514927
168 1 3.97477 7.77077 2.7715 -0.277002 0.710482 -0.573379
169 1 6.26733 1.17576 8.05499 -0.0213629 -0.772618 -0.581194
170 1 4.90296 8.69266 4.94129 0.333604 0.446217 -0.812611
171 1 7.3919 1.76215 4.64966 0.649752 -0.593245 -0.468679
172 1 5.57554 0.604166 1.81741 -0.725953 2.2776 0.754256
173 1 7.93789 1.47452 2.39596 -0.208781 -0.613842 0.180194
174 1 3.39144 8.53207 2.8463 0.298275 0.0753159 -1.1509
175 1 8.2325 6.48334 3.75626 0.400748 -0.643791 0.0809533
176 1 8.4658 2.4823 1.9307 -0.227627 0.331273 -0.142355
177 1 5.57924 4.69732 1.65438 0.0546847 -0.277064 1.71322
178 1 8.75065 8.71675 1.7688 0.471083 -0.752893 -0.226155
179 1 5.6122 0.339496 8.08485 -0.213929 -0.511802 1.35293
180 1 3.8015 7.80203 7.10501 -0.614696 0.738631 -0.182742
181 1 0.899523 0.496054 4.75589 -1.5442 -0.362015 0.0879211
182 1 4.68165 6.59011 1.49193 -0.166304 -0.00173877 0.59999
183 1 8.20783 1.03961 1.74364 -0.359247 0.729999 0.878968
184 1 7.39402 6.3255 3.05442 0.189235 -0.191928 -0.470126
185 1 0.882575 8.29311 5.03165 0.110366 0.55287 0.399264
186 1 8.57079 0.991522 3.12683 -0.0933528 0.530536 0.487697
187 1 5.39715 7.73097 0.839148 0.275184 -0.0351641 0.167824
188 1 9.39945 0.450921 5.3244 0.295786 0.727766 -0.477112
189 1 8.26534 3.73173 3.06305 0.432517 0.759006 0.015115
190 1 2.6044 8.94875 4.55947 -1.07863 0.223087 -0.0885605
191 1 2.10181 8.56878 0.800358 1.03652 -1.09262 0.0877537
192 1 2.95956 1.25736 9.15213 0.273272 -0.42605 -0.334997
193 1 4.85122 3.99194 0.256552 -1.02686 -0.533856 -0.500655
194 1 2.54517 2.0633 9.12251 0.523465 0.428744 0.24739
195 1 2.11222 5.91046 8.07478 -0.957633 2.06869 -0.221566
196 1 0.136751 4.84601 8.52437 1.12927 0.392778 0.53931
197 1 6.14461 7.97778 1.36092 1.53919 -1.48857 1.15626
198 1 7.95588 6.21029 8.90447 0.0394641 -0.0293423 0.273225
199 1 4.75005 8.34087 2.46886 0.409747 0.075566 0.996975
200 1 7.64895 9.15539 0.721164 1.76124 -0.568579 0.723194
201 1 9.24562 3.01839 6.81293 1.07049 -0.114606 -0.14236
202 1 4.92067 5.91624 3.8979 2.13658 -1.33556 -0.740253
203 1 5.85773 2.59282 3.05043 0.714961 0.679352 -0.102959
204 1 3.04919 2.70156 6.12616 0.533141 -0.790356 0.832349
205 1 1.95506 0.552636 5.5703 -0.796555 -0.621249 1.87358
206 1 6.77924 9.27274 7.35825 -0.807586 0.0467298 0.455688
207 1 2.57986 6.65814 4.1203 0.84166 0.268969 1.56146
208 1 7.10659 7.65032 1.69013 -0.942853 -0.346659 -0.294031
209 1 9.37342 2.29291 9.35492 -0.670062 0.0654436 -0.993409
210 1 0.892476 1.55404 3.26281 -0.410533 0.782742 -0.656091
211 1 7.00979 6.99092 7.01367 -1.31696 -1.51683 -1.18585
212 1 0.513392 7.69538 6.99061 2.23267 -0.0306358 0.180461
213 1 5.3719 2.27143 9.07864 -1.41895 -0.36173 0.187568
214 1 4.59746 1.9863 8.15871 -1.44436 0.478463 -0.668534
215 1 2.9038 0.818422 0.750432 0.953626 -0.542413 0.399017
216 1 2.286 1.80569 3.74137 -0.23007 -0.909567 1.06042
217 1 6.52778 0.750478 7.25171 0.087999 -0.738938 0.305124
218 1 5.19953 2.29286 7.37675 0.359456 -0.110807 1.3671
219 1 5.70182 8.55511 5.96522 -1.15631 0.411199 -1.14247
220 1 5.14871 3.82494 8.58673 -0.256402 -0.345429 -0.72149
221 1 1.03378 0.877311 5.62616 0.118219 -0.616453 -0.0331094
222 1 1.90312 6.84861 8.52855 -0.134561 -0.737976 0.0944953
223 1 1.53419 6.43539 6.70786 0.862722 -0.916115 -0.776653
224 1 7.30087 5.35141 3.03553 0.80889 1.32089 0.999794
225 1 2.9948 2.58441 7.31384 -1.04125 -1.44457 -1.51548
226 1 4.72957 4.6556 9.08969 -0.916182 -1.22356 0.433814
227 1 6.29789 7.53916 2.19158 -1.23498 0.250264 0.567856
228 1 9.18939 9.02257 7.81862 -0.081351 0.0999437 -1.64494
229 1 0.767121 3.69543 3.34313 0.273394 -0.540558 0.0981633
230 1 4.43179 1.20856 2.52528 -1.48506 -0.695908 -0.543027
231 1 2.8284 5.67615 4.11449 0.429044 0.0566486 0.218503
232 1 4.23341 7.93911 6.23897 0.579782 -0.852858 -0.209354
233 1 3.53284 0.50074 4.44671 -0.192549 -0.143574 -1.10767
234 1 4.83424 1.43793 4.96788 -0.481112 -0.0727843 1.45984
235 1 4.91981 3.02827 1.88949 -0.320576 1.24934 -0.279453
236 1 2.92485 4.97805 2.07452 0.924354 1.193 0.442898
237 1 8.37694 6.00537 2.81767 -0.57454 -0.828653 -0.754237
238 1 9.23751 3.8548 9.38189 -0.278663 -0.339295 -0.823684
239 1 2.61689 1.7816 7.42741 -0.102577 0.792237 0.17588
240 1 0.202812 2.20503 1.77223 1.13203 -0.746515 -0.327806
241 1 1.93269 7.73047 6.19695 -0.87879 0.616501 -1.99605
242 1 5.97828 4.41645 6.1873 -0.56301 -1.57243 0.383566
243 1 1.12551 6.40386 2.84769 0.171221 0.825374 0.401668
244 1 4.12242 8.22408 5.18744 0.715795 -0.496093 0.281615
245 1 0.806397 1.11362 4.08061 1.23351 -1.01156 -0.364289
246 1 3.619 7.62614 5.7613 -0.387252 -0.172352 0.0247004
247 1 6.71038 0.192192 3.89647 -0.639063 -0.740937 -0.361314
248 1 8.989 7.56749 6.49239 -1.02807 -1.25182 -0.480834
249 1 6.24054 5.7975 5.41286 -0.482081 -0.443963 -0.342757
250 1 0.7453 8.43342 7.57103 0.395221 -0.900029 -1.5252
251 1 7.42901 6.54506 5.99249 -0.199881 0.101578 -2.05867
252 1 3.70237 7.54202 1.63906 0.369101 1.0719 -1.11332
253 1 5.96069 4.85051 5.41343 0.275981 -0.278241 -0.0331625
254 1 2.25183 4.89174 5.85895 0.020432 0.175482 -0.70091
255 1 8.88063 4.9488 6.62783 -0.342165 0.508608 -0.345924
256 1 0.624492 8.93547 4.562 -0.760506 0.201589 -0.587011
257 1 0.0779388 2.75469 5.15263 -0.0494681 -1.15424 -0.925564
258 1 4.42798 5.0053 0.695019 1.10525 -1.52055 0.166946
259 1 1.56105 7.46404 0.630249 -0.845188 1.27666 1.08144
260 1 1.70644 1.81523 7.44686 -0.835653 0.823403 1.52743
261 1 8.54841 8.67008 3.54318 -0.810078 1.3912 -0.438261
262 1 8.72919 6.98466 7.32486 -0.0393031 0.756772 0.0359321
263 1 6.25377 6.13099 9.29803 0.604494 0.872777 -1.58517
264 1 1.39024 8.26192 6.77202 -0.495247 -0.125394 0.847225
265 1 8.67845 2.60517 5.26275 0.16308 1.41665 0.759575
266 1 9.28038 6.49627 7.92054 0.438843 0.255285 0.675095
267 1 2.39922 8.13247 1.56082 -0.274367 -0.775547 0.676599
268 1 3.38004 7.21771 6.54766 0.337932 0.387404 0.694082
269 1 3.67068 3.55783 0.207098 -0.328693 0.735402 0.633552
270 1 5.03213 7.98051 1.61833 0.478726 -0.190516 0.350755
271 1 7.26172 0.572434 1.70284 0.293263 0.123303 0.813802
272 1 5.00263 0.18018 3.56559 0.97727 -1.35085 1.31995
273 1 8.73212 5.73882 3.72316 0.415939 -0.75968 1.34803
274 1 3.21283 8.80769 8.87783 -1.41111 1.39507 0.365516
275 1 1.01619 0.568148 0.00285541 -0.110314 0.296267 -0.37641
276 1 0.27981 1.44829 5.97077 0.114277 -0.144625 0.440201
277 1 3.97527 4.82216 2.85392 -0.493819 -0.123914 2.03697
278 1 7.11914 8.01179 5.26032 0.405483 0.3431 -0.326376
279 1 7.00724 8.52134 3.59637 -1.22418 1.77595 -0.130807
280 1 6.89886 3.74046 0.458468 0.662737 0.0276132 -0.114424
281 1 6.23413 5.15104 8.65915 -0.277152 0.391932 -0.542549
282 1 6.04674 5.44503 7.66844 0.160883 0.991278 -1.59914
283 1 6.24393 6.95806 1.34592 -0.349625 0.0638341 0.103453
284 1 1.73434 6.46104 0.343431 -0.0845032 0.520293 1.30098
285 1 8.68485 8.97672 0.846228 -0.104749 0.387442 0.801846
286 1 3.35693 6.27257 5.71525 0.0726359 0.257951 -0.712608
287 1 0.910778 5.68453 4.61346 0.21604 0.449233 -0.533218
288 1 1.32543 3.74319 7.54308 -0.877652 0.621021 -0.669344
289 1 7.50627 9.32021 3.11032 -0.904655 0.883661 -0.644488
290 1 6.3139 2.64329 4.76062 0.542006 -0.314956 -1.36554
291 1 4.53765 1.18982 0.787164 -0.198722 -0.483303 -0.582835
292 1 6.19117 4.27088 3.35499 -0.183223 -0.416199 0.370495
293 1 4.50478 7.17706 3.65748 1.19229 -0.674129 0.36401
294 1 8.11477 5.92812 5.68845 0.128203 -0.445552 -0.464882
295 1 3.66449 6.56233 8.3391 0.485171 -0.252418 0.833191
296 1 6.76811 1.17848 1.18291 0.493135 0.0694771 -0.834494
297 1 6.80405 8.84994 4.41172 -1.1261 0.269113 0.738872
298 1 5.1571 2.43447 3.69274 -0.545829 -0.159092 0.476993
299 1 8.53956 1.38752 7.51323 1.0565 -0.816942 0.594783
300 1 8.90815 0.546343 7.67971 -0.536709 -1.18153 -0.74327
301 1 0.246148 0.725035 3.05333 -0.637626 0.196106 -0.141215
302 1 3.70006 8.66933 6.08857 -1.25869 -0.219245 -0.71663
303 1 8.3572 3.45683 8.13042 -0.36116 0.827765 -1.03215
304 1 3.77915 1.15412 0.239032 -0.385206 0.535124 -0.855009
305 1 2.31929 2.35021 6.65943 -0.26959 0.113055 0.744812
306 1 4.78027 8.95108 7.72428 0.184449 -1.16356 -1.38175
307 1 3.90931 2.84997 2.22741 -0.0766471 0.577894 -1.22635
308 1 2.06882 8.38344 3.09372 0.522847 -0.535682 0.706637
309 1 9.31398 9.15323 9.07617 -0.798483 -1.43122 -0.666387
310 1 0.428786 4.5188 3.20469 -1.36453 -0.0310163 -0.115366
311 1 4.28118 6.41243 3.41226 0.739899 1.55133 0.718988
312 1 5.30345 7.90332 6.36777 0.872945 -0.448984 0.357043
313 1 1.01613 5.30013 1.54502 0.205868 0.432381 -0.568842
314 1 1.5107 5.1363 6.74309 0.216447 0.687227 -0.626816
315 1 7.72738 2.93681 5.48179 0.263627 0.257654 -0.338387
316 1 8.349 4.12811 8.88965 0.451921 0.516482 -0.22142
317 1 7.8898 8.19098 3.25382 0.180258 -0.851853 0.096405
318 1 4.21867 8.77686 3.40111 0.236732 -0.178521 -0.222466
319 1 2.86078 1.34863 5.06321 -1.05891 0.713467 -0.0608009
320 1 8.03082 7.45055 3.71841 -0.388753 -0.131244 -0.471544
321 1 0.544566 2.08411 6.68174 0.825003 -0.205629 -1.60864
322 1 6.04824 9.16941 0.341499 -0.623878 -0.0609826 -0.843481
323 1 4.39962 2.13678 0.476247 -0.119541 0.667918 -0.316032
324 1 7.25458 7.36779 2.84022 -1.13351 -1.22636 -0.369511
325 1 5.59583 6.07243 1.28828 0.567106 0.134202 1.40042
326 1 4.60421 4.1609 2.76995 1.44594 0.488251 -0.894124
327 1 0.446008 6.583 3.37081 1.93506 0.240447 -0.136906
328 1 5.66683 4.4371 9.00048 -1.3012 1.01972 -0.585709
329 1 5.10655 8.64645 4.11301 -0.173099 0.151769 -1.03965
330 1 2.02092 4.28504 0.853232 -0.345915 -0.699945 -0.277183
331 1 5.45386 1.38305 2.37201 -0.571184 0.454765 1.15254
332 1 8.13067 6.63068 4.9182 -0.8192 -0.278671 0.610384
333 1 4.98204 6.72237 9.23878 0.0572147 0.222977 -1.76351
334 1 6.06786 5.50371 4.55763 1.32265 -0.0648227 -0.355836
335 1 4.57422 0.459 1.38803 0.537343 0.208746 -0.600905
336 1 7.19654 1.79704 3.28052 0.0107729 -1.08586 0.541287
337 1 6.39152 7.81976 7.61816 1.24249 0.433821 -0.400698
338 1 6.15051 0.767417 6.21941 -0.128101 -0.453936 -0.098743
339 1 4.68348 4.67028 3.65681 -1.35235 -1.08653 0.545308
340 1 1.62647 5.04109 8.95107 0.143555 -0.727747 -0.541857
341 1 0.25096 8.93217 5.44345 0.459347 1.04401 1.16915
342 1 2.48124 2.25053 2.0684 -0.727759 0.966449 1.91086
343 1 6.7944 5.91074 1.91912 -0.104536 -0.083924 0.541706
344 1 0.362426 7.63344 1.16792 1.30944 0.554857 0.393476
345 1 7.73623 3.3407 6.42461 1.35666 0.584349 -2.10765
346 1 3.21931 7.8979 8.8642 0.0595082 0.77358 0.685077
347 1 0.539021 7.94397 3.13047 -0.278727 0.520969 -0.256314
348 1 0.0826921 8.52531 3.62085 -0.813583 0.430918 0.38105
349 1 4.31128 6.09113 8.80149 -1.1073 -0.716366 -0.579223
350 1 1.06784 1.17335 7.72026 -1.5666 -0.348045 -0.416375
351 1 1.06977 6.41985 4.11431 0.864596 -0.613886 -0.757271
352 1 7.78063 7.41199 1.02492 -1.65644 -0.813986 0.780288
353 1 9.40904 8.46609 1.0185 1.29091 0.572397 0.666992
354 1 0.78317 9.26497 7.06715 -0.152786 1.07403 -0.0926457
355 1 5.47465 7.11257 1.75281 0.232516 0.0283412 1.13328
356 1 3.90226 6.97787 9.28276 0.552967 0.0617555 -0.0643944
357 1 8.71731 1.74957 1.47068 -1.24979 -0.0604748 -0.378935
358 1 4.49758 1.98566 5.58939 0.223677 -0.261586 -0.0111147
359 1 6.90072 8.71416 6.4775 0.209499 0.631937 -1.11408
360 1 8.21523 6.96404 5.88991 -2.29245 -0.773363 0.625753
361 1 7.94614 2.34573 6.13469 -0.380735 -1.31248 0.84102
362 1 0.929081 4.39679 3.99829 0.866063 -1.18338 -0.410006
363 1 8.05074 6.01408 1.94873 0.597684 0.81139 -0.00794702
364 1 1.70296 1.03161 3.83126 0.0765168 -1.16689 0.445719
365 1 2.13923 5.21048 0.405778 -0.255748 0.215734 -1.07441
366 1 5.52255 7.42542 4.68989 -1.75408 -0.314339 0.306149
367 1 4.68852 0.0487886 4.38887 -0.659044 0.943528 -1.71809
368 1 3.37414 5.67441 2.57368 0.933833 0.513576 -0.16615
369 1 5.4757 1.62284 3.42842 0.512031 -0.0847741 1.10879
370 1 7.96185 1.05801 5.01598 0.634779 -0.672768 -0.1784
371 1 3.41345 3.51774 1.4611 0.473143 1.22818 -0.705104
372 1 5.95124 3.90848 5.17668 0.570598 0.549528 -0.912767
373 1 8.87192 4.76345 0.490477 0.643278 -0.401203 -0.632021
374 1 0.0384293 2.24895 3.21493 1.00967 -2.46647 -0.00930332
375 1 7.54699 3.8981 9.25558 0.10978 0.0940213 -0.3709
376 1 3.86873 4.52081 4.0454 -1.04448 0.23733 0.45524
377 1 6.0182 7.59269 5.5005 0.335267 -0.507487 -0.802564
378 1 0.0244875 8.54523 6.59583 0.880548 0.471174 0.689085
379 1 2.73402 5.25601 1.13676 1.51087 0.795416 -0.0455959
380 1 2.16711 1.27344 0.468542 -0.360825 -0.912247 0.757817
381 1 7.81601 2.33118 1.23753 -0.531803 -1.02121 -0.865992
382 1 7.01417 7.29228 5.91545 -0.988865 0.0811964 -0.704257
383 1 4.41399 2.50662 1.32437 0.988912 0.3669 -0.569186
384 1 3.57575 1.92935 6.96399 0.101127 0.460432 0.0728922
385 1 7.92547 4.13932 6.86201 -0.889768 -0.0603465 0.121874
386 1 7.98379 4.86858 0.281005 -0.621501 -0.676953 -0.807574
387 1 1.55531 0.870334 2.36825 -0.147589 -0.0454908 0.29549
388 1 7.1007 5.43021 8.99588 0.168615 -0.15226 0.490958
389 1 8.38264 0.0771522 3.24393 1.28802 -0.16729 -0.445527
390 1 6.21785 7.51027 6.50131 -0.369648 1.39494 -0.552982
391 1 3.64714 7.05576 3.10596 -0.1226 -0.0716338 0.00210841
392 1 1.99517 6.73051 7.56763 -0.361997 0.106166 1.18401
393 1 2.21738 7.61426 5.09292 -0.110212 -0.149804 -1.05694
394 1 2.27841 4.38304 0.020462 -0.303183 -0.0622707 -0.55993
395 1 7.42072 2.53603 9.33665 0.862578 0.130711 -1.64581
396 1 7.77221 5.75276 4.89003 1.0748 0.0282858 -1.01736
397 1 6.33979 2.67315 0.22894 0.154317 0.537774 0.504385
398 1 5.60007 1.46359 4.36348 -0.144282 0.30984 -0.0169467
399 1 4.94102 7.07473 2.87975 0.202143 -0.338701 0.273333
400 1 1.37354 3.37804 0.847953 -0.401739 1.13254 0.397644
401 1 5.68423 3.97484 7.03519 0.396452 -1.02738 -0.357223
402 1 5.16203 9.36353 6.22402 -0.917491 -0.160032 0.353388
403 1 8.09771 1.34196 4.10593 0.965061 0.0875987 0.110165
404 1 7.27431 3.4892 8.27081 0.0473373 -1.35849 -0.722285
405 1 7.02558 1.14797 6.57083 0.635937 0.144321 0.430969
406 1 0.959747 2.18293 1.40046 -0.801195 -0.34138 1.30218
407 1 3.35749 8.82845 7.39591 0.866097 0.308332 0.175289
408 1 2.46472 1.41038 2.50005 0.731138 0.72537 1.00226
409 1 4.26304 8.66387 4.38862 -0.861288 -0.219279 0.651621
410 1 3.8741 2.41615 6.09182 -1.1957 0.640493 -0.569165
411 1 0.611646 5.79659 0.900236 -0.0948949 -1.31131 -0.25656
412 1 8.85455 6.66562 3.18697 -0.0412325 -1.24519 0.239155
413 1 3.61964 4.93456 1.13621 -0.504529 0.225315 -0.45115
414 1 8.96736 6.0061 5.40771 -0.364326 0.0777878 -0.335309
415 1 8.67971 1.33629 5.51443 -0.154209 0.405771 0.0961828
416 1 1.73767 2.46775 4.85918 0.613271 0.0935247 -0.725425
417 1 2.83398 4.1339 7.32807 0.0146173 0.436742 -1.10343
418 1 8.70042 7.02935 8.35771 -0.456654 0.822884 1.21688
419 1 5.12574 5.06691 2.32986 -1.42683 0.396228 -0.0263256
420 1 1.05905 6.79149 0.934593 -1.54789 -1.47401 -1.07558
421 1 2.92886 3.83725 9.26463 -0.135289 0.296896 -1.56529
422 1 0.258037 2.24946 4.39554 0.254212 0.40309 -0.327672
423 1 6.24823 6.4765 6.39903 -0.323446 1.82584 0.313442
424 1 8.34827 9.1244 7.55805 0.650361 0.166792 -0.425057
425 1 7.93293 1.99309 7.12997 1.15832 0.399106 0.786794
426 1 2.95702 0.578774 1.60005 0.0323715 -0.837309 0.248855
427 1 1.62326 3.18113 2.90644 0.39526 -0.471916 0.1682
428 1 8.39661 4.38133 1.28574 0.128961 -0.378779 -0.254458
429 1 3.97491 1.38838 4.27263 -0.177004 0.598333 -0.0579044
430 1 0.061862 5.2858 9.3507 0.0700328 0.0805441 -1.40257
431 1 3.71261 2.45416 7.84508 -0.0106684 0.106521 0.717735
432 1 7.66341 5.68352 3.84581 0.847504 -0.903714 0.269635
433 1 0.665202 8.44593 6.00179 0.66603 1.12598 0.142196
434 1 4.54864 2.87933 5.4933 -0.732758 0.923025 -0.103274
435 1 1.42861 2.25011 6.35489 1.83462 0.851378 0.627421
436 1 6.31978 4.57537 4.63872 -0.176655 -1.44635 -0.750971
437 1 4.21696 7.83455 8.86211 -0.383022 -1.35867 0.0199678
438 1 8.43037 3.07715 1.26968 0.0462762 -0.687664 -1.00805
439 1 7.09929 3.93226 7.26289 0.467165 0.280619 0.334427
440 1 2.73848 9.23984 0.558658 -0.367363 -0.600236 -0.735047
441 1 8.13429 8.12399 2.20759 -0.465151 -0.289261 0.599069
442 1 3.62307 3.26902 8.78971 -0.271767 -0.222299 -0.370617
443 1 0.401519 5.43183 7.64673 1.41209 0.0290658 -0.0913052
444 1 2.90673 7.45082 7.40524 -0.432109 -0.220881 0.331719
445 1 4.14573 5.49418 7.85115 0.483522 2.07879 -0.693735
446 1 3.04518 0.118634 6.78126 -0.337848 -0.791407 -1.31117
447 1 5.83097 2.73848 6.67355 -0.1407 -0.0772792 -0.811969
448 1 8.51979 2.79245 3.36407 -0.197709 0.855273 -0.117747
449 1 0.272096 5.40109 3.7234 -0.369241 1.09878 -0.0566606
450 1 3.47223 3.65636 5.53245 1.13664 -0.257248 0.0784894
451 1 4.23837 0.188069 0.484541 -0.691966 0.110806 0.606342
452 1 7.30008 1.61091 9.29556 -1.32627 0.603513 0.739498
453 1 3.78851 8.01029 3.80107 0.56929 -0.0747193 0.754008
454 1 2.82697 8.32209 5.36025 -0.562408 -0.661098 0.642599
455 1 1.9404 6.43965 3.22764 -1.09845 1.2042 -0.799656
456 1 1.91155 6.85807 2.43924 0.221173 0.641689 0.249892
457 1 1.91629 4.42853 7.59465 0.184499 -0.128633 -1.37948
458 1 8.28442 2.25603 8.83811 -0.357203 -0.589478 0.0860418
459 1 4.16471 0.549897 7.30947 0.0707529 -0.961854 0.160211
460 1 9.01094 2.75359 2.5928 -1.11176 -0.661482 0.713395
461 1 4.74473 7.76976 0.230971 -0.466312 -0.326813 0.720516
462 1 2.20855 9.0127 5.36314 1.30633 -0.0985209 0.472375
463 1 8.73277 7.19463 0.815178 -0.358833 1.18406 -1.13554
464 1 0.299022 3.91809 6.67579 0.334431 0.0365859 -0.193249
465 1 4.0744 6.05291 6.73631 -1.60165 -0.74222 0.855131
466 1 6.47321 0.428563 5.07845 -0.180904 -0.434934 0.506202
467 1 0.256874 9.20395 0.491099 0.243177 0.786219 0.698494
468 1 5.49451 6.06879 8.69383 0.267595 0.310784 1.38558
469 1 9.38151 3.24547 7.68787 -0.024272 0.438287 0.713428
470 1 8.68988 7.34191 4.2945 0.353535 0.0288362 -0.123134
471 1 5.52928 4.00483 2.35995 0.339842 -1.22728 0.0414007
472 1 3.37395 2.19699 1.75984 -1.08932 -0.855348 0.781648
473 1 2.36526 5.1815 7.60461 0.419594 0.210094 2.06813
474 1 2.42389 0.673616 6.29571 -0.206559 0.294615 -0.421431
475 1 4.32148 7.09856 6.5743 0.959798 -0.981843 -0.476293
476 1 3.0053 4.93446 0.0779285 0.766554 0.313474 -0.743843
477 1 2.31672 3.33096 0.780787 -0.586835 -0.430058 1.01471
478 1 5.0465 6.87417 0.759531 -0.365501 -0.108104 -0.538813
479 1 9.04323 3.09992 4.39135 -0.105293 -0.34178 -0.564076
480 1 1.05026 7.24147 3.70231 -0.796425 -0.0970163 0.250879
481 1 5.78639 3.82514 4.18364 -0.588119 -0.598306 0.335718
482 1 7.35778 4.79834 7.63058 0.637288 -0.470821 0.0583905
483 1 1.49727 0.518962 7.1088 0.529677 0.109413 -1.0967
484 1 2.44951 6.26962 6.0304 -0.858967 0.481881 0.0450054
485 1 5.82372 1.7009 0.597235 -1.6009 0.603364 -0.353211
486 1 1.09947 6.18338 1.67988 -0.54284 0.447642 0.184761
487 1 8.20781 3.56889 4.94558 -0.171787 -0.297002 0.635791
488 1 9.13965 8.19431 4.45872 -0.510761 -0.929806 -0.921119
489 1 1.71411 5.60462 5.84765 -0.950403 -0.748716 0.390415
490 1 2.41858 6.09819 8.97908 -1.95558 -0.348056 -0.562944
491 1 1.37518 7.47175 8.00716 0.427153 -1.04004 -0.116432
492 1 7.60048 4.74404 8.76216 -0.421306 1.59557 -1.27575
493 1 4.78412 0.903947 9.27804 2.2242 -0.30689 0.0374878
494 1 8.97622 5.62148 7.44942 -1.14887 1.12927 0.929977
495 1 4.75873 5.48706 3.08045 0.0450444 0.125601 -0.0637872
496 1 6.91897 0.126491 9.33735 0.21218 -0.252938 1.01412
497 1 0.871125 0.648178 8.52121 0.907538 0.437096 -0.605438
498 1 1.73523 8.68783 4.72784 -2.21999 -0.53613 0.445007
499 1 3.44629 7.57898 8.11027 0.376515 1.7455 -0.318
500 1 1.07356 1.5349 1.96814 0.248807 0.131863 0.415185
501 1 1.41978 5.83409 7.3892 -1.11155 -0.646761 0.891754
502 1 0.439702 0.650039 0.813166 -0.64219 0.361682 -0.142244
503 1 3.93601 4.25696 4.97145 0.379408 -0.328413 0.885433
504 1 8.61693 4.96291 9.03211 1.1693 0.888524 -0.0129075
505 1 3.56664 0.874846 6.7366 -0.861371 -0.737817 -2.06992
506 1 1.42519 4.69426 5.89171 0.213227 1.06858 0.333786
507 1 6.51528 2.58718 1.89198 -0.847172 -1.1391 0.919296
508 1 0.940317 0.26627 2.53251 -0.63147 1.42845 -0.881931
509 1 6.32221 0.035501 1.9527 -0.954595 -0.263557 0.039989
510 1 4.43553 3.22527 0.582372 0.242918 -0.242236 -0.394353
511 1 8.0976 4.38672 3.67646 -0.0229828 -0.935754 0.0179934
512 1 2.68341 2.18715 0.666322 1.3114 0.746804 0.988766
513 1 4.92143 5.52446 1.27244 0.241142 -1.18369 -0.548061
514 1 2.31958 0.803543 3.21597 -0.741464 0.209852 -1.44073