ITEM: TIMESTEP
310550000
ITEM: NUMBER OF ATOMS
1000
ITEM: BOX BOUNDS pp pp pp
0.0000000000000000e+00 9.4000000000000004e+00
0.0000000000000000e+00 9.4000000000000004e+00
0.0000000000000000e+00 9.4000000000000004e+00
ITEM: ATOMS id type x y z vx vy vz
1 1 0.643679 1.67694 7.32814 0.10833 0.105329 0.027903
2 1 6.93004 4.99232 3.3723 -0.393958 -0.20441 -0.883063
3 1 6.5477 7.62843 6.2146 -0.289644 -0.154204 -0.223086
4 1 4.56231 6.13712 3.94628 1.35315 -0.0363747 -0.481544
5 1 3.11238 6.46178 1.66566 -1.83561 -1.29346 -0.79812
6 1 5.89043 5.43497 0.338859 0.594747 0.245168 0.483031
7 1 1.34479 2.12078 7.14164 -1.64149 -0.532936 0.73397
8 1 3.15319 6.48686 9.39191 -0.397767 -0.730586 0.989232
9 1 4.32651 2.95784 3.11882 0.221539 -0.80521 0.159162
10 1 5.2854 4.72186 5.64535 -0.414717 1.65584 0.949056
11 1 2.78367 8.81792 0.692485 0.180083 -2.21434 0.817991
12 1 1.18245 5.95 8.39827 1.10846 -0.757974 1.00887
13 1 4.14797 5.18819 0.479147 -0.534014 0.54004 -0.148342
14 1 1.58925 5.35933 3.21062 -0.426612 0.127214 -1.18363
15 1 0.201796 9.07529 5.86407 0.793044 -1.43821 -0.419574
16 1 1.52968 8.65794 6.47525 -0.526923 1.19346 0.355798
17 1 8.38839 3.09438 6.00274 -0.739426 -0.874094 0.414116
18 1 4.30152 0.289918 6.48915 0.324687 -0.450024 0.262167
19 1 8.65385 2.18545 8.71882 0.866209 0.204844 -1.25832
20 1 7.34225 0.305904 3.60406 0.179748 -0.385004 1.0847
21 1 3.71098 3.73963 8.94557 0.928398 1.57576 0.96533
22 1 8.33403 6.32514 3.29706 0.779702 0.443438 -0.635074
23 1 8.5635 8.71915 0.430641 -0.545489 0.637969 0.204854
24 1 5.84842 7.7687 8.06244 -1.20862 0.0802454 0.65455
25 1 2.14961 6.73136 1.49006 -1.00989 0.450865 -1.03465
26 1 2.85631 6.29827 2.80672 0.0905064 0.66204 -0.482434
27 1 5.30229 8.66161 0.117619 -1.13637 -0.0587245 -0.682772
28 1 7.42518 4.54691 0.984496 -0.696552 -0.116134 -0.564006
29 1 9.32187 2.76733 8.67426 0.82944 0.614505 -0.188364
30 1 0.57201 6.57302 0.65981 0.0198091 0.048364 -1.48659
31 1 7.36522 8.44575 3.72741 -0.424991 -0.025624 -0.336888
32 1 7.11602 8.84285 1.75843 0.0670094 -0.990944 -0.0561192
33 1 5.86719 1.13762 1.73414 1.21967 0.320477 -0.087165
34 1 1.67109 9.25291 5.36769 0.51562 0.838506 -0.723272
35 1 6.2952 6.38817 5.03958 0.965806 1.75339 0.164393
36 1 7.29063 2.00237 7.20517 -0.0806403 0.639752 0.343275
37 1 7.4094 7.32568 0.932165 -0.816782 -0.892283 -0.06956
38 1 0.548331 1.50049 8.92786 -0.65527 -0.184438 0.758134
39 1 2.75222 2.03212 2.95812 0.760771 0.462022 -0.0326013
40 1 5.00264 2.99965 1.36753 -0.170068 0.22826 1.6534
41 1 5.69525 -0.0716907 3.80928 -0.561665 -1.33318 -0.311999
42 1 2.64208 4.29984 5.09538 -1.25969 0.548469 -0.280549
43 1 2.92798 3.22485 5.06333 0.500664 0.0444585 0.571124
44 1 6.4253 8.97871 3.55364 0.156581 0.0239123 -1.05375
45 1 1.24729 1.68426 0.034848 0.101059 0.323436 -1.09858
46 1 1.34451 0.051893 7.87786 -0.325368 -0.246622 1.38859
47 1 1.63521 3.06964 2.05634 -0.350933 0.204999 -0.823486
48 1 1.46235 1.30495 0.868829 0.0366787 0.716219 0.47236
49 1 4.60607 2.33405 0.751935 0.0909223 0.465442 0.0527838
50 1 1.14028 2.82656 4.57845 0.229282 0.0479016 1.78313
51 1 8.34027 3.3255 8.8127 -0.175246 -0.811128 1.02176
52 1 0.463489 4.31384 5.11197 1.37757 0.249468 0.954894
53 1 7.9406 0.642316 2.6756 1.13919 -0.496255 0.0858897
54 1 0.908888 8.9999 2.76225 0.88675 0.133224 0.647359
55 1 3.08197 1.65322 5.85359 -1.25969 0.732923 0.0676505
56 1 4.32829 6.92719 4.94152 -0.552873 -1.79856 0.0891189
57 1 8.9569 4.49295 1.5757 0.906216 -0.174626 -0.0333238
58 1 3.5283 4.68883 7.48758 0.0778175 -0.290366 -0.0732376
59 1 0.213585 5.91338 2.19867 -1.46647 -0.373985 -0.746644
60 1 7.06225 5.10437 5.61392 0.819229 -0.87333 0.273366
61 1 2.68357 7.06117 0.707908 -0.0858049 -0.111344 -1.72897
62 1 0.235173 1.51526 0.814457 0.71526 1.41274 -0.238563
63 1 0.247416 8.24072 8.35751 -0.10848 0.656688 0.531541
64 1 5.20166 2.82299 8.26467 -0.418255 0.46663 -0.102892
65 1 5.07062 9.35595 0.909945 0.856116 -0.0963115 0.138471
66 1 2.59069 5.12159 8.88899 0.564828 1.47327 -1.89244
67 1 6.13711 6.24896 9.0258 0.300549 0.887862 -0.735197
68 1 9.09018 6.80492 0.592712 -0.0871553 -0.88765 1.17465
69 1 2.59058 1.11873 0.0908086 -0.585868 -0.0867802 0.0546314
70 1 4.78572 3.83036 5.58569 0.402329 0.368037 0.764871
71 1 5.16684 5.50769 9.05041 -0.574611 -0.403476 0.175118
72 1 1.22128 4.37939 2.20746 0.818812 0.869502 -0.507955
73 1 5.55406 1.23138 0.696292 0.448182 -1.53717 -0.434448
74 1 0.487567 8.20143 0.824207 0.0850345 -0.885447 1.0223
75 1 3.59313 4.17651 5.43902 -1.12281 1.15364 -0.0742853
76 1 3.02426 0.185233 7.56272 0.984972 0.214309 -0.257842
77 1 5.9846 6.24981 2.79233 0.523661 -0.205982 -0.20125
78 1 1.66085 0.200015 4.27563 -1.88934 -0.498449 -0.903864
79 1 4.7076 9.20661 7.72062 -0.247657 -1.56128 -0.0859227
80 1 5.267 6.26256 4.51435 -0.649813 0.172637 -0.426655
81 1 2.32019 5.87408 0.209508 -0.375565 -1.21156 -0.185076
82 1 0.595763 4.77642 6.62364 0.844778 -0.862891 -0.504831
83 1 3.14173 5.18193 4.79781 0.840828 0.763349 0.727499
84 1 6.93023 8.98068 4.30245 -0.284603 0.127885 0.437272
85 1 3.69657 2.31275 5.71153 -0.381027 0.0734544 0.339503
86 1 9.27434 6.32885 1.47837 0.771089 0.49864 -0.233382
87 1 0.123242 9.17401 4.97005 -0.764286 0.154668 -0.00177705
88 1 5.39945 7.76647 3.50014 1.15641 0.769802 -0.272175
89 1 1.46866 1.54206 5.65894 -0.666374 0.189888 0.211381
90 1 1.95049 9.37647 6.623 -0.233272 0.173573 -1.07668
91 1 5.13797 8.52508 3.76184 -0.27109 1.0432 0.889264
92 1 7.39885 0.402379 2.09604 1.36705 1.00564 0.759255
93 1 3.00912 6.57302 3.74456 -0.848676 0.298728 -0.0269763
94 1 4.85991 1.59446 0.223999 -0.323168 -0.713979 0.0784467
95 1 2.69499 4.94928 5.79649 -1.47339 0.381581 0.849712
96 1 0.0812172 5.28867 4.02114 -0.147749 -1.01693 -1.63336
97 1 1.7016 8.61135 4.70431 -0.482118 0.438236 1.53417
98 1 2.85753 2.19078 8.43927 -0.705092 0.869856 0.0362506
99 1 2.54701 6.12361 6.58989 0.65615 0.838523 -0.229404
100 1 3.52845 1.97632 7.45028 -0.501161 0.0515986 -1.75658
101 1 2.31499 4.05171 1.54265 -0.694448 0.177526 0.588278
102 1 3.43165 5.96365 5.14889 0.224905 0.56458 0.0803736
103 1 3.85636 1.07577 1.55078 0.32766 -0.172847 -0.755084
104 1 3.39977 5.65188 8.70806 -1.34191 0.127744 0.0292962
105 1 2.13131 2.79538 9.17537 1.69447 0.202252 -0.015014
106 1 5.76574 8.5794 1.91032 -0.288515 -1.99297 -0.197669
107 1 7.17707 3.65379 9.13777 0.231698 -1.01694 -0.152164
108 1 0.0591847 6.0333 7.80939 0.166661 -0.711891 -0.252277
109 1 6.22326 4.80435 5.74536 0.375728 0.453877 -0.324542
110 1 8.17986 3.891 5.44476 1.19605 0.299414 -0.100524
111 1 3.06759 7.49724 3.6022 -0.193035 -0.761085 -1.03867
112 1 2.72161 7.21436 6.01708 0.567845 0.804317 -0.689646
113 1 3.39606 6.63979 7.38263 -0.987143 0.731598 -0.125557
114 1 6.31098 2.14848 1.4682 0.535102 -0.812193 0.191336
115 1 2.03927 7.33483 0.16836 0.616736 1.25242 0.510244
116 1 0.256749 3.0519 6.1791 1.02172 0.335063 0.288503
117 1 0.968098 0.0585951 1.81599 1.55145 0.11467 -1.46959
118 1 7.02987 3.92491 8.11161 -0.321979 -0.60854 -0.25181
119 1 8.27844 1.83261 1.48348 -0.261094 0.270918 0.521205
120 1 5.54192 7.55749 6.00947 -0.2075 0.44648 0.94768
121 1 4.11573 6.93215 6.88073 -0.591422 -0.693097 -0.215542
122 1 6.38391 7.44241 8.71868 1.07665 0.0684365 0.0415982
123 1 0.846694 6.55175 2.82668 0.20111 0.426063 1.73586
124 1 8.57791 5.81627 5.89295 -0.577391 -0.361319 -0.182462
125 1 5.5658 3.06183 6.41743 -0.8966 0.113262 -0.108232
126 1 9.15883 6.16583 3.00021 -0.316187 -0.0828728 0.370606
127 1 4.92284 6.75019 5.89946 -0.916451 -1.28796 -0.999244
128 1 8.10578 4.04803 0.184606 -0.223804 -0.291189 -0.463324
129 1 0.175414 7.32579 9.18359 0.126739 -0.905789 1.33627
130 1 6.22475 3.42323 3.71314 -0.239274 0.686015 1.34519
131 1 6.16972 2.18182 4.93253 -1.17415 0.579512 0.128312
132 1 4.12874 2.97839 6.97136 0.361536 -0.186652 -0.454329
133 1 2.77582 5.43159 1.5003 -0.269533 1.41024 -0.584469
134 1 8.40449 2.85935 1.12851 1.1521 -0.764704 -1.2072
135 1 6.5374 5.90575 3.38335 -0.303993 -0.262823 1.04004
136 1 5.584 6.07015 6.49182 -1.57149 0.191372 0.345433
137 1 4.18776 0.934716 7.17612 0.125441 0.48775 0.665673
138 1 5.95476 0.629773 -0.00662095 0.154986 0.813192 -0.247127
139 1 5.17953 1.44598 2.7776 0.163334 -1.19971 -0.680967
140 1 1.51335 7.16106 2.72436 0.656469 0.442659 1.93948
141 1 3.47222 3.92322 3.59343 1.24334 0.278116 1.08974
142 1 2.62225 0.185223 0.107921 -0.502626 1.27138 -1.18228
143 1 3.72946 3.56605 0.541941 0.80007 -0.947422 -0.143226
144 1 8.30299 4.10164 1.12677 0.55153 -0.954658 1.41476
145 1 5.74836 7.15229 4.26818 -0.855845 -0.510268 -1.7482
146 1 8.9371 4.40438 5.14039 -0.201274 -0.453343 -0.932005
147 1 5.60838 0.882689 8.51821 0.489404 0.887612 0.151656
148 1 0.84608 4.82727 3.05021 -0.0252453 0.0701548 -0.208222
149 1 5.30649 5.60586 3.81344 -0.69492 1.07144 -1.14784
150 1 8.55675 8.69745 4.3685 -0.160331 1.59488 -0.744571
151 1 3.08126 3.05182 9.35191 -0.942601 1.14395 1.10539
152 1 4.90288 7.65927 4.74905 0.676287 0.221091 -0.100496
153 1 4.50886 2.12668 8.18332 -0.696395 -0.896947 -0.182082
154 1 4.78187 0.36908 8.43656 -0.512255 0.0542233 0.857458
155 1 6.01939 0.113007 0.869096 -0.933078 0.733836 -0.250975
156 1 2.18709 7.91789 3.96723 1.90677 -1.55041 -1.62054
157 1 2.6719 5.32827 2.49109 2.32558 0.410179 -0.38562
158 1 0.136579 7.56734 4.26777 -0.0273407 0.436461 -0.127073
159 1 4.34813 2.2243 7.31584 -0.339929 0.0288115 1.59196
160 1 0.991774 9.20096 4.58699 0.366863 -0.15802 -0.243571
161 1 8.80867 7.88918 1.58311 -0.728863 0.131069 -1.02235
162 1 6.26104 4.95844 7.29733 0.0990131 0.429791 -0.0716515
163 1 9.18441 4.47158 3.4285 -0.842976 1.70108 -0.774043
164 1 0.951029 8.63816 5.53161 0.819355 -0.258765 -0.3561
165 1 1.18633 8.52578 3.94975 0.439531 -0.711641 1.16974
166 1 1.24804 3.14637 0.291369 -1.61978 0.637167 0.575127
167 1 5.15855 6.83855 6.90624 1.2306 -0.419986 -1.0174
168 1 5.32185 4.43795 2.68894 -0.469 0.150588 1.04863
169 1 3.34338 7.95867 5.36257 -0.26333 0.868709 0.827097
170 1 1.10493 8.60561 0.399162 -0.307092 -1.56754 0.94777
171 1 8.18801 4.64866 5.84186 -0.666418 0.742206 0.683985
172 1 1.2531 4.42574 8.74898 -0.568384 -1.00326 1.02307
173 1 6.27735 2.35494 0.459685 -0.659243 0.320752 1.30664
174 1 7.32632 2.76571 6.82319 0.315691 -0.57929 0.120348
175 1 9.02567 3.01193 6.84682 1.0967 -0.151546 1.14269
176 1 4.83501 8.87288 2.35108 0.99025 0.104629 -0.429582
177 1 4.41837 9.35628 1.63324 -0.118104 0.156836 0.103062
178 1 5.26352 0.0794187 5.58568 -0.0439477 0.829659 -0.0575772
179 1 0.136692 7.34273 1.21596 1.16402 -0.17874 0.218133
180 1 0.569597 8.21341 3.33195 -0.767719 -0.243991 0.275598
181 1 7.76237 7.00762 1.78182 -0.253406 0.531717 -0.425988
182 1 1.8161 6.49125 4.35503 0.757645 -0.310306 -0.25427
183 1 5.97419 7.44148 1.81423 -0.536376 -0.692982 0.681931
184 1 2.01234 6.41461 8.05528 0.894265 -0.148551 0.418208
185 1 8.8651 8.98117 6.42159 1.02046 0.55053 -0.936497
186 1 2.74691 7.21975 4.38293 -1.55145 -0.959318 0.810988
187 1 0.191614 2.18678 0.0173837 0.0871195 -0.742006 -0.556719
188 1 8.23532 7.02703 0.303951 -0.0769357 0.65831 -0.429536
189 1 5.30474 5.08855 8.2825 0.301153 -0.600465 2.00272
190 1 7.15005 2.40487 8.02259 1.18692 -0.0622659 0.55629
191 1 3.56857 7.00183 0.638712 1.62546 0.257354 1.03579
192 1 7.40886 3.19504 5.95018 -0.51145 0.392414 -0.857073
193 1 3.44908 1.0437 0.338785 0.394815 0.991319 0.230223
194 1 6.61951 7.09647 4.58391 0.260318 0.598414 0.00447672
195 1 5.60391 4.24632 6.73302 -0.724584 -1.05145 0.708233
196 1 0.996894 7.44328 0.588856 -0.306069 -0.0704358 -0.795653
197 1 4.24232 6.32961 8.64822 -0.0513067 -0.702304 -0.556051
198 1 5.05298 7.3937 0.178768 -0.0949471 -0.209224 0.102494
199 1 7.89768 1.79441 9.15103 0.662864 0.918095 -0.516206
200 1 4.57281 5.40798 3.33051 -0.143411 -0.134952 0.394136
201 1 5.34143 0.884846 3.51288 0.595357 1.77302 -0.0677365
202 1 3.91604 1.72178 9.10552 -1.28857 -0.637815 1.18427
203 1 6.31992 2.87599 5.64273 -0.477847 -1.69481 0.367958
204 1 3.51504 4.64679 0.140115 0.712515 0.679207 2.06474
205 1 6.17288 3.24686 8.45778 -0.521508 -0.847005 0.179025
206 1 6.68185 0.881291 2.03839 0.327613 0.693858 1.5455
207 1 4.14393 5.39477 7.84501 0.0856573 1.25118 0.857552
208 1 4.99794 5.72542 0.744644 0.0797471 1.42249 0.347701
209 1 6.58614 9.10473 2.64174 0.183947 -1.3507 -0.65588
210 1 7.76334 3.0809 4.92982 -0.703429 0.195439 0.48042
211 1 8.17852 2.83419 2.06556 0.307884 0.594988 -1.64525
212 1 2.66956 1.64371 1.14521 -0.026548 -1.31243 0.134536
213 1 4.13457 9.06849 8.45148 -0.121822 0.516692 0.403001
214 1 7.79547 8.18288 1.378 0.11978 0.383142 -1.01924
215 1 3.09017 1.12823 2.4812 0.344341 0.570927 -0.00828294
216 1 1.30033 7.07744 1.40111 0.630175 -1.25344 0.983816
217 1 6.88483 4.89995 7.93096 -0.818502 -0.0875154 -1.34211
218 1 7.35966 2.1534 0.496858 -0.316496 -0.64677 -1.32428
219 1 4.09945 9.18446 5.70549 2.07225 0.625013 0.21242
220 1 7.00869 6.71676 8.64527 -0.168225 1.57903 0.117543
221 1 0.866389 2.37875 5.51462 1.07804 -0.0878488 -0.442574
222 1 2.09442 7.64146 1.84082 0.550411 0.224314 1.3423
223 1 5.4697 2.93039 5.2995 -0.11884 0.645011 0.699006
224 1 3.06001 9.30472 4.16728 -0.474174 -0.0227025 -0.706635
225 1 9.02907 2.1237 0.809982 -1.04508 -0.763992 0.0464042
226 1 8.95141 1.29293 2.39995 0.272083 0.861337 -1.61164
227 1 1.79152 0.518705 5.95634 -0.995622 -0.381422 -1.14899
228 1 8.00809 6.18574 4.8086 -0.315946 -0.611945 -0.820075
229 1 6.62016 6.83398 7.73243 0.0408084 -0.73947 0.011706
230 1 6.84078 1.71945 9.1806 -0.265293 1.02046 -0.134934
231 1 1.91277 8.99975 0.400121 -0.634659 0.71673 -0.255053
232 1 3.34645 5.55411 3.9319 -0.679292 -0.283043 -0.28171
233 1 1.1669 5.18181 5.75132 -0.961434 -0.339652 0.282464
234 1 5.58357 2.66576 3.1644 0.34221 0.632322 -0.364173
235 1 4.9452 5.89829 8.14778 1.11607 -1.38942 1.27597
236 1 4.37514 4.21914 2.13072 -0.10783 -1.15035 -1.01413
237 1 8.2715 1.6324 0.648636 -1.05379 -0.465261 0.14361
238 1 1.94235 3.93561 2.46471 0.340554 -1.12344 1.0046
239 1 5.61956 1.52558 5.13918 -0.412439 0.501083 0.578451
240 1 6.54093 3.86747 5.1448 0.208623 -0.0958493 -0.256453
241 1 5.10784 3.97409 1.61615 -0.118334 1.23431 0.260578
242 1 4.25908 4.54465 7.96676 -0.464727 -0.265884 1.19639
243 1 1.51214 4.65218 3.97515 0.0384477 0.475005 0.599066
244 1 7.96538 5.13811 3.03096 0.530583 -0.683851 0.401141
245 1 3.51865 0.517222 5.75114 -0.233594 0.368078 0.462085
246 1 7.48388 5.22045 6.48409 -0.142787 -0.361793 -0.805032
247 1 3.81193 7.86644 0.267965 1.07523 -0.325285 -0.61024
248 1 3.06333 7.44321 1.83507 0.253569 -0.607132 -0.596141
249 1 0.946107 2.98501 3.7234 -1.11318 -0.226721 0.134705
250 1 3.76443 8.86906 0.895153 0.0349837 0.429725 -0.396891
251 1 5.93918 3.64751 2.06796 -0.295072 0.29264 0.697858
252 1 0.794234 1.1914 4.1524 1.348 0.19031 -0.0189359
253 1 0.896983 1.73527 4.9001 0.137904 -1.28449 -0.236552
254 1 5.53362 6.47631 0.43127 -0.0729485 0.188218 -0.767176
255 1 6.59972 8.1253 4.55045 1.25758 -0.65128 0.598998
256 1 4.63596 5.11806 7.17936 -0.158164 0.227002 -0.776017
257 1 9.08816 3.07734 0.068795 -0.610363 0.683969 -0.571029
258 1 8.69549 1.08319 1.1929 -0.234614 0.365854 1.00095
259 1 5.55262 2.6856 2.17226 -0.498717 0.507383 -0.64906
260 1 2.42527 1.89964 2.00141 0.746895 -1.17623 0.509782
261 1 0.893131 6.64398 9.16756 0.333354 -0.527248 0.074465
262 1 8.73606 7.53281 4.77901 0.164685 -0.334803 -0.184643
263 1 3.67084 5.77723 7.15437 -0.690948 -1.60993 -0.494278
264 1 8.47375 5.45781 3.57344 -0.695587 -0.260983 -0.396279
265 1 1.55103 0.906421 3.48239 0.198592 0.143065 0.931365
266 1 3.30687 0.368419 3.1876 -1.58961 0.750888 -0.384862
267 1 4.26561 0.875762 9.18243 -0.798382 -0.136612 0.0122258
268 1 8.73087 3.47281 7.9748 -0.826414 0.126973 0.293935
269 1 8.65734 2.65593 5.22908 -0.225657 -1.23292 1.41964
270 1 9.03951 4.31425 8.00362 -0.410667 -0.278398 -0.0413079
271 1 2.13715 1.78749 6.28391 -0.163386 -1.42524 0.714937
272 1 2.33055 7.66398 3.10474 0.708811 -0.169602 0.603079
273 1 7.05907 3.5716 7.06153 -0.0154119 0.331056 -0.253068
274 1 0.594908 2.40342 3.01099 0.0843896 -1.23837 0.615434
275 1 1.07293 3.06017 1.31919 1.06794 0.55234 0.0583348
276 1 3.90875 1.33936 5.47061 -1.60812 0.643194 -1.16824
277 1 1.7047 1.59627 1.60805 1.01352 0.198434 -2.06045
278 1 7.5814 3.45373 1.36816 0.181971 0.230902 0.384186
279 1 8.01093 3.24542 4.06054 -0.453612 -0.0428147 -0.0655573
280 1 1.52194 3.00446 7.3051 2.00201 0.215078 -0.639035
281 1 5.82109 4.17552 8.6011 1.51926 -0.63155 0.985551
282 1 0.495768 4.42639 3.97461 -0.299114 -0.152498 0.85637
283 1 8.5154 0.768483 6.9337 -1.27469 -0.775089 -0.0064689
284 1 8.04981 8.61045 7.31362 0.619067 0.5959 -0.135784
285 1 7.71439 3.25509 0.451136 0.638218 -0.825388 0.803954
286 1 0.476088 3.22199 9.23597 0.0335026 -1.04936 0.826696
287 1 8.52052 4.91618 0.680462 0.0894102 0.385094 -0.629006
288 1 7.36642 4.20948 6.11157 -0.688096 -1.4412 -0.0199383
289 1 6.79469 4.70756 4.67093 -0.652434 -1.04171 -0.270575
290 1 6.64234 5.94957 7.95838 -0.00841705 0.322118 0.469501
291 1 5.16207 6.99211 1.27173 -0.266804 0.189414 -0.592298
292 1 1.84206 1.36105 2.57915 -0.709442 0.115621 0.343552
293 1 2.49806 5.79792 3.43158 -0.521269 -0.630392 0.0915905
294 1 6.93082 4.87423 2.04844 0.743493 0.537008 -0.92949
295 1 6.66661 6.82269 3.4431 1.39178 0.00722693 -1.59324
296 1 2.48055 7.08698 2.38111 -0.531759 -0.0322136 -1.50062
297 1 7.9445 6.92476 8.81222 -0.0793028 0.360513 1.09201
298 1 4.08903 4.10782 7.1333 -0.390779 0.793137 -0.514796
299 1 2.49946 3.40389 2.02671 0.519104 -0.989497 0.546771
300 1 7.66368 8.96065 9.27678 -1.14471 0.279151 1.05891
301 1 8.11763 3.22534 7.14553 0.641653 1.6713 0.747673
302 1 9.16116 7.58301 2.37489 0.0240617 -0.35115 0.796282
303 1 6.21281 3.97221 1.24654 0.826703 0.099818 -0.387739
304 1 4.61653 6.13318 5.18454 0.790284 -0.708391 0.941294
305 1 8.93893 1.27417 6.19651 0.96717 0.877063 -2.24816
306 1 7.95789 1.48566 7.34035 0.087505 0.122876 0.643404
307 1 0.569371 1.09702 6.10091 0.230435 0.741084 -0.0149696
308 1 3.73539 6.40087 4.21083 0.179731 -0.203387 -0.799272
309 1 1.40192 6.5073 0.644936 1.41706 1.01942 -0.166278
310 1 3.05923 5.25689 7.92887 -0.0865995 0.273107 -0.423978
311 1 4.26764 0.931992 3.42317 -0.650764 -0.0632122 0.26911
312 1 3.28688 3.84302 7.73095 0.50361 -0.953286 -0.60569
313 1 0.322658 8.07622 1.81028 -0.679139 -0.661691 1.08844
314 1 7.43061 2.24237 4.68172 -0.403169 0.235724 -0.982048
315 1 5.13402 8.36693 7.50429 -1.62347 0.224039 -0.226832
316 1 7.60402 7.00164 4.68241 0.526048 0.296806 -0.574987
317 1 8.86546 5.43361 1.39866 -0.942614 -0.819326 0.268509
318 1 0.82075 1.53349 1.51484 -0.894881 0.352985 1.31706
319 1 5.52517 0.149327 7.77574 0.484529 -0.196418 -0.417781
320 1 2.78359 0.181982 5.63866 0.266819 -0.540832 0.36428
321 1 1.08591 4.84782 4.80717 -2.30994 -0.95858 0.984205
322 1 7.71244 3.48877 7.89783 -0.791424 -0.0416097 -0.352835
323 1 7.15336 7.60633 3.74052 -0.183337 -0.00735176 -0.0701224
324 1 2.2489 8.80477 5.86762 0.17683 0.325897 -0.0489402
325 1 4.53165 2.7993 5.29445 1.36396 -0.497676 0.707781
326 1 3.16471 5.55537 0.222373 1.15915 -0.635322 -0.199298
327 1 4.03933 0.449821 4.2132 -0.806048 -0.366262 0.893186
328 1 8.65451 7.53829 9.12081 -0.0727527 -0.361093 -1.34497
329 1 5.79392 3.04435 4.4106 -0.355366 -0.0951407 1.18113
330 1 2.83388 3.99503 0.123735 -1.94408 -1.14513 0.887277
331 1 2.16905 8.0519 8.18716 0.318519 1.90567 0.0607987
332 1 7.38038 4.28932 5.15219 0.126439 0.378723 -0.562122
333 1 5.45165 6.53689 3.4028 -1.18717 -0.522918 -0.352159
334 1 7.64503 6.32792 1.05693 -0.967114 1.17033 -0.695237
335 1 9.34483 1.14075 3.85615 -0.573081 -0.146272 -0.0939452
336 1 8.08726 4.83668 1.77168 1.18819 0.10473 0.251004
337 1 4.26094 6.93955 9.23687 -0.821242 -1.13701 -0.0288935
338 1 2.58179 8.81036 7.90149 -1.20322 0.454217 -0.48976
339 1 1.09492 0.792014 2.63682 0.130224 -0.90892 -0.937285
340 1 7.51244 6.65282 7.8833 0.185756 1.27783 0.191796
341 1 6.55673 5.49451 4.93398 0.991522 0.218863 0.827523
342 1 5.78041 2.00021 8.13218 -0.577579 -0.424117 0.668006
343 1 1.90699 1.33527 7.55452 -0.483131 -2.10612 0.328741
344 1 5.48163 2.1334 0.993256 1.22621 -1.17431 -0.320104
345 1 7.93921 2.38851 5.81879 0.261662 -0.482445 1.92831
346 1 7.23 5.90821 9.04598 -0.567521 -0.464865 0.122338
347 1 7.27991 9.38593 8.10046 -1.25496 1.00298 0.664032
348 1 6.54994 0.994362 6.14265 0.778255 0.349301 1.77156
349 1 6.96653 2.68282 9.29937 1.16203 -0.61356 0.649318
350 1 6.83565 0.411387 9.40475 0.0139214 0.103853 0.805253
351 1 0.710311 7.46358 2.5927 -0.0869024 0.77129 0.996179
352 1 4.88496 2.21414 2.89761 0.803158 0.0391483 -0.087378
353 1 0.298456 7.06163 3.41961 -1.51735 -0.264352 0.27873
354 1 0.408416 4.06151 1.7492 -0.285316 -0.302983 -0.446363
355 1 7.65433 0.582913 6.68586 0.57301 0.953318 -0.621911
356 1 6.64807 5.9163 5.7219 0.08896 1.12116 0.970641
357 1 8.02022 5.04022 7.77747 -1.67839 0.16873 -0.306829
358 1 2.29158 1.58102 3.67297 -0.052516 0.801761 -0.0123753
359 1 4.53016 7.62292 1.01429 -0.927491 -1.43024 -0.873113
360 1 3.76283 4.99599 5.71392 0.662175 0.117698 -0.192155
361 1 8.15688 7.28691 6.21453 -0.438451 -0.876276 -0.806946
362 1 6.83214 7.85657 0.295502 0.335336 0.196027 -0.583534
363 1 8.33681 2.5273 0.217551 0.569485 -0.0901728 1.48835
364 1 1.31282 3.36917 5.20571 -0.796271 0.288072 0.278961
365 1 1.09399 3.32587 8.46254 -0.243286 0.102994 0.176643
366 1 1.08434 6.71384 3.79884 -0.14963 0.810187 0.213714
367 1 2.51137 9.0811 3.12419 0.607514 -0.217189 -0.30718
368 1 3.89285 3.58161 6.18935 0.26474 -0.80484 0.685054
369 1 7.68572 8.17976 0.231736 0.418114 0.420382 -0.873773
370 1 0.428113 2.3315 1.62879 0.639088 0.197729 -0.407596
371 1 6.03346 8.76687 7.16821 -0.444129 -0.993755 1.90028
372 1 7.31989 6.39781 6.9052 -0.570526 -0.585598 0.676586
373 1 2.70441 4.70155 4.16657 0.276817 0.278853 -0.618414
374 1 2.89927 0.690471 1.70658 -0.57461 0.0294898 1.06895
375 1 6.87284 6.21313 4.36072 -1.21401 -0.305762 0.567807
376 1 8.4401 7.5379 2.84774 0.929867 -0.64052 -1.06128
377 1 7.09411 1.75029 1.70247 -0.53768 0.594479 -0.444769
378 1 0.00182723 9.30279 1.98145 -0.744543 0.124187 0.617804
379 1 0.693986 5.51478 7.33563 0.310312 1.01991 0.209998
380 1 5.69133 3.8061 5.79786 -0.0160805 0.189961 0.0690429
381 1 2.79495 6.15469 4.43001 0.183597 -0.0319174 -0.696205
382 1 7.38722 3.24539 2.42858 -0.958245 0.244678 -0.441718
383 1 3.60183 8.21282 8.03398 0.690789 1.81163 -0.584817
384 1 1.29141 3.90762 7.79705 -1.23677 -1.29412 -1.23214
385 1 3.90136 4.95742 6.59149 0.345783 0.131248 -1.43537
386 1 0.144956 0.370983 7.80254 0.490053 -1.02766 -0.60049
387 1 5.98961 1.06557 7.68679 -0.381932 -0.14997 -0.457667
388 1 3.74255 7.38584 4.2053 -1.58903 1.00515 0.835057
389 1 6.68666 1.69816 7.82633 0.0540148 -1.05119 -1.06298
390 1 5.82167 4.73439 4.88022 -0.0270397 0.389104 1.05476
391 1 8.001 6.95616 7.18573 1.1089 -0.0244882 1.12574
392 1 7.87516 1.1495 1.91746 -0.783679 0.78359 1.61584
393 1 0.910776 8.66013 1.41972 0.30415 0.211912 -0.249911
394 1 3.86364 1.92642 2.98297 -0.336246 0.00993572 -0.421993
395 1 0.421216 2.6115 7.13221 0.045154 1.00652 1.66095
396 1 2.35681 7.31029 8.70311 -0.37736 1.27109 0.489839
397 1 2.18715 3.64463 7.72204 -0.810235 -0.366184 -0.662683
398 1 6.71254 6.73886 2.56547 -1.28672 0.728615 -1.15439
399 1 3.76942 8.6267 4.97646 1.35014 0.174743 0.232897
400 1 5.669 1.80415 3.48963 0.61423 -0.421146 -0.974212
401 1 5.14931 0.279686 2.88505 0.732872 -0.662463 0.398158
402 1 6.07711 4.17989 0.224337 -0.0331006 -0.229846 -0.379257
403 1 8.5561 6.74964 2.53087 0.137354 -0.61197 0.53806
404 1 8.50002 0.187034 0.647459 1.60735 0.672739 0.91497
405 1 3.18934 6.99048 5.23431 0.761186 -0.226903 -0.435881
406 1 0.452226 5.02314 1.65176 1.95024 -0.232538 1.29757
407 1 3.05941 3.36402 1.21374 1.61601 -0.576486 0.188882
408 1 5.36438 5.42168 2.83405 1.31201 0.27587 -0.566251
409 1 5.06891 4.84035 0.350449 -0.531719 0.942917 -1.20903
410 1 8.43773 8.21832 6.19579 -0.405209 -0.086772 0.22011
411 1 3.08266 1.79825 4.88006 1.2463 0.253334 1.57448
412 1 5.64333 4.66068 1.04981 0.452258 1.33613 0.616655
413 1 6.90938 1.0201 6.96928 -0.196947 -0.561017 -0.749021
414 1 1.79333 6.35659 3.08357 0.376382 -0.27828 -0.482316
415 1 4.47307 8.46207 0.638166 -1.86271 -0.00652964 -0.780265
416 1 6.23586 6.88447 5.79059 -1.06445 -0.965022 -0.588383
417 1 5.39882 5.36756 1.75902 -0.198399 -0.142546 0.282853
418 1 4.06814 6.32481 5.84596 -0.100314 -0.177533 -0.366984
419 1 4.90304 7.05213 7.87789 0.533897 0.123676 0.889177
420 1 7.85275 6.30841 9.37198 -0.189518 0.951409 1.82752
421 1 1.62225 0.140465 1.10127 0.0709178 -0.260589 -0.204891
422 1 7.25028 6.44354 5.2034 0.282635 -0.268121 -0.677507
423 1 6.1916 0.426626 3.14229 0.26524 -0.472766 -0.596317
424 1 0.22289 0.601079 2.64694 -0.0999887 -1.49834 0.213113
425 1 3.49879 8.92849 6.3356 -1.84426 -0.454373 -0.197593
426 1 7.57882 6.4593 2.6011 -0.486469 1.68221 0.524779
427 1 0.81296 6.87062 6.44701 -0.597995 -0.653023 -0.302891
428 1 8.67995 8.15204 7.99293 0.947942 1.57112 0.198857
429 1 6.56705 4.80477 1.25866 -0.761825 -0.0581882 -0.853997
430 1 7.70871 7.89622 6.75691 0.167491 -0.569662 -0.549744
431 1 4.71915 7.44415 1.88142 -1.07257 -1.097 -0.770954
432 1 5.21571 9.41708 6.5897 -0.681312 0.729993 0.287641
433 1 3.41287 7.1771 2.59468 -0.442733 -1.03775 -0.271195
434 1 4.51084 4.62842 5.05651 -0.517399 0.388871 -0.709702
435 1 2.71806 3.13284 8.34778 -0.00948187 -0.634773 0.550308
436 1 8.87783 2.94056 3.66647 -0.219344 0.850506 -1.86898
437 1 7.0951 4.43856 0.184451 -1.01398 -0.207822 -0.897716
438 1 7.06572 7.24461 6.94272 0.545157 -0.0611165 0.297463
439 1 3.38929 0.778294 8.6651 0.922183 0.52437 -0.453842
440 1 6.3736 7.66523 7.2159 -1.33627 -0.808822 -0.525912
441 1 4.37669 2.2286 3.68936 0.177122 -1.91781 -0.609758
442 1 4.1193 1.30271 4.32615 -0.677341 -0.957449 -0.743374
443 1 7.23649 7.04235 6.00576 -0.625135 -0.55933 -0.19772
444 1 3.434 6.63108 6.42875 1.20713 0.26136 0.347577
445 1 7.2381 1.6894 4.0278 0.512195 -0.1114 -0.495055
446 1 5.815 9.37426 8.65863 0.267723 0.907612 -0.667713
447 1 3.263 6.97027 8.52014 -0.138239 -0.272297 0.0961934
448 1 5.33902 2.68618 9.3541 0.101917 0.0374081 0.617811
449 1 7.47035 4.94179 8.72283 -0.113391 1.77663 -0.830701
450 1 4.18323 5.14516 8.77168 0.316555 0.205305 0.205909
451 1 8.17184 3.06909 2.91161 -0.455763 -0.77452 0.851152
452 1 0.399397 6.80228 1.99041 1.34234 -0.434079 -0.0432429
453 1 0.798821 -0.0420296 0.934031 0.15119 -0.887938 0.88932
454 1 3.94508 8.71818 2.44137 0.558693 -0.141626 -0.94914
455 1 6.91283 1.94764 6.44462 -0.237025 1.84734 1.22265
456 1 8.00426 7.83768 4.24145 -1.42581 -0.354073 0.996433
457 1 9.1045 5.13707 6.83581 -0.265431 -1.68006 -0.937124
458 1 4.6926 7.58725 6.34043 -0.238024 -0.699596 -1.01338
459 1 2.54603 6.11242 8.78185 1.13458 -0.684861 0.138917
460 1 4.60356 8.34314 3.08644 0.24055 0.223179 -0.378432
461 1 4.14637 7.74807 5.11893 -0.0626188 -0.603334 -0.253908
462 1 4.47231 3.1696 8.6986 0.978293 0.691205 0.0836412
463 1 1.874 5.63763 6.01096 0.661168 -0.617559 -0.397443
464 1 0.602301 2.01633 6.45622 0.862662 -0.176558 -0.140023
465 1 7.29599 7.48314 2.90618 0.577218 -0.751563 -0.64542
466 1 0.264009 0.759751 1.45404 -0.326941 -0.858532 -0.153048
467 1 0.816376 5.02273 0.725727 0.0938091 0.0190665 -0.173709
468 1 4.05295 4.28522 1.19741 -0.143271 0.49437 0.792446
469 1 8.01997 9.37193 5.42796 1.20148 0.594073 0.279889
470 1 8.04269 5.72281 6.95161 -0.336232 -0.192048 0.267236
471 1 4.95921 1.12958 1.92131 1.299 -0.325127 1.02831
472 1 6.19403 9.40258 1.89843 -0.126155 0.651996 0.52222
473 1 9.1302 6.52949 6.40404 0.1504 1.04729 0.156748
474 1 8.38731 4.18379 4.44973 0.296084 -0.200788 0.788917
475 1 4.33033 6.05335 0.136051 -0.754981 0.298669 0.584235
476 1 6.23987 3.36571 7.42731 1.9225 0.57334 -0.98569
477 1 5.22784 3.80972 9.26787 0.77624 0.63921 -1.47444
478 1 0.78091 2.22127 0.72589 1.29383 -0.23382 0.388268
479 1 7.29807 7.71297 8.93004 -0.57184 -1.16271 1.48679
480 1 0.817903 0.903178 0.409121 -0.156118 0.135282 0.58661
481 1 1.7908 1.20823 4.38948 -0.721538 -1.04846 -0.773735
482 1 4.2309 0.436435 0.622804 0.632702 0.387909 0.500208
483 1 1.78337 8.11367 0.884294 -0.536091 -0.0995928 -0.197799
484 1 3.2892 3.92449 4.41788 0.228441 0.391158 0.246132
485 1 1.92332 2.07714 0.622632 -0.907071 -0.667977 -1.71664
486 1 8.95008 2.46032 7.85809 1.87795 -0.932175 -1.40545
487 1 6.96399 2.82976 3.70681 -0.548157 1.0939 -1.23238
488 1 0.317896 1.91146 8.1165 -0.167898 -0.616752 -0.2168
489 1 8.2904 8.38276 8.89199 0.849449 0.847751 -0.755176
490 1 6.49212 0.274976 7.92166 -1.04094 -0.649643 0.0258293
491 1 8.97124 7.57055 5.67559 -0.301001 -0.805817 0.443352
492 1 3.09781 0.28537 0.861493 2.03788 -0.298476 -0.360233
493 1 8.77118 4.49522 8.96687 1.27601 0.683492 0.0400238
494 1 8.74165 9.3623 2.68508 0.790732 -0.742571 0.444869
495 1 8.51939 6.98899 1.29877 -1.3498 -0.312898 1.09562
496 1 1.93379 8.59374 1.67375 0.853216 -0.883945 0.55688
497 1 2.70399 2.59728 5.81505 0.189663 -0.22483 -0.572704
498 1 9.27649 6.32976 5.44743 0.00914081 0.372379 0.700541
499 1 5.96251 1.62063 6.49419 0.296334 1.27906 0.368989
500 1 1.30294 1.33236 6.61191 -0.86217 -0.211929 -1.56058
501 1 1.83827 3.83088 0.200928 -0.0301648 1.08806 0.885278
502 1 0.419124 1.78032 2.42543 -0.574729 -0.469794 -0.410193
503 1 6.44149 2.08078 4.10797 1.47155 0.0691863 -0.728421
504 1 0.223468 8.25666 6.01827 0.395547 -0.81554 -0.457762
505 1 7.11851 3.84271 3.37265 -1.49665 0.0691069 0.665474
506 1 2.66021 3.49807 3.78718 -0.00538679 0.62248 -0.449963
507 1 1.36846 6.34917 5.31655 0.251421 -0.697662 -0.414141
508 1 7.30874 2.2915 2.5844 -0.567522 -0.242797 0.0251412
509 1 6.42166 2.51119 7.59549 -0.0445223 -1.47357 -1.83359
510 1 8.63755 0.789928 3.24094 0.786233 0.386298 -0.14113
511 1 0.908227 0.895691 7.9768 0.277916 -1.11609 -0.957131
512 1 7.57499 0.374055 8.96286 0.135174 0.745166 0.209044
513 1 4.99413 8.68197 8.42399 -0.384727 1.28654 0.817847
514 1 9.42444 4.6251 0.790119 1.85705 1.0273 0.467472
515 1 2.11294 2.98158 4.96927 -0.0556563 0.127459 0.522196