ITEM: TIMESTEP
386050000
ITEM: NUMBER OF ATOMS
1000
ITEM: BOX BOUNDS pp pp pp
0.0000000000000000e+00 9.4000000000000004e+00
0.0000000000000000e+00 9.4000000000000004e+00
0.0000000000000000e+00 9.4000000000000004e+00
ITEM: ATOMS id type x y z vx vy vz
1 1 3.53275 5.02 1.12753 -0.205663 1.54981 0.01862
2 1 5.00724 3.49193 8.52453 0.876751 -0.835053 -0.117664
3 1 1.19118 8.02394 7.97886 0.934602 -1.40705 -0.717164
4 1 9.12619 8.58361 1.07975 0.0436364 -0.302909 1.4372
5 1 3.0296 6.14648 4.74686 -0.202433 -0.84284 1.50325
6 1 5.60678 5.36921 5.12465 0.348052 1.29851 0.414351
7 1 7.0645 2.59338 3.13501 -0.138203 -1.04144 -1.26299
8 1 8.47052 8.59285 5.85071 0.873942 0.0951878 -1.21708
9 1 4.09355 2.68367 0.182763 -1.57394 -0.962355 -0.23955
10 1 4.93088 4.1816 6.09748 -0.0660801 -0.820184 0.441743
11 1 5.43434 3.48227 5.50294 -1.82855 -0.532736 0.196132
12 1 7.77468 8.11621 3.90869 -0.442409 0.71157 0.27673
13 1 1.06089 2.35282 4.55674 -0.46204 -0.582341 0.116793
14 1 5.96175 7.36671 3.32118 -0.0659119 -0.119458 -1.56059
15 1 4.83635 8.37749 7.25597 -1.2891 -0.77703 0.494885
16 1 1.70288 9.18347 9.09122 0.245648 0.444575 -1.05141
17 1 2.98865 3.8441 4.45449 -1.18328 0.274428 0.346509
18 1 6.6016 2.27538 0.978328 1.65868 -1.01463 -1.35834
19 1 4.77005 1.21871 0.260789 -0.348027 0.110482 -1.04249
20 1 2.42248 2.93049 8.81832 -0.208121 0.850333 -0.388702
21 1 9.2604 1.47507 8.02999 -0.887579 -0.480797 -1.31188
22 1 3.03644 1.13785 4.10611 -0.498404 -0.338193 0.132913
23 1 0.765743 6.6059 4.88843 0.684821 -1.17378 0.240456
24 1 4.11362 8.26086 4.53538 -0.126661 0.663595 -0.449583
25 1 8.11876 1.63443 9.11864 0.231227 0.146351 -0.451004
26 1 5.48413 6.78117 2.54573 1.35098 -0.98001 2.00913
27 1 1.55156 6.70929 5.36597 0.738427 0.95264 -0.543208
28 1 7.94056 8.17485 8.84821 -1.39407 0.356234 0.671598
29 1 7.27899 5.17994 8.35882 0.307446 -0.440387 -0.65683
30 1 1.47349 5.55746 6.82815 0.0220298 0.918689 -0.283836
31 1 6.00415 4.6206 2.88429 0.288734 -0.288408 -0.0726782
32 1 6.54394 6.41751 3.43648 0.239465 -0.621917 0.0821397
33 1 0.986655 2.74643 5.34219 -0.802647 -0.168998 1.12235
34 1 0.772103 4.76877 9.23975 0.041035 -0.286334 -1.70228
35 1 5.24442 8.08315 4.22237 0.69469 -0.511332 -0.502658
36 1 6.65026 0.491869 5.84062 -0.340543 -0.969825 1.1808
37 1 1.25198 4.44358 7.97692 -0.429688 -1.11803 0.627465
38 1 3.05203 0.537937 6.15167 -0.491992 0.995857 0.665589
39 1 3.65858 9.30634 6.0206 0.169159 0.00837782 0.690739
40 1 0.993568 3.00078 3.11053 -0.769307 -0.65173 -0.649803
41 1 3.59291 2.77964 3.74405 -0.617549 0.0498728 -0.104053
42 1 8.69754 5.32481 2.27113 2.01774 -0.46404 -0.109802
43 1 8.94203 2.38786 7.54206 -0.275934 -0.284235 0.156698
44 1 4.64542 7.85575 6.44081 0.6053 -0.089124 0.514952
45 1 0.318239 4.66728 8.14282 0.354204 1.97583 1.58744
46 1 5.01712 4.36627 5.06011 -0.127446 -0.496221 -0.378256
47 1 2.50934 0.180393 1.15133 -0.663819 0.878374 -0.583702
48 1 8.81607 6.29107 7.36823 -0.048149 0.907473 0.0492848
49 1 6.69182 8.85718 3.16336 -0.516527 -0.73063 0.363672
50 1 6.50764 9.30717 7.16266 0.131066 0.643234 -1.48434
51 1 7.19876 5.31508 5.81886 0.396113 -0.650039 -0.350145
52 1 3.2758 7.7882 0.390951 0.0881147 0.345947 -0.235133
53 1 6.83923 6.77807 8.74313 -0.542692 0.143646 0.305945
54 1 5.26535 9.07833 1.77942 -0.404261 0.429033 -0.0632627
55 1 7.71559 6.92628 0.166858 0.204809 0.0746424 0.141147
56 1 7.54138 5.91484 7.84222 -0.264598 0.243092 0.455765
57 1 7.16948 2.20173 0.109937 -0.417685 1.10734 -1.14505
58 1 2.79537 8.31777 1.9481 0.713134 0.432819 0.0851164
59 1 0.28369 7.43946 0.86537 -0.655104 -1.0453 0.71764
60 1 0.398266 3.51749 2.43158 -0.296578 -0.835355 -0.168608
61 1 7.13041 0.532648 6.78399 0.513077 -1.03296 -0.319168
62 1 8.87998 3.29064 7.39405 -0.211554 -0.247448 0.688314
63 1 8.38178 7.5295 0.622657 -0.216308 0.847951 0.520555
64 1 2.61 5.96864 8.25701 0.953554 -0.522103 -1.09209
65 1 9.30699 3.70583 5.42075 -0.136913 -0.254382 0.718127
66 1 7.7073 0.0680909 8.36342 0.200465 -0.471106 -1.63188
67 1 6.33474 8.33195 7.27105 -0.272347 -0.778632 -0.519219
68 1 5.60146 6.52779 4.49083 -0.763676 -0.389551 -0.0527502
69 1 8.48007 7.51466 9.13538 0.612592 -0.428659 0.0434562
70 1 2.1374 8.50479 1.33644 0.576617 -0.0680742 1.0241
71 1 7.42257 7.24387 8.25666 -1.14309 -0.251436 -1.15913
72 1 5.69802 2.80641 2.69978 0.353097 0.458977 -0.521217
73 1 2.86575 5.38428 6.49733 0.516698 -0.731383 0.928861
74 1 1.51966 6.50115 6.49697 -0.951091 -0.497638 0.161293
75 1 9.33265 6.84888 4.09437 0.366205 -0.466134 0.480415
76 1 7.10023 7.65047 9.05656 0.183721 0.910927 -0.710852
77 1 7.33025 1.35392 7.41153 1.75636 1.78158 -0.291141
78 1 1.1166 5.68807 4.74906 0.803249 -0.244853 0.733735
79 1 3.71972 0.238676 7.78168 -0.0489972 0.622328 -0.715181
80 1 0.174865 9.0966 8.51998 -2.10941 -0.563674 0.708958
81 1 5.58499 4.59334 0.703565 0.133937 -1.35273 0.326907
82 1 2.27616 6.72431 3.05778 -0.72483 -0.0612737 1.08056
83 1 8.92438 5.07824 0.342852 0.778871 0.151719 0.744469
84 1 0.259609 5.85552 4.47977 -0.129863 -0.612381 0.0381121
85 1 6.49959 5.01252 0.576271 -0.399646 0.483138 0.336665
86 1 4.77472 8.84645 4.29863 0.560018 0.163833 0.355559
87 1 6.81864 9.07274 4.7162 -0.817023 0.552599 -0.868567
88 1 3.2417 7.49445 3.23497 0.435763 0.522063 -0.499918
89 1 6.57068 0.845961 7.75477 0.642345 -0.135623 -0.073863
90 1 8.06895 8.72049 2.34414 0.611856 -0.335031 -0.840275
91 1 0.416013 1.74707 0.759259 -1.03886 -1.44539 0.180329
92 1 6.70282 0.266565 2.79805 -0.761281 -0.710323 -0.403236
93 1 2.43028 4.27973 5.10392 -0.0243443 0.0397504 -1.64798
94 1 0.247767 8.97101 7.55466 -0.211254 0.145811 0.55461
95 1 6.86263 0.577646 8.50737 1.49905 0.0579194 1.95622
96 1 1.28566 5.17217 8.36663 1.67357 -0.247008 0.274944
97 1 1.46436 7.2313 4.51354 -0.431821 1.01465 0.774834
98 1 6.51153 4.68507 6.50216 0.613444 0.42752 -0.318145
99 1 4.19848 4.91089 8.22914 -0.0470847 -0.670403 0.942909
100 1 8.92893 3.32802 2.44075 0.541191 1.12999 0.238973
101 1 7.34577 7.61657 7.45103 -0.667143 0.142504 0.642423
102 1 4.2291 7.33004 3.59547 -0.347344 0.0420162 -0.38135
103 1 1.25338 8.52195 1.51484 1.41292 -0.704902 0.141091
104 1 2.27351 5.2648 8.93677 -0.0571975 -0.540442 1.48201
105 1 7.60306 4.38583 6.74919 -0.32737 0.600689 0.158767
106 1 5.62743 8.29276 8.72697 1.42734 0.253802 -0.89204
107 1 4.17162 4.49663 5.69209 -0.375278 -1.53995 -0.93201
108 1 3.01095 8.72144 0.998909 0.80632 -1.19538 0.530948
109 1 1.36376 3.05809 0.00168298 0.639503 0.628402 -0.00898756
110 1 5.54372 6.45455 1.6248 -0.37414 -1.14635 0.934088
111 1 8.01434 6.60829 2.94524 -1.13694 -0.726212 0.316777
112 1 6.86257 1.84184 2.2825 1.14982 -0.237492 0.0704378
113 1 5.55223 8.17423 5.93643 -0.42663 1.91235 -0.714167
114 1 4.07601 8.24649 0.543843 0.151817 -1.17111 0.332815
115 1 2.25832 3.08226 0.550091 -1.12651 1.43694 0.268593
116 1 8.11162 1.70858 7.94108 0.4823 0.26156 -1.52242
117 1 5.15351 2.76522 6.58022 0.452678 -0.850603 -0.663928
118 1 1.6944 8.78179 6.40624 -0.138937 1.48757 1.24972
119 1 8.14183 6.69654 7.86451 -0.205057 1.33129 0.812808
120 1 6.91489 6.54862 7.35654 -0.00986082 0.094557 -0.753175
121 1 5.87715 3.11297 0.497303 -1.4311 0.298177 1.27936
122 1 0.500235 4.14541 6.42474 -0.385945 -0.367286 -0.738654
123 1 1.18958 8.98137 4.47352 -0.60722 0.0164203 0.927056
124 1 2.63569 8.38424 0.076844 -0.216194 0.198841 1.37702
125 1 0.862967 8.93334 3.39274 0.0358237 -0.466644 0.602068
126 1 6.41563 8.05609 4.90696 0.990148 0.0272714 0.004409
127 1 4.71176 6.62249 1.97024 -0.106468 0.285128 0.887632
128 1 7.77539 0.719749 9.06501 -0.172851 -0.363191 0.78441
129 1 6.65881 1.03233 1.87151 -0.858514 -0.533557 -0.444505
130 1 5.21581 5.55052 7.77347 -1.09991 -0.489621 -1.34151
131 1 5.60214 1.48558 1.36126 0.161161 -0.734472 0.400544
132 1 4.81773 0.250847 5.79123 1.05604 -1.25604 0.511812
133 1 3.73095 8.7696 5.12381 -0.211084 0.676505 0.858329
134 1 9.27031 3.4363 6.26567 -1.49541 0.782536 0.297487
135 1 5.98452 3.9443 4.03796 -0.570056 0.546043 -1.56244
136 1 5.02247 3.82482 4.23873 0.805328 -0.721392 -0.199082
137 1 2.54204 4.44228 0.220517 -0.461297 -0.258132 0.4274
138 1 4.21012 8.02825 5.62517 0.074974 1.10824 0.486434
139 1 2.1033 3.76032 4.27994 0.916695 -1.61095 1.46794
140 1 3.58214 4.47792 2.36132 0.27021 -0.677781 -0.59731
141 1 0.539081 4.29613 7.2619 -0.328036 0.946094 0.711586
142 1 2.64618 3.45245 6.24678 -0.649303 0.0714242 -0.137967
143 1 1.31116 1.40883 0.375729 0.632598 -0.141682 0.320592
144 1 2.78143 1.81522 3.5632 0.0463774 0.23509 0.147747
145 1 3.14071 8.93867 7.82953 -0.598638 0.0949468 -1.77688
146 1 2.56706 4.73014 2.79565 0.736831 0.0470071 0.557265
147 1 7.01019 7.67508 3.32291 0.922121 0.666293 -0.919847
148 1 2.54589 7.3409 1.72867 0.631421 0.865407 -0.633305
149 1 1.80036 3.73451 5.22702 -0.948577 -0.947109 0.680228
150 1 8.47012 2.83448 6.58199 -1.38233 0.608028 1.82798
151 1 1.54899 1.39516 2.39151 0.0817031 -0.634603 0.145859
152 1 8.2206 4.59333 1.62784 -1.23161 1.10875 0.0516333
153 1 1.18728 3.89918 0.186294 -1.76423 0.0735482 1.38615
154 1 2.11132 0.665704 2.58316 -0.964454 -0.182007 -1.51808
155 1 0.13203 9.16732 5.9694 -0.211246 -0.0699454 0.23859
156 1 8.11242 6.91115 1.69885 -0.348172 -1.50205 0.981213
157 1 0.483818 1.29312 4.38948 0.330379 0.463634 -1.25364
158 1 4.54018 1.10812 4.03563 -0.592851 0.635599 -1.01768
159 1 5.04812 8.8543 5.1984 -0.0664048 0.505854 -0.548874
160 1 5.19683 4.76663 3.86843 -0.443275 0.960328 -0.124999
161 1 5.97443 6.30461 5.42197 -1.27514 0.987804 -0.178751
162 1 1.86581 2.27359 9.09016 -0.600909 0.996468 -0.0330049
163 1 3.74136 0.888829 0.0203086 -0.0743353 0.158342 -0.830482
164 1 8.96432 9.15962 5.19262 0.623468 0.889347 0.829601
165 1 5.36146 7.4089 1.95778 0.0153813 -0.342299 1.28648
166 1 1.26809 5.77411 5.87229 -0.519792 -1.99122 0.218395
167 1 3.6366 4.22945 1.4763 -0.0258876 -0.359972 0.242083
168 1 7.04238 6.96003 2.78041 0.232196 -1.14221 0.193418
169 1 0.46891 1.28474 7.32147 0.545566 -0.889641 1.00505
170 1 7.31838 6.22738 1.17685 -1.51894 0.51607 0.998812
171 1 6.0557 8.39814 1.6762 1.30592 0.265506 -0.47788
172 1 6.44234 8.59033 6.31906 -0.0946704 -0.420137 1.54343
173 1 0.892059 8.21046 5.90463 -0.0549057 -0.52898 -0.19927
174 1 1.72244 2.28518 6.42681 0.187111 0.109422 -0.515598
175 1 8.43374 0.617045 8.437 -0.0459581 -1.13257 0.72748
176 1 1.82341 4.81651 6.88112 0.558307 -0.0523779 -0.68138
177 1 2.06224 3.71304 9.26297 -0.395348 -0.931565 0.635395
178 1 0.522703 5.3269 0.566785 -0.701472 -0.36216 0.741153
179 1 2.33714 8.11246 6.34578 0.675263 -0.351644 -0.581713
180 1 9.26086 4.42488 1.06333 1.39059 -0.175016 0.58672
181 1 8.0971 4.65147 4.27818 0.0322915 0.634875 -0.126555
182 1 8.44111 9.20539 7.64382 -0.279496 -0.424984 1.23684
183 1 4.40531 8.84297 5.87428 0.584633 -0.818792 0.986056
184 1 6.44463 6.41994 4.53386 -1.14355 -0.46989 0.65443
185 1 5.19728 3.23065 7.31042 0.109763 0.0755304 0.531465
186 1 8.28477 6.58386 8.86609 0.281705 0.45885 -0.442487
187 1 1.91702 5.1305 3.17128 -1.36038 -0.318936 -0.312864
188 1 5.84482 0.614235 1.94109 -0.89945 -0.96801 -0.0305595
189 1 7.92963 4.94658 6.02591 0.66769 1.02878 0.795541
190 1 8.00341 3.59437 1.19798 0.419121 -0.932014 0.325358
191 1 6.1271 2.88398 7.53698 0.667766 0.241019 -0.742662
192 1 8.50153 5.47991 3.97614 -0.236327 -0.450607 0.605109
193 1 8.46355 3.94497 3.11496 0.748985 -0.272646 0.302233
194 1 0.194143 5.27099 2.51811 -1.14281 0.243383 -1.01718
195 1 8.75263 7.0409 6.60752 0.421075 0.830798 1.33695
196 1 2.07437 4.00049 3.32131 -1.80151 -0.464637 0.437326
197 1 8.40849 5.65809 3.14029 0.489984 0.148116 -0.806434
198 1 3.97651 3.12918 8.75116 1.99085 0.386932 0.457769
199 1 3.97596 6.13751 1.34127 -1.09703 0.319889 0.114154
200 1 3.89933 6.1315 3.26384 -1.26136 -0.181775 0.316231
201 1 5.06671 6.63964 5.26223 0.185296 0.545087 0.374612
202 1 5.04848 5.00185 8.49684 0.518236 -0.405529 0.959392
203 1 0.138436 2.95683 4.90601 0.653575 0.186566 1.01414
204 1 8.59868 0.421307 2.48918 -0.134023 0.280692 0.621596
205 1 5.96637 1.04793 8.52326 0.504883 0.397437 -0.808971
206 1 5.90568 2.08578 5.40363 0.213891 -1.15286 0.150476
207 1 8.66342 6.6066 0.209564 -0.0286997 0.0374332 0.220244
208 1 5.5221 2.76072 9.1887 0.458368 1.11006 -0.391112
209 1 9.30749 0.69638 5.90042 -0.134569 -0.352366 -0.840602
210 1 0.607963 2.122 3.60142 0.700807 0.775256 0.307704
211 1 7.30829 9.06822 3.69251 0.158942 0.0556487 0.0671288
212 1 1.38195 4.31224 4.45703 0.491411 0.293902 -0.298965
213 1 4.19346 4.67788 4.58818 0.286187 0.230797 0.528685
214 1 4.8519 5.70818 3.86009 0.359109 0.711498 0.633534
215 1 2.9003 6.18205 1.00723 0.886098 -0.828739 1.23496
216 1 9.15493 0.241122 4.3603 -0.0575934 0.449086 0.764735
217 1 6.45462 6.07832 1.33173 1.2937 -1.25394 -0.859087
218 1 6.69752 2.85425 5.33094 0.422915 -0.393005 0.477601
219 1 4.36695 5.21439 9.19642 0.635776 0.422128 -1.43114
220 1 6.45992 5.67042 9.02762 -0.0386694 0.877477 0.824406
221 1 9.18511 1.60122 5.87997 0.50924 -0.793487 0.327629
222 1 8.65486 3.36363 0.604703 0.53037 0.890998 -1.22217
223 1 4.44343 5.79999 8.35096 0.941698 -0.768994 -0.174792
224 1 6.95473 3.61161 6.57354 -0.929326 -1.70276 0.649572
225 1 5.69666 4.41505 5.75042 0.374815 0.999982 1.6506
226 1 5.97245 9.33717 8.62947 0.508057 -1.01632 -0.240171
227 1 7.65465 5.32192 1.47245 1.76743 -0.695814 -0.15231
228 1 3.222 5.63843 5.6013 -0.599584 1.09957 0.154227
229 1 0.629704 4.84016 4.55153 0.505558 0.993167 0.312719
230 1 0.746237 4.46106 0.830255 -0.382645 -1.05927 -1.12819
231 1 9.33253 7.28876 8.59212 -0.684375 0.198372 -1.20402
232 1 6.03417 5.56579 6.28443 0.232055 -1.40774 -0.621004
233 1 2.76092 4.38991 1.42772 0.555778 -1.14358 0.152732
234 1 3.14904 1.44054 8.99213 1.41938 0.796904 -0.956299
235 1 3.20465 8.66707 3.69787 0.0981823 -0.0534424 -0.155399
236 1 4.38006 7.29255 4.69939 0.300857 -1.37342 -0.373648
237 1 2.17296 2.14692 7.24842 -0.43246 0.280469 0.109194
238 1 0.202816 7.90971 9.32838 -0.440349 -0.799638 -0.556683
239 1 0.126476 2.65747 2.02085 -0.559107 0.400389 -0.0366487
240 1 3.39637 9.2151 6.83987 -0.302288 -0.501677 0.0580164
241 1 2.14108 9.19635 5.13608 0.826924 -0.228924 0.0687741
242 1 1.18166 4.72575 5.97139 -1.69406 -1.44795 -0.191124
243 1 4.13163 1.26067 7.49771 0.0921405 0.590741 -0.513224
244 1 8.16938 5.19936 8.96813 -0.898068 0.974517 -1.38874
245 1 8.13057 9.1192 3.24885 0.437089 1.01104 0.0683143
246 1 6.3297 6.42906 8.01017 0.544083 0.00257507 -1.30622
247 1 3.96264 9.192 4.27296 -1.14552 -0.80417 -0.784893
248 1 1.17834 3.5547 7.68616 -1.3365 -1.26544 -0.401361
249 1 1.92084 0.766265 0.84224 0.441223 -0.227291 0.170229
250 1 6.5246 8.18427 8.10454 -0.0698567 -0.146348 -0.682533
251 1 3.45362 7.80505 4.09732 0.518583 -0.387883 -0.075502
252 1 1.29241 4.57214 3.49579 -0.525466 0.397454 -0.892794
253 1 8.95735 4.21324 7.18688 0.0741695 0.447004 0.684284
254 1 3.28267 9.16934 1.80205 0.846507 -0.209734 -0.826837
255 1 2.58368 8.8794 8.52608 -0.589267 -0.292036 -1.07902
256 1 7.28313 3.47477 9.03157 0.0892534 0.00795594 -0.767159
257 1 6.94895 7.85094 6.68526 0.38025 -0.685891 0.725584
258 1 2.13521 3.40571 2.50515 -0.912958 -0.05237 1.22101
259 1 3.59438 1.18347 4.77377 0.0174812 -1.51629 -1.99468
260 1 8.77601 3.81072 1.66932 -0.215393 -0.490663 0.117428
261 1 6.72323 0.464328 0.930865 1.01788 0.248749 0.311292
262 1 4.3197 8.77533 1.10999 0.779737 0.510289 0.758535
263 1 3.64114 6.61525 8.21888 -1.11303 0.0368671 0.193049
264 1 7.43411 0.1405 5.19727 -0.0301605 1.2588 0.457766
265 1 6.63035 4.1775 7.33279 0.531519 -2.04182 -1.09995
266 1 7.65936 6.04713 6.19751 -0.0755395 0.32206 0.0378708
267 1 1.36541 4.80548 1.43342 1.36801 0.328833 -1.71944
268 1 4.39869 7.40101 1.50413 1.05405 0.488574 0.657641
269 1 8.39558 0.461422 3.64289 -0.378215 0.0547418 0.639214
270 1 7.4124 8.46004 2.93776 -0.404014 -0.14108 0.309191
271 1 4.78901 2.10448 3.8287 -1.37158 -0.176912 -0.0749932
272 1 8.72755 2.05852 8.54514 -0.0973719 0.426772 1.14925
273 1 5.85863 7.90636 0.820779 -0.120127 -0.20613 0.615684
274 1 4.74355 2.61396 8.89471 0.62808 1.02664 -0.301337
275 1 5.37527 9.12398 2.64958 -0.326226 -0.0328977 0.577249
276 1 6.04244 5.57215 4.36595 -0.277451 -1.81191 -1.77478
277 1 1.92167 4.1842 0.859311 0.0261662 -0.170542 -0.501626
278 1 5.78418 3.86173 7.75551 0.297706 0.248972 1.45633
279 1 1.19747 9.08643 5.42618 -0.0677918 0.728751 -0.494984
280 1 2.19463 5.85488 4.88154 0.646594 0.0748898 0.298346
281 1 3.46309 7.86288 5.18477 -1.54002 -0.77959 0.424042
282 1 2.2653 1.52508 1.89081 -0.31938 -1.39763 0.648086
283 1 6.34726 1.77994 7.10396 0.475454 1.74668 0.772352
284 1 8.82457 4.36739 4.767 -0.321532 -0.227028 1.23092
285 1 5.07296 1.61396 7.84552 0.342111 0.530459 -0.129744
286 1 0.930521 6.59743 1.07992 1.0619 0.47341 -2.41373
287 1 3.7189 3.35611 0.79177 -0.122824 1.16187 0.49974
288 1 4.58446 1.30517 1.54725 -0.176779 0.0366102 -0.221845
289 1 1.79513 8.37973 2.2653 0.513503 -0.129105 -0.243741
290 1 3.27968 4.49665 3.29154 0.791571 1.33242 0.252328
291 1 3.06848 0.791339 7.45433 0.0117058 0.251567 0.816098
292 1 4.83706 4.54105 0.0728585 0.320464 0.0887308 0.0239259
293 1 9.00853 8.24742 4.80487 1.59554 0.292161 0.0165752
294 1 1.14877 3.07956 2.26035 0.765275 0.766824 1.011
295 1 2.07397 9.04288 4.23295 0.373594 0.795913 0.671393
296 1 9.12 8.11996 3.98994 1.08798 0.950416 0.369604
297 1 6.49215 5.54634 3.01432 -0.39356 1.7088 -1.42584
298 1 2.03585 3.15669 6.96134 0.236081 0.156874 -0.144462
299 1 8.61849 0.0826558 6.29818 -0.357866 1.77747 -0.355771
300 1 3.12175 3.7592 7.04425 -0.267085 -0.240719 -0.059728
301 1 0.186021 5.57634 7.80903 -1.23299 0.653223 0.774957
302 1 5.94682 0.526385 4.24776 -0.296103 -1.37604 0.54796
303 1 5.81583 3.91284 2.32412 0.64697 -0.309487 -0.643939
304 1 7.78325 3.94984 1.98803 0.844276 0.0300973 -0.218781
305 1 4.52369 3.30503 5.86913 0.953971 -0.153829 -0.0971244
306 1 5.45242 1.2658 4.49181 1.48143 -1.00198 -1.09688
307 1 2.71251 7.63676 4.84123 -0.0253903 -0.0697166 -0.769998
308 1 0.122862 6.8685 1.69675 -0.802894 -0.0991475 1.58801
309 1 7.33017 5.96313 8.85819 -0.584935 -0.145275 -1.75499
310 1 1.57422 2.07719 3.53382 0.0599309 -0.168134 0.234156
311 1 3.00735 3.67237 5.39252 -1.04707 -0.0311838 -0.190831
312 1 1.29656 3.66882 3.76279 -0.207833 -0.241444 -1.13335
313 1 4.51629 2.158 1.0305 0.557257 0.55984 0.0226826
314 1 7.69768 0.987765 8.15545 0.558446 0.348481 0.505622
315 1 2.62423 7.9629 3.70938 -0.101054 0.162745 -0.538773
316 1 7.81905 1.78202 0.737539 0.243641 -1.19283 0.1841
317 1 0.870461 6.08516 0.28479 -1.419 0.289808 0.727577
318 1 1.15283 7.77017 1.01304 -0.179045 -0.39893 -0.886284
319 1 0.151699 3.82604 0.534194 0.646875 -0.98962 0.300297
320 1 9.02695 5.01801 7.33307 -0.303206 -1.33802 -0.40755
321 1 8.35378 1.3841 2.4089 -1.96654 -0.258263 0.553517
322 1 5.67816 7.91899 6.79398 -0.357694 0.350595 0.284601
323 1 4.58285 2.15616 6.73622 -0.135903 -0.619185 -0.702273
324 1 1.65421 1.70405 1.24362 -0.41093 0.103036 -0.175262
325 1 1.72422 4.02713 1.88407 0.245495 -1.61329 1.06669
326 1 4.99387 0.821821 2.30843 -0.329916 -0.937557 -0.0513152
327 1 1.52387 0.155072 3.73701 -0.829926 0.183163 0.774855
328 1 0.800074 6.54922 5.85037 -1.52548 -0.348996 0.49588
329 1 6.25418 3.45905 9.18445 -0.217231 -1.10215 -0.574322
330 1 1.69819 4.98925 5.06304 -0.245674 0.755825 0.451274
331 1 6.88475 6.89751 1.74686 -1.216 1.01887 -0.118162
332 1 4.09642 6.47967 9.05483 -1.88383 -0.718679 -1.57823
333 1 6.68409 2.82768 2.19052 -1.09879 -0.289167 0.797181
334 1 1.37509 3.97516 6.88649 -1.09274 -1.0889 -0.86091
335 1 4.82773 5.75772 5.65394 0.775959 -0.574914 -0.852482
336 1 0.33748 5.22176 3.5227 0.698379 -0.240445 -0.102873
337 1 1.69073 6.08533 8.53886 1.25808 -0.114527 -0.692238
338 1 4.03376 5.12109 3.74849 1.23473 -0.558804 -1.0742
339 1 0.499919 3.13709 3.86826 0.557874 0.409522 1.10421
340 1 7.49102 3.25146 5.05721 -0.16599 -0.384302 -0.994774
341 1 5.96153 7.2415 8.52982 0.523213 0.581572 0.0131985
342 1 3.17119 9.28329 9.26735 0.248555 0.691419 -1.22977
343 1 0.71923 4.44804 2.90651 -0.443871 0.428534 -1.50101
344 1 3.07473 1.97763 7.46997 0.466227 -0.782665 -0.601585
345 1 3.45636 5.5146 2.77637 -1.31074 -1.25836 1.4957
346 1 2.52949 2.73707 3.83612 0.39192 -1.80295 -0.427069
347 1 2.21988 0.890858 7.62942 0.597767 0.413895 0.20393
348 1 5.03096 6.40172 8.50481 -0.189512 0.120326 1.25671
349 1 2.77188 7.51078 5.73636 -1.01117 -0.754321 -0.305701
350 1 0.411007 2.14482 5.34472 0.986109 0.236018 1.5572
351 1 7.76783 6.22337 5.34718 0.15384 -0.31233 0.354956
352 1 4.90244 8.5797 3.12223 -0.017781 1.09937 -1.53307
353 1 1.84709 8.06781 8.69848 0.541286 0.192768 0.901218
354 1 5.09653 0.51198 3.31971 0.714228 0.519367 0.592094
355 1 9.08701 7.27318 7.46597 -0.730938 -1.32973 0.910986
356 1 1.84406 2.32873 0.546971 -0.364021 0.479988 0.187008
357 1 7.89349 0.288818 6.80554 0.396403 0.380218 -0.629184
358 1 0.0780954 6.97482 9.36966 0.476648 0.0118126 0.100797
359 1 3.64917 3.20137 2.67367 1.00196 0.767373 0.0171361
360 1 7.73836 2.1219 6.93533 1.61751 0.378743 0.665344
361 1 7.68651 7.61406 1.23294 -0.579094 -0.458847 0.814393
362 1 8.20575 7.64194 7.27597 0.453147 -0.117876 0.376932
363 1 3.9289 3.86721 4.05832 -0.285278 0.614417 0.333225
364 1 6.31548 7.52365 5.8747 0.698891 0.723839 -0.216653
365 1 0.72298 6.04273 3.74652 -0.444024 0.654895 -1.04981
366 1 6.84899 5.06208 7.38414 -1.08853 -0.998991 0.273778
367 1 4.19987 7.07798 6.89614 0.15289 -0.303689 -0.366179
368 1 0.356247 8.80831 4.27851 1.21132 -0.188918 -0.746898
369 1 2.06745 8.78726 7.75024 1.47279 -0.540541 -0.617853
370 1 6.53008 4.81302 8.55157 0.339446 0.74479 0.495142
371 1 8.31077 8.28692 1.60866 0.0380362 0.2992 -0.163674
372 1 6.09062 1.21812 3.78562 1.08463 -0.416084 -0.0888781
373 1 3.43035 2.01149 5.48107 1.51477 0.10061 -0.484271
374 1 4.42452 7.24391 8.31801 -1.03236 -1.70171 0.751081
375 1 2.59577 1.30906 1.04058 -1.65571 0.365071 -1.16495
376 1 0.83348 4.09877 5.49581 -0.50351 -0.764908 1.6006
377 1 8.09776 9.25503 4.361 -1.34025 -0.117192 0.337557
378 1 7.5878 8.61369 4.63787 -0.0526493 -0.548224 0.710522
379 1 9.02669 8.21249 2.26167 -0.194837 -0.42853 0.529465
380 1 6.82273 6.17286 5.86418 -0.382484 -1.11588 -1.00452
381 1 3.95543 6.23274 2.2132 0.479345 -0.173826 0.552506
382 1 6.58119 2.03502 6.07389 1.3 -0.739635 0.51198
383 1 1.40805 1.05554 7.96248 0.00374212 -0.516907 0.194278
384 1 5.09036 2.30118 4.68436 0.269028 -0.125608 -0.518014
385 1 8.87767 6.84183 1.06344 1.4678 0.393531 0.0135811
386 1 7.30774 3.60975 7.41545 -1.60339 0.892591 0.697872
387 1 5.40943 7.16556 6.02769 -1.30006 0.984846 0.503722
388 1 0.553231 0.0115072 1.64358 -0.166952 0.220768 -0.683597
389 1 7.68269 0.177847 5.99778 0.681586 -1.03926 0.52476
390 1 7.45398 8.83351 7.0909 1.56084 -0.926263 -0.112189
391 1 0.91497 8.4073 2.64162 -1.4695 -1.11727 -0.140597
392 1 2.45474 0.157652 7.13378 0.0704337 -0.267407 -0.345538
393 1 2.93271 1.5237 2.71646 -1.61698 1.07416 0.228276
394 1 6.74383 1.30944 2.94279 0.718133 1.01706 -0.58016
395 1 3.37737 4.69367 4.26831 -1.11289 -0.679616 0.586551
396 1 4.51595 0.22736 4.98385 -0.16304 -0.973947 -1.05488
397 1 0.528119 4.16528 3.82293 -0.262145 -2.40957 0.348786
398 1 3.84636 7.51766 2.37354 -0.475447 -0.455002 1.0501
399 1 0.157416 8.14334 3.15702 0.290822 -0.833905 0.50316
400 1 3.01919 0.494822 8.65341 0.811633 -0.621622 -0.0142135
401 1 0.326534 4.99711 1.62536 -0.256358 -0.945733 0.0975545
402 1 5.90892 8.93844 4.433 -0.873032 -0.0199732 0.588452
403 1 0.0399593 1.07921 3.38321 0.877232 0.125417 0.11672
404 1 5.08633 7.64621 3.17186 -0.245135 0.198716 0.384548
405 1 3.6482 5.96422 0.440287 0.56207 0.60387 0.0323137
406 1 7.05341 4.35971 5.59038 0.545989 -0.714874 -0.211656
407 1 5.92742 1.85472 8.9564 0.656795 1.20803 -0.393954
408 1 3.32307 7.20872 8.87509 0.420298 0.974108 -1.15669
409 1 2.88025 2.33037 1.13753 0.360652 2.26576 0.435409
410 1 6.07684 6.19208 0.262481 0.468231 0.894212 0.093101
411 1 3.71492 0.931989 5.72897 -0.456163 0.633611 -1.13539
412 1 5.98959 2.30588 4.13192 0.0175693 -0.680541 0.389996
413 1 8.92746 0.862775 6.7545 -0.534148 -0.583931 1.50571
414 1 6.82708 2.6411 4.43158 -0.879705 0.47574 -1.41757
415 1 8.87428 4.8248 3.1783 0.380015 -0.642622 0.591802
416 1 3.14523 4.67913 8.69795 0.135322 0.792257 -1.58346
417 1 0.693297 0.460662 8.09447 0.14848 0.514699 1.20343
418 1 5.80389 3.55347 6.71226 1.16124 -0.247293 -2.0326
419 1 2.52789 2.30863 8.15478 0.96489 1.09 -0.129957
420 1 4.68138 0.60777 7.33103 0.427736 0.763734 0.425573
421 1 2.96922 0.783001 0.356223 -1.20371 -0.308095 -0.859086
422 1 1.57946 0.560292 6.60821 -1.41323 -0.228518 -0.336113
423 1 2.2331 7.68449 0.803581 -0.685357 0.232411 0.154227
424 1 9.13351 5.24842 5.01849 1.57875 -1.04651 -0.925809
425 1 1.58093 6.9896 3.58125 -0.874561 -0.078502 1.15751
426 1 6.82903 9.03368 8.13231 -0.126307 0.536192 -0.589232
427 1 9.04033 1.91147 3.56968 0.285078 -0.044065 0.303283
428 1 4.34374 3.04916 6.94301 0.203566 -1.01533 -0.176955
429 1 2.78011 7.53504 2.54993 -1.03356 1.48711 -0.361799
430 1 0.531852 3.33618 9.18159 0.39501 1.37533 0.745777
431 1 0.214394 7.56502 4.57126 -1.76169 -0.0439836 0.214764
432 1 1.17251 8.06414 4.67125 -0.275718 0.25037 0.447194
433 1 8.76387 6.18246 4.72031 -0.650696 0.187081 -0.343291
434 1 7.71077 3.78812 5.84177 0.360882 -0.780361 -0.0212216
435 1 1.80363 0.558497 5.74365 0.676103 1.1777 -0.150244
436 1 9.26964 0.082911 6.97579 0.156105 -0.10645 0.510516
437 1 6.86877 5.70336 4.81981 0.791353 0.157993 -1.01352
438 1 9.17046 0.56609 7.77686 1.07777 0.818994 -1.25968
439 1 9.02728 5.09561 8.46735 0.240716 1.08839 -0.434467
440 1 8.79487 2.25125 2.4962 -0.380118 0.554784 0.205491
441 1 3.46403 0.088586 3.36071 -1.01465 0.623065 -1.51134
442 1 3.99209 5.36418 5.3462 -0.688044 -0.0430292 -0.336364
443 1 4.47434 0.530252 9.07908 -0.284725 0.588236 -0.79966
444 1 5.46403 2.37147 8.22555 1.57039 -0.914735 -0.563442
445 1 7.82696 2.22002 2.19958 -0.412605 1.67543 -0.549452
446 1 5.1987 3.92255 1.66369 0.211768 0.747254 -0.0270998
447 1 1.04838 7.39792 2.86128 -0.457597 0.227407 -0.606571
448 1 8.30512 0.495633 5.51145 -2.01845 0.457192 -0.736758
449 1 4.43182 0.309446 2.82771 -0.750264 -0.0331897 -0.873625
450 1 5.99183 0.793505 2.91563 -1.48097 -1.36626 -0.0893084
451 1 4.4383 8.9654 2.27134 -1.17204 0.560836 -0.55117
452 1 1.61514 7.03573 1.35498 0.334093 -0.909323 -0.216794
453 1 1.49124 5.60412 9.26912 -0.665163 0.103691 -0.647082
454 1 2.62072 4.58049 7.01112 0.538713 -1.58417 -1.1539
455 1 8.08645 2.74707 5.63298 -2.10995 -1.08976 -0.89621
456 1 0.342235 1.01187 0.286353 -0.982349 1.77768 -0.663133
457 1 0.453293 6.8512 3.41852 -0.135448 0.597745 -0.189352
458 1 1.40566 4.74082 2.41992 0.188216 -0.990657 -0.0916275
459 1 8.50456 3.05062 3.45877 0.849091 0.149311 -0.586785
460 1 1.81076 6.50833 7.858 -1.12378 -1.41029 0.948172
461 1 4.75701 9.26498 7.71157 0.922194 -0.656077 1.15029
462 1 7.47677 0.706391 3.33951 -1.32363 -0.395047 0.580934
463 1 3.70891 2.70802 1.54548 -0.0500028 0.578377 0.786486
464 1 0.737714 0.431617 7.02968 -0.351738 0.565192 -0.699972
465 1 7.97455 5.20734 5.19235 -1.59271 -1.77196 0.187404
466 1 8.64748 2.09062 5.29614 0.110058 -0.0791932 -0.49857
467 1 7.19606 7.60983 4.45572 -0.15374 -0.812485 0.672947
468 1 1.41716 2.58417 1.36342 -0.620125 0.793131 -1.04975
469 1 1.37684 3.86699 2.78308 1.42747 -1.94703 -0.403084
470 1 8.63248 5.5354 5.681 -0.357543 0.459014 2.36374
471 1 2.01054 2.25007 4.43206 0.421688 0.751161 0.498734
472 1 1.75367 7.25822 2.38676 -0.454394 -0.0749915 0.653368
473 1 7.93238 6.68407 6.96085 0.795122 0.951053 0.859994
474 1 3.27763 1.77297 0.519962 -0.302287 -0.333861 1.01628
475 1 0.563081 7.42863 7.59781 0.913138 -0.385487 -0.733384
476 1 7.76552 8.43837 7.89712 2.14115 -0.0522287 -0.297321
477 1 9.38293 0.258623 0.720659 2.14618 0.59197 0.0913654
478 1 4.03122 8.42059 7.0272 -0.610583 -0.588176 0.454114
479 1 1.40885 4.97068 0.47076 0.495596 0.705742 -0.940692
480 1 3.05022 6.65411 2.4645 -0.908107 0.64668 -0.865084
481 1 5.1541 1.23001 5.54372 0.0710456 -0.442811 -0.180829
482 1 5.51209 8.61734 7.94489 1.04999 -1.65283 1.11161
483 1 4.29835 6.88053 5.87852 -0.559884 -1.18631 -0.230601
484 1 5.26935 2.08504 0.336482 -0.897052 -1.49262 0.882691
485 1 7.01879 1.387 8.70749 0.0984194 0.102613 -0.558944
486 1 9.28841 1.8349 9.16591 -0.399525 -0.262827 0.107639
487 1 1.24089 1.90914 5.74363 1.38926 -0.562836 -0.286733
488 1 8.1348 5.06474 8.02575 1.16527 0.88329 0.0722213
489 1 0.352906 1.75941 2.79337 1.1396 -0.860663 0.263356
490 1 7.44119 4.50396 7.71875 0.253214 0.364042 -0.41301
491 1 1.73855 5.97733 2.35525 0.824405 -0.707902 0.131789
492 1 0.869625 1.17867 6.19589 1.53957 -1.01048 0.735821
493 1 6.47919 5.55053 7.98012 0.327251 0.445196 -0.422839
494 1 8.14967 3.61331 7.00675 0.361915 0.662033 -0.350311
495 1 5.83733 9.28766 6.23036 0.0203667 0.40613 0.214265
496 1 6.09706 2.1734 1.75133 1.08299 0.194829 -0.159118
497 1 3.72881 7.18027 7.61403 0.335968 0.449736 0.300823
498 1 5.80338 7.99827 2.49909 -0.156649 -0.563159 -0.396498
499 1 7.55234 2.77868 0.867912 -0.950163 0.248908 -0.959448
500 1 0.559724 8.53961 5.1881 -0.258666 -0.136777 -0.55889
501 1 9.13817 0.198733 9.19143 0.217417 0.0572703 -0.14209
502 1 2.98423 3.44096 1.36608 0.114187 0.664707 1.21313
503 1 3.29474 2.29497 2.79602 -0.358601 1.08192 -0.951794
504 1 5.78351 0.452042 5.0959 0.110485 0.00952185 0.389102
505 1 0.634145 5.2423 6.49511 1.53068 0.556969 1.71472
506 1 2.52491 2.0035 5.19093 0.685227 0.0371169 0.0633506
507 1 0.0616202 6.95336 5.32809 0.611372 -0.389866 -0.0489665
508 1 7.05159 4.66249 3.10475 -1.40662 -0.668405 0.526505
509 1 0.380492 5.72607 5.68386 0.136245 0.536288 1.52938
510 1 7.9593 4.56721 2.75678 1.22282 -0.883923 -0.0124147
511 1 0.628769 2.61189 0.626175 1.09436 -0.848984 -0.193981
512 1 1.42954 9.40339 2.8379 -1.06588 1.14989 0.612065
513 1 5.46536 3.82103 0.0339666 -0.421793 0.961005 2.00936
514 1 8.48067 8.41445 0.441373 -0.794979 -0.853355 0.333587
515 1 2.6084 7.06097 6.58435 0.554177 -0.857813 0.93775
516 1 4.81139 6.03405 2.92157 -0.183498 0.766085 0.878837