ITEM: TIMESTEP
385150000
ITEM: NUMBER OF ATOMS
1000
ITEM: BOX BOUNDS pp pp pp
0.0000000000000000e+00 9.4000000000000004e+00
0.0000000000000000e+00 9.4000000000000004e+00
0.0000000000000000e+00 9.4000000000000004e+00
ITEM: ATOMS id type x y z vx vy vz
1 1 6.6534 2.44206 8.89607 -1.43074 -1.0399 0.171289
2 1 1.30259 6.23475 7.73611 -1.13523 -0.233142 0.266548
3 1 2.28493 3.42991 0.316645 1.81749 0.620535 0.265251
4 1 2.98968 5.70099 2.23335 0.461291 -0.604129 -0.564294
5 1 3.13082 6.51548 8.24279 -1.55691 0.0401377 1.20198
6 1 0.471755 6.60179 8.34609 0.188967 0.321661 -0.762057
7 1 6.2341 8.30225 4.25923 -1.49888 -0.341255 1.11096
8 1 1.92469 1.00933 6.83676 -1.08801 -0.22769 -0.608459
9 1 9.43509 3.9026 6.02194 1.20833 0.316391 -0.48253
10 1 8.8089 1.03326 6.11508 -1.09133 0.404197 1.0734
11 1 5.70708 3.60946 3.33833 -0.0614922 0.219487 0.752265
12 1 1.88763 9.16676 0.161961 -0.647684 -1.69109 -0.189968
13 1 8.2494 1.75408 6.97691 -0.452237 0.816915 -0.370903
14 1 8.39617 0.991587 1.39452 -0.622229 -0.0735935 -0.0271728
15 1 6.69757 6.66185 8.12975 0.216783 -0.707778 0.0598868
16 1 0.398435 0.681561 2.03123 -0.00459676 -0.91215 -0.342514
17 1 1.40388 3.53842 1.0247 -0.145392 -0.0045289 -0.220803
18 1 0.23449 4.64248 8.7633 -0.15584 0.195883 -0.28924
19 1 5.79902 4.5805 3.2348 -0.741937 -0.0194779 -0.432544
20 1 8.50633 3.66094 2.6863 1.21926 0.0220536 1.01668
21 1 3.47185 6.46054 7.46121 -0.16846 -1.0468 -0.858393
22 1 4.78087 5.6928 4.90572 0.984817 0.0442331 0.249549
23 1 8.3326 2.70948 8.32684 0.93038 1.80177 -0.541399
24 1 0.728456 6.90715 1.9526 -0.500223 1.56116 0.795465
25 1 1.92981 7.28424 1.60252 -0.155606 0.117225 -2.7414
26 1 2.19262 1.67224 9.34343 0.929985 -0.826057 -0.652183
27 1 5.93818 3.26928 4.28066 -0.0870292 -0.454127 -1.86234
28 1 1.60004 5.49548 8.54512 0.252438 0.752737 0.666227
29 1 9.38855 4.63125 1.40078 -0.173921 -0.39233 -0.932819
30 1 3.65333 6.03933 0.200996 0.0324399 0.613867 0.889966
31 1 2.09489 3.09376 6.73462 -0.608627 1.19662 0.178265
32 1 5.17466 5.29154 3.22272 -1.57031 -0.446058 -0.384414
33 1 8.25291 3.01751 0.326345 1.69612 0.0935879 -0.240324
34 1 5.72122 2.33347 4.72284 1.33442 0.541578 0.5676
35 1 2.46744 8.93663 6.09344 -0.241314 0.316104 -0.550032
36 1 0.0897626 1.52325 9.1027 0.177746 0.263574 -0.554489
37 1 2.86254 7.24105 5.63363 -0.00766136 -0.781607 1.42467
38 1 7.28547 8.43161 6.80325 -0.889599 -0.844253 -0.425395
39 1 8.87404 1.86227 2.16516 0.132888 -1.53401 -0.377488
40 1 3.10553 6.82378 1.63667 -0.352558 -1.25029 0.539217
41 1 5.02573 6.85131 6.30906 0.209114 -0.125804 -0.955499
42 1 0.77291 2.07814 7.40043 0.387902 -0.722725 0.504386
43 1 5.83091 8.56718 2.60653 0.0235753 0.132341 -0.608464
44 1 4.96615 4.05871 1.74622 -0.385894 -0.129161 0.390773
45 1 3.00179 1.92853 4.26917 -0.733997 0.798967 -0.782186
46 1 6.69258 7.52313 9.26713 1.01486 0.843109 -0.208129
47 1 2.60538 8.20492 5.54623 -0.308028 -0.514079 0.954829
48 1 0.432998 9.23832 8.38916 -0.111506 -1.33076 0.89886
49 1 8.15856 7.23292 8.29637 0.75252 1.75571 -0.754163
50 1 4.32632 2.29278 1.49806 0.633113 0.879106 -0.00725729
51 1 4.69845 7.8028 9.43493 -0.902495 1.07121 0.353326
52 1 2.12797 6.75466 3.54655 -0.678068 0.772934 -0.890464
53 1 8.46343 5.02758 2.37509 -0.133024 1.21134 0.838721
54 1 2.5399 9.0866 4.78214 -0.647378 0.132892 0.496735
55 1 8.79467 0.124093 0.730132 0.2692 0.405592 0.43788
56 1 7.02054 7.08082 5.49217 0.43716 1.2655 0.601255
57 1 0.68235 8.00157 2.97602 -0.631976 -0.337391 -1.17586
58 1 7.16522 0.480472 6.98566 1.37744 -0.181954 -0.198036
59 1 0.827258 4.41228 5.47056 0.335333 -0.735608 0.243519
60 1 2.28971 4.82531 5.58167 0.0227604 -0.0796761 -0.554513
61 1 5.76587 3.41128 7.16555 -0.364788 0.284841 0.323351
62 1 6.67713 5.89207 8.81491 -0.880255 2.23092 0.6142
63 1 3.42465 0.172368 0.649727 -0.920176 -0.643491 0.00673913
64 1 2.05819 0.583172 4.52744 0.215537 -0.314085 0.45386
65 1 4.67395 5.82835 8.98112 0.19216 -0.549715 1.27701
66 1 7.80818 2.96116 4.70241 -0.806086 -1.18407 1.02042
67 1 5.11297 2.93509 1.65846 0.229208 -0.307684 -2.6331
68 1 5.29511 4.61075 1.19416 -0.479453 0.0657325 0.975299
69 1 7.3944 2.87697 8.44223 0.453209 1.07143 -0.770347
70 1 3.46482 2.69862 8.34929 -1.65257 0.654042 -0.721934
71 1 2.80859 0.848207 9.1753 -0.845514 -0.0716438 -1.25834
72 1 0.761026 5.93997 8.76458 -1.01532 -0.697281 0.140429
73 1 2.03309 1.42032 0.822778 0.691324 -0.632767 0.0873618
74 1 8.51481 5.45925 5.2827 0.342375 -0.577413 -0.831676
75 1 8.19832 5.93809 8.272 0.640876 0.476335 -0.269443
76 1 1.66152 2.91144 2.85291 -1.225 0.360761 1.13775
77 1 3.98725 4.36825 5.84837 -0.114472 -0.552475 0.445099
78 1 3.74029 5.59553 7.44982 -0.502725 -0.412728 -1.03743
79 1 4.81254 1.70519 5.0073 0.374782 0.879393 0.874532
80 1 0.908385 8.29915 6.55937 -0.951498 0.277921 0.712092
81 1 6.36844 3.49358 2.48079 0.793672 -0.20158 0.0644208
82 1 2.49663 1.6239 6.66608 -0.159278 -1.6888 0.450858
83 1 6.77682 6.97128 1.4054 0.78111 -0.0845039 0.0129542
84 1 1.07928 4.34725 6.46988 -0.344576 1.29709 0.45272
85 1 1.11882 0.726039 7.00798 1.24114 1.01595 0.50234
86 1 4.11266 3.44519 7.80739 0.0802458 -1.05342 -1.04864
87 1 9.23216 7.18449 4.68406 -0.683828 -0.729174 -0.429839
88 1 3.4115 2.07731 0.503722 0.366968 -0.64689 0.91545
89 1 5.20448 6.63681 4.86813 -0.403855 -0.565397 -0.755103
90 1 7.51365 4.1001 6.21493 -0.271069 0.310459 -0.340634
91 1 1.68822 4.85352 4.8806 -1.12219 -1.40259 -0.148334
92 1 6.6404 5.98222 2.60116 -0.0351036 -0.103537 1.11949
93 1 4.3164 5.32991 0.489123 1.01762 -0.527443 0.249919
94 1 1.11555 9.32213 3.65814 -0.0253817 -0.498534 -0.113936
95 1 9.19387 7.91357 1.07533 2.0058 0.963236 -0.89114
96 1 0.260773 7.82772 5.59458 0.82149 0.68725 0.373364
97 1 9.13851 4.04646 4.38591 -0.0836069 0.116115 0.923287
98 1 4.55559 0.549158 3.06813 -1.74796 0.938453 0.62874
99 1 4.9769 8.8883 1.72276 -0.198979 0.13889 0.320094
100 1 4.89314 2.65989 8.05845 -0.137089 0.465244 0.125515
101 1 6.78835 1.07381 0.97081 0.877922 -0.828237 -0.717262
102 1 9.22328 8.76426 0.567818 0.214553 -0.794929 1.2277
103 1 5.1324 7.53003 5.62445 -0.434583 -1.15308 -0.0491527
104 1 5.84664 7.13712 4.40473 0.470156 -0.0026659 0.385658
105 1 6.35478 6.84366 3.27184 -0.920758 -0.469471 -0.437996
106 1 2.06631 5.63182 5.0795 -0.206144 -0.160824 0.273819
107 1 4.07884 1.36369 1.78648 0.565808 -0.184799 1.13429
108 1 6.27517 3.2714 9.00403 0.323419 -0.931574 0.388343
109 1 9.24281 5.87154 8.52671 0.483602 -1.35631 -0.893846
110 1 2.39574 4.01506 6.48443 -0.987973 0.55984 -0.507358
111 1 0.304686 8.53364 1.48923 -0.941082 1.13401 -1.29159
112 1 6.3443 1.01176 3.69599 -0.194676 0.317303 -0.854203
113 1 6.65917 4.58632 3.86118 0.569419 1.13249 -1.42585
114 1 3.20885 5.14002 8.70089 0.333666 -0.00233128 0.0537944
115 1 2.46638 9.29589 8.75602 0.247966 0.12637 -0.156553
116 1 3.19803 1.65183 7.22874 -0.157141 -0.270421 0.729144
117 1 5.65798 7.33315 2.40263 0.737406 -0.326659 1.13781
118 1 2.47919 6.32915 5.44834 -1.43137 -0.835173 0.77088
119 1 8.21766 7.27621 4.03313 0.18442 -0.365514 0.15667
120 1 2.49823 2.30153 8.69756 -1.40741 -0.1673 0.774059
121 1 6.9872 3.67912 8.66715 -0.112046 0.400144 1.29656
122 1 1.27429 5.40687 2.45146 -0.116772 -0.837351 -0.58892
123 1 4.19656 1.27927 2.81046 1.8514 1.11792 0.63123
124 1 6.95972 1.58185 8.45819 -1.05725 -1.5043 -0.617675
125 1 4.17804 5.32208 8.25211 -0.773312 0.614805 -0.89114
126 1 0.239206 8.17881 8.51851 -0.197391 1.13492 -0.033084
127 1 6.00689 3.84512 5.15462 0.0878593 -1.43856 -0.397611
128 1 3.17425 0.895593 4.62791 0.12662 0.0773264 2.44169
129 1 8.00324 4.14523 0.241685 0.262522 -0.864901 -0.156952
130 1 8.54194 9.3112 3.34625 -0.804039 0.498338 -0.520764
131 1 4.06515 5.35101 4.26878 0.0523742 -0.171865 -0.364182
132 1 8.93385 7.68539 8.20809 0.670327 0.386252 0.712165
133 1 9.16259 7.91487 3.63826 -0.219776 0.188653 0.185413
134 1 0.969637 9.30792 1.79758 0.647998 0.832786 -0.232267
135 1 3.60997 7.9954 4.1485 -0.46682 -0.518343 0.0933278
136 1 2.97494 3.88392 9.27965 0.185523 -0.81353 0.0622136
137 1 7.08938 4.08868 2.39164 -1.69843 -0.274074 0.711142
138 1 0.0795021 7.23527 2.9472 -0.316218 -0.170836 0.52759
139 1 6.92601 1.02066 7.73322 0.405201 0.0591145 -0.300442
140 1 4.66233 0.0789817 8.50943 0.973058 1.01737 -0.541313
141 1 3.64422 3.465 0.445658 -0.181528 0.873678 -0.342382
142 1 9.3578 8.10919 4.61364 0.11924 -0.731016 -0.103905
143 1 7.30381 8.59723 5.83445 0.0522451 -0.150267 -0.473547
144 1 1.72484 3.00828 3.88874 -0.899277 -1.48755 -1.10397
145 1 4.46015 1.19529 7.03498 0.614585 -0.373775 1.02705
146 1 1.70953 8.39015 6.19272 0.551699 -0.984457 -0.386544
147 1 5.49384 9.36753 0.180314 -0.514236 0.750634 -0.246298
148 1 8.24899 7.76083 6.4588 0.970201 -0.04563 -0.114232
149 1 8.21892 2.43553 4.05071 0.258974 0.288926 0.809532
150 1 7.08492 9.0862 1.4382 -0.0987672 -0.742833 -1.13019
151 1 0.769451 5.49164 4.00697 -0.436333 0.694624 -0.911125
152 1 1.25528 5.90552 6.67595 -1.21338 0.532596 -1.13585
153 1 5.99105 4.36198 9.31183 -1.18952 0.942275 -0.209084
154 1 8.67307 5.91012 3.34548 0.758599 -0.0517415 -0.130133
155 1 4.16243 7.21146 8.5065 0.063289 -0.569736 -0.520531
156 1 1.56525 1.44688 7.55505 -1.99593 0.764038 -0.0443309
157 1 2.16184 7.48277 0.701212 -1.03819 1.19214 0.111722
158 1 0.925576 4.02146 7.77808 0.261226 0.451003 -0.202578
159 1 3.50864 6.01894 6.65301 0.263082 0.688416 -0.949356
160 1 3.06208 2.27548 2.75718 -0.133758 -0.711894 -0.768241
161 1 4.80081 1.84553 3.24868 0.373045 0.163232 -0.893769
162 1 0.120708 7.76488 2.17822 -0.59594 0.293103 -0.231265
163 1 0.338109 5.88776 5.66938 -0.756111 0.721219 -0.0432495
164 1 2.58863 5.1254 1.05687 1.22288 0.126268 -0.92732
165 1 4.12211 4.84684 2.70102 -0.0216075 0.732208 -0.383789
166 1 2.31777 4.83767 2.57484 -1.16781 -0.168188 1.90536
167 1 4.16296 3.22647 1.92845 0.0877398 -0.861193 -0.591189
168 1 3.71815 6.03029 8.75174 0.262433 0.397325 -0.178881
169 1 5.25296 4.10716 6.69757 0.933088 -0.703365 0.489023
170 1 6.15398 5.19664 5.60678 -0.200147 0.916269 1.14607
171 1 3.32294 6.12836 1.13716 0.872468 -0.212122 -1.08678
172 1 2.97165 6.88298 0.702734 1.3235 -0.321812 0.151909
173 1 3.06327 9.08005 1.30615 -0.369349 0.112278 -0.462175
174 1 5.42412 0.732227 7.38742 0.288666 -0.987259 -0.555911
175 1 7.38313 3.28786 2.91986 -0.185326 -0.282766 -0.330973
176 1 7.4835 7.97713 8.58255 0.46797 0.839522 -0.889724
177 1 0.22073 5.84473 3.32529 -1.60306 -0.227896 1.6211
178 1 1.74626 8.93681 7.90484 -1.08155 -0.958909 1.41223
179 1 7.8232 5.7028 2.18696 -1.10559 -0.832323 -2.17823
180 1 3.33525 2.88264 5.63004 1.00295 0.388046 0.854421
181 1 0.879896 3.06202 0.396127 1.13197 -1.11764 0.835438
182 1 2.5215 4.05269 3.52894 -0.168794 -0.15919 0.288914
183 1 5.08562 3.13727 4.16149 0.407904 -0.952102 0.0714348
184 1 6.11422 2.96119 1.61372 -0.614132 -0.537253 -0.248544
185 1 2.92214 8.31909 6.48398 0.496032 0.94229 -0.300926
186 1 0.177429 0.92696 0.533595 0.971727 -0.706231 -0.15943
187 1 3.72699 7.0575 4.41001 -0.353115 0.83985 0.285568
188 1 4.39599 5.68232 3.38819 -0.489571 -0.787799 -0.619458
189 1 3.75176 3.61105 3.80891 0.145624 -0.513362 -0.0758154
190 1 2.90251 0.556541 8.18441 -1.47321 -0.786663 -0.857204
191 1 2.48969 0.282162 1.94267 -0.255916 0.0387185 -0.70174
192 1 8.32725 4.91094 8.19991 -0.179123 -0.571001 -0.620943
193 1 4.31547 6.6354 9.21142 0.189818 -1.12045 -0.25917
194 1 5.08918 4.02588 4.67669 0.395218 -0.0036955 -0.0930077
195 1 8.11643 5.91964 4.02492 -0.0584051 0.616224 -0.564593
196 1 2.88216 9.21455 3.14704 0.824555 0.875209 0.37558
197 1 2.04485 2.99265 7.68837 -0.468133 -1.11559 0.53949
198 1 7.72913 0.478168 3.67829 -0.12162 -0.417498 0.338836
199 1 7.73495 3.97021 4.01749 0.737851 -0.379759 0.257256
200 1 3.22439 9.09289 7.91936 -0.13025 -0.529559 0.826216
201 1 8.87903 1.17647 6.99036 -0.27146 0.706554 0.386811
202 1 6.96027 6.97948 6.93317 -0.270328 -1.13849 -0.527841
203 1 0.049777 6.8623 5.59141 -0.781428 0.727852 -1.39607
204 1 7.6061 3.27902 0.932536 -1.342 -0.143576 1.43223
205 1 5.59457 2.15002 8.53786 0.00537832 -0.36584 -0.393504
206 1 8.235 5.68894 1.01827 -0.0860421 -0.0657745 -0.913831
207 1 4.14792 7.51311 5.37502 -0.241974 -1.27028 0.330443
208 1 9.19459 6.30695 4.95159 -1.28334 -0.844641 0.338733
209 1 7.68641 1.56974 1.44529 -1.17927 1.17237 -0.932168
210 1 1.33083 6.14322 5.60618 -0.333856 -0.498245 -0.495278
211 1 1.44306 4.47474 1.76744 -0.53443 -0.351951 -0.196373
212 1 9.0055 2.78063 2.26926 -0.888053 -0.124012 0.968329
213 1 1.44831 8.65478 7.10795 0.27233 1.55512 -2.09372
214 1 8.89766 6.86494 9.05125 -0.495165 -0.822935 -0.196117
215 1 0.800546 4.11462 0.365928 -0.198542 0.746924 0.0747188
216 1 3.32369 0.0212991 8.79652 -0.108786 0.395739 1.19061
217 1 5.17144 0.583422 4.46046 0.340141 1.2861 0.144995
218 1 4.69133 9.21951 0.791361 0.454949 -0.800598 0.436974
219 1 6.78284 8.37651 7.94976 -1.88119 1.9713 0.255216
220 1 0.0502905 2.81985 4.69921 -0.980568 -0.180284 -0.500976
221 1 1.43059 7.66309 2.34108 -0.571157 1.41159 -0.526351
222 1 6.85668 3.73307 1.20326 0.930892 0.422588 -1.00779
223 1 0.994211 8.97911 0.886666 0.404957 0.346293 -0.304257
224 1 7.63317 4.23237 1.20303 -0.744242 0.252608 0.149181
225 1 0.923748 4.19987 3.6806 0.0255039 -0.512082 -0.430489
226 1 7.71675 7.96752 5.29719 0.750522 0.544782 -0.422589
227 1 0.900166 1.74018 8.3862 0.823338 0.02897 0.868278
228 1 0.190206 2.34611 8.21153 -0.670098 -0.216983 0.389683
229 1 8.50356 0.773434 3.32944 -0.704236 -0.0672703 -1.12425
230 1 6.53502 4.46801 1.37095 0.227475 0.0274572 -0.803713
231 1 6.05514 7.18997 5.42918 -0.618862 0.337587 0.434967
232 1 1.83923 1.292 3.28119 -0.0295913 -0.559503 -0.0199
233 1 6.32012 7.67752 8.35259 0.00665554 -0.0251032 -0.57376
234 1 2.60285 3.93111 2.61486 0.495391 -0.255492 1.52071
235 1 3.89941 0.609879 1.42307 0.399927 0.280336 -0.758698
236 1 8.7595 5.95054 2.09516 -0.788651 0.949238 0.654085
237 1 5.7855 3.15046 8.0404 -0.0300743 -0.545041 -0.262927
238 1 5.33015 1.62419 9.22836 -1.16996 -0.0273061 -0.411659
239 1 5.40362 6.23341 6.86968 -0.32185 1.58403 0.0118775
240 1 7.68682 4.76833 1.93666 -0.287431 0.717196 0.66278
241 1 7.36457 8.21915 0.220938 -1.14634 -0.762041 1.18891
242 1 0.52324 8.89636 4.90933 0.0380039 -0.0639489 -0.128637
243 1 4.32499 6.8789 6.95345 -0.480899 0.86939 0.272164
244 1 4.35024 4.72135 3.53915 -0.313127 -0.264046 0.406472
245 1 0.0858811 1.67136 6.46173 -0.43289 0.248586 -0.729372
246 1 1.74458 5.71812 0.0301832 -0.775564 -0.04892 -0.00776451
247 1 4.02569 2.20131 9.23125 -0.137277 3.00533 -0.871441
248 1 8.93537 3.27914 8.78059 -0.595692 0.508434 0.220812
249 1 5.77689 0.214796 8.5267 0.162084 0.515037 1.66094
250 1 3.32132 5.70308 3.81377 1.08554 -1.8732 1.5007
251 1 9.21343 0.311932 9.29034 -0.384938 -0.167675 -0.123508
252 1 2.67502 0.7651 3.60667 -0.934367 -0.248336 -0.263023
253 1 2.97366 5.12356 3.07815 1.39439 0.449271 0.509954
254 1 2.93843 1.37151 0.495436 1.03485 -0.229839 -0.4188
255 1 1.59122 6.89762 0.886974 0.61222 -0.651161 -1.62291
256 1 0.681178 5.0306 3.09358 0.154545 -0.0603944 0.970319
257 1 5.27193 6.52374 0.0691251 -0.0659395 -0.560732 0.190848
258 1 2.19495 5.96926 7.00523 0.840791 0.230785 1.25085
259 1 2.62611 8.64663 2.44922 1.30781 0.43901 -0.581484
260 1 1.68371 4.13119 4.31803 -0.131533 0.386163 0.250808
261 1 5.01978 4.88265 4.27046 -2.02181 0.114458 -0.0892122
262 1 3.02661 7.69277 1.33889 0.726236 -1.71822 0.25334
263 1 0.672308 4.86518 2.05601 1.11932 -1.22859 0.933391
264 1 3.60227 8.6029 0.805316 -1.00465 -0.824945 0.349534
265 1 3.01062 6.75743 2.57018 0.345599 -0.653898 0.0371309
266 1 6.03742 1.53756 7.88984 1.527 0.493493 0.939225
267 1 4.12783 4.09489 2.18397 -0.0757251 0.00965912 -1.04765
268 1 8.21722 6.65116 2.70445 -0.88854 0.397991 -0.382088
269 1 3.06244 0.811468 6.72009 -0.987896 0.135207 0.716448
270 1 4.20787 4.66425 1.23721 0.604074 -0.473235 -0.942829
271 1 1.6285 0.487868 7.8748 -1.14931 -0.558818 0.163898
272 1 4.49788 8.33735 3.29111 0.45663 -0.790668 -0.856403
273 1 2.56714 4.29211 4.63498 0.587007 0.192176 1.72546
274 1 6.48666 9.03246 2.84353 -0.219654 0.261815 0.467473
275 1 8.38646 5.08186 4.36329 -0.12097 0.0832354 0.62781
276 1 4.06466 2.68109 0.746872 -0.0434051 -1.15293 0.111946
277 1 0.375775 1.10766 7.46873 -0.133043 -0.0087148 -0.686079
278 1 6.7715 7.11813 2.5836 0.218331 -0.048181 -0.567101
279 1 4.57152 3.19937 0.148861 -0.941075 -0.34838 0.042044
280 1 1.59679 7.80904 7.92348 -0.845614 0.638293 0.510508
281 1 2.56337 5.87445 9.0147 -2.38963 0.922893 -0.381671
282 1 0.99496 8.42269 1.96711 1.08729 -0.559279 0.57317
283 1 3.77937 1.87528 3.40469 -0.312922 0.363267 -0.923769
284 1 2.22969 1.45975 4.13929 0.375739 0.00496954 0.00320882
285 1 9.1338 0.325612 2.77418 1.00448 0.126286 1.09345
286 1 6.07829 1.35521 8.75186 0.173217 -1.2869 0.203963
287 1 1.16254 2.33503 2.4252 -0.232452 -0.852761 1.28007
288 1 6.6974 3.52702 7.64426 -0.28141 1.14098 1.36643
289 1 5.60838 7.8389 8.86296 0.0328565 0.651872 1.21466
290 1 8.84716 6.27894 1.16683 -0.929443 0.371767 -0.303396
291 1 7.65412 8.91792 3.88901 0.0914663 0.0532049 -0.105461
292 1 7.03791 0.336943 2.04635 0.42551 0.729687 -0.506647
293 1 9.34773 4.09359 7.26263 -0.249539 -0.859142 -1.19973
294 1 5.74478 6.32035 5.81279 1.46236 0.971092 0.143333
295 1 0.597955 3.80227 8.81279 -1.10261 -1.09198 -0.0452291
296 1 2.86486 1.93977 7.9953 0.436652 -0.438167 0.145507
297 1 7.79341 8.74339 8.99911 -0.761167 1.33774 0.606614
298 1 5.74861 8.88209 0.949838 1.1903 0.146919 -0.077367
299 1 2.17724 4.25531 7.41745 -0.296478 -0.185151 0.614235
300 1 2.41918 2.21244 2.04152 -0.311814 -0.314475 0.186463
301 1 1.42261 5.00507 3.91908 0.0746058 -1.13946 -0.427944
302 1 3.8973 7.04682 2.54582 -0.0184282 -0.569074 -0.0480858
303 1 0.809938 2.60093 4.27257 0.229378 -0.157305 -1.01975
304 1 8.462 8.94984 0.121701 -0.799381 0.560324 -0.579744
305 1 4.41992 1.00006 4.48098 -0.396935 0.296928 0.310938
306 1 2.44878 4.87754 3.75514 1.15171 -0.602143 -1.20834
307 1 2.91426 7.49509 8.23563 0.245373 1.41908 -2.27646
308 1 2.46308 2.77772 3.39797 -0.456037 0.926963 -1.99518
309 1 7.02336 1.22937 1.89167 0.758594 -0.275722 -0.963211
310 1 6.45058 3.01175 3.18512 -1.48177 0.769341 0.126572
311 1 2.68184 2.523 7.33507 -1.23389 -0.429707 0.309572
312 1 4.79433 7.18808 2.53151 1.14391 0.585397 1.07059
313 1 1.79142 1.98659 5.96637 0.942385 -0.673737 -1.11897
314 1 9.12343 7.98788 0.157274 -0.371251 2.40424 0.27214
315 1 5.26702 3.23416 0.722949 0.609232 0.276712 -0.115558
316 1 7.19524 7.4681 7.8034 0.508151 0.338786 -0.510837
317 1 6.18847 7.03959 7.46592 -0.173388 0.63813 -1.08298
318 1 5.22692 3.20912 5.39579 0.999898 0.928601 0.19668
319 1 0.532876 0.440405 4.21377 0.0734894 0.286097 -0.545384
320 1 3.60661 0.760884 0.063628 0.184041 0.762509 0.792928
321 1 6.23672 0.385186 5.92865 -0.351444 0.478949 0.918284
322 1 7.68986 7.74113 7.08622 0.90693 -0.561493 0.0334374
323 1 4.42518 2.64401 5.78856 1.1671 0.0283353 0.772273
324 1 7.90833 2.68747 5.66724 1.84908 -0.469444 -0.946763
325 1 0.839624 1.82195 5.44744 -1.31586 -0.589181 0.462485
326 1 8.38481 9.1525 2.41415 0.725696 0.190266 -1.15654
327 1 5.12172 3.79282 7.56172 -0.790475 -0.777082 1.71519
328 1 9.18847 8.66493 8.99213 -0.804848 -0.20207 0.495173
329 1 2.18835 7.5712 8.67997 0.383412 1.76868 1.33673
330 1 2.38006 7.6353 3.38363 0.402242 -0.3853 0.324724
331 1 7.22738 6.39399 1.03025 0.591555 0.180008 -0.157249
332 1 2.32303 8.57426 7.13624 1.11343 -1.89336 0.292941
333 1 8.62182 7.51837 2.65778 1.12857 0.555883 -0.402451
334 1 2.45751 4.55158 1.75237 0.337661 0.432465 -0.176011
335 1 1.65659 3.81646 3.3132 -0.831023 0.861731 -1.00106
336 1 7.18777 1.30606 5.2086 -0.300822 1.16157 1.01952
337 1 4.52315 7.49248 7.61439 -0.895972 -0.952748 -1.11868
338 1 9.08656 5.03229 3.11954 -0.347249 1.73142 -1.18761
339 1 5.4037 2.39696 7.37754 0.537037 0.740505 -0.622985
340 1 7.76559 5.68955 6.09471 -1.25019 -0.500255 -0.377353
341 1 0.243633 3.53707 1.0107 -0.827339 -0.984538 0.620905
342 1 6.94041 0.458138 3.26496 -0.57373 -0.261069 0.211358
343 1 6.44205 9.31159 9.21438 0.378838 -0.558952 0.845555
344 1 0.971055 7.57952 7.30173 0.0289532 -1.76232 0.378327
345 1 4.10603 4.19706 4.36582 0.306104 0.246124 -1.00638
346 1 1.49036 5.1985 5.93641 0.785295 0.0114427 -0.171653
347 1 5.00678 8.85842 9.10798 0.340528 0.557481 0.810523
348 1 4.84789 1.17513 1.47371 0.5606 -0.79882 0.664374
349 1 1.19626 3.51821 6.26988 -0.195396 0.905864 -0.49103
350 1 8.76158 1.92964 8.88806 0.794193 0.908329 0.0644463
351 1 6.74025 5.25858 3.25112 -1.15274 0.143007 -0.555647
352 1 3.4814 0.247173 2.13484 0.916919 -0.264654 -0.193954
353 1 0.180406 0.501783 6.71932 2.11615 -0.369425 0.293017
354 1 8.28689 6.15613 6.75137 0.369176 -0.769337 0.400287
355 1 7.84094 0.662398 2.51981 0.429355 0.57448 1.38468
356 1 6.86019 3.36869 5.45008 0.409127 -0.642198 -0.882056
357 1 3.40613 3.58012 4.68011 0.021316 0.530976 0.875978
358 1 6.41469 2.53688 8.04918 -1.64329 -0.624746 0.487385
359 1 7.97633 0.625615 5.10315 -0.555602 -1.34457 -1.00551
360 1 5.09519 8.78851 5.45751 0.249356 0.304845 -0.0328893
361 1 3.1599 2.83955 3.97686 1.45648 -1.36163 1.37769
362 1 3.38401 8.89028 6.07516 0.649632 -0.772375 -0.00346455
363 1 7.7344 4.18294 2.95435 -1.05637 0.477348 -0.503162
364 1 3.7747 3.00336 6.39974 0.741129 0.0542193 -0.367742
365 1 6.21442 0.777454 1.59482 0.794046 0.851134 -0.207024
366 1 1.45361 8.14041 0.430775 0.0240096 0.110041 0.380982
367 1 1.35889 1.35054 2.41824 -0.292189 -1.34125 -0.970671
368 1 5.22484 5.33624 8.36055 -1.52673 0.326266 -0.149532
369 1 8.80677 4.91511 6.91169 -1.74392 0.487748 -0.31988
370 1 9.43688 9.00963 2.18984 1.27649 0.17523 0.553758
371 1 6.35515 2.99546 0.64096 -0.117961 0.203813 -0.00920505
372 1 9.26417 2.69653 6.70549 -0.650758 1.06125 1.51544
373 1 6.37848 8.11543 5.19577 -0.494752 -0.588648 0.658439
374 1 3.52905 7.87037 5.90671 -0.6333 -0.290372 -0.398828
375 1 3.53415 4.38844 8.88631 0.242107 0.875099 0.207309
376 1 6.46437 7.44635 0.720276 0.487267 0.212757 0.195656
377 1 6.14414 0.298995 4.28506 -0.572705 0.39049 0.192003
378 1 1.73605 8.56565 5.24406 0.362 0.404318 -1.7582
379 1 4.01616 2.18617 2.52575 -0.951116 0.709654 0.663149
380 1 7.25491 3.83027 7.0908 0.164271 -0.830264 -0.279319
381 1 5.65255 7.56298 6.27378 0.32992 0.0943198 1.04745
382 1 4.97452 0.617522 9.19635 -0.578846 0.0858251 -1.6622
383 1 4.03699 6.62027 5.12354 0.802412 0.461498 0.00558011
384 1 2.53876 8.40406 1.48515 -1.10919 0.265739 -0.671123
385 1 6.42267 6.59546 0.59165 -0.991984 0.481266 -0.00778998
386 1 5.82633 8.41581 0.224804 -0.502028 0.537166 0.625809
387 1 4.17355 2.91415 4.2947 -0.253848 0.65683 -0.13434
388 1 6.50386 1.52292 5.87506 0.174262 -1.02943 1.46769
389 1 3.96342 8.73652 8.69646 0.339109 0.829131 -0.590393
390 1 8.45982 3.67581 0.828487 -0.877937 -1.31826 -0.300174
391 1 3.76209 8.04268 8.32869 -0.384178 0.767552 0.574354
392 1 2.16874 8.3013 9.25311 0.152581 -0.278466 -0.861408
393 1 3.82242 6.82674 0.808095 -0.0759401 1.88785 0.849198
394 1 6.07298 0.725625 9.32079 0.960616 1.08799 -0.113442
395 1 2.60619 3.76204 5.36741 1.13387 1.31749 0.777376
396 1 1.24849 7.97333 8.94591 0.399152 -0.748781 0.814051
397 1 2.68454 5.86334 0.591166 -1.51717 0.686911 -0.669655
398 1 8.94083 1.94117 7.64724 -1.19882 0.479244 -0.612912
399 1 2.05487 6.06037 2.4193 0.34753 -0.197009 -0.464618
400 1 0.567269 2.89247 8.89864 -0.0266503 0.194669 1.2697
401 1 7.85769 8.48214 2.50948 0.706113 0.150851 0.201374
402 1 7.14062 5.92841 6.79272 0.624634 -0.77292 0.300896
403 1 7.63912 2.55027 6.935 -0.990676 -0.192457 0.511745
404 1 2.13798 6.94382 2.51022 0.0881408 0.427507 0.975474
405 1 7.33242 2.19511 1.87914 0.729838 -0.837161 -0.11362
406 1 1.66107 3.97658 5.40855 -0.347718 -0.548104 0.134373
407 1 5.22814 0.575073 6.50073 0.390283 0.290669 -0.167914
408 1 5.23081 8.00094 2.94503 1.45882 -0.150466 -1.24914
409 1 1.51146 3.16572 5.08449 -0.26655 0.960273 -0.290628
410 1 8.07033 3.12684 3.37012 0.509825 -0.803145 0.471834
411 1 5.61916 8.03347 1.82663 -0.171412 -0.219274 0.311624
412 1 7.07809 5.31835 5.52006 -0.812535 -0.222485 -0.978451
413 1 2.40475 2.20771 1.11256 -0.759851 -0.55969 -0.125171
414 1 6.82448 9.144 6.55294 0.0844091 -0.101321 1.07097
415 1 7.84346 6.42877 7.56259 -0.689411 1.00303 0.377336
416 1 8.53195 8.04532 8.8939 0.0168533 -0.952855 0.276057
417 1 5.9267 5.24935 3.87882 -1.1012 0.742339 -0.153293
418 1 7.40161 1.236 3.2389 -0.376631 -0.84454 0.266654
419 1 8.47476 7.35214 7.31683 1.07561 1.25 -1.23435
420 1 3.57141 1.21385 8.29629 0.0551857 -0.856794 -0.340233
421 1 3.47556 0.739414 2.97225 -0.275793 -0.155635 -0.427749
422 1 4.2923 6.32065 4.05838 -0.656027 -0.453167 -0.491366
423 1 3.14659 8.69123 9.15013 0.31659 0.488418 1.14013
424 1 4.75408 1.73367 8.4409 1.60108 -0.126101 -1.51048
425 1 3.45005 5.18901 1.45742 0.237216 1.05429 0.00967217
426 1 7.43313 9.01558 0.629747 -0.144376 -0.903104 -0.241406
427 1 7.46579 7.34214 1.97052 -0.386551 1.44733 1.85103
428 1 2.31523 1.46417 8.40765 -0.372096 -0.563946 1.02971
429 1 7.83215 1.57296 2.25037 -0.468813 1.28846 0.801962
430 1 2.86394 2.55608 6.35789 1.28431 -0.633421 -0.915221
431 1 5.20656 9.28061 7.69835 1.01881 0.457095 0.229645
432 1 8.27269 7.24329 1.25276 -0.232967 0.911839 -0.253747
433 1 2.96095 5.5266 5.53861 0.944704 -0.546933 0.120543
434 1 2.58645 1.116 7.51118 -1.48714 -1.06316 0.556812
435 1 5.86077 9.36124 2.02493 0.423379 -0.756908 0.58673
436 1 8.39992 8.19052 0.674435 -0.633303 0.424215 0.253352
437 1 2.81122 3.45682 7.57338 -0.45543 0.200015 0.406119
438 1 0.760373 4.85829 0.974913 -0.34313 1.05842 0.708774
439 1 6.01692 8.67817 6.05316 0.82484 -0.420863 -0.31286
440 1 5.51459 7.88445 4.78931 -1.23114 0.210943 -0.536106
441 1 2.39436 0.506234 6.21769 0.474379 -0.554353 -1.66077
442 1 6.72534 4.40101 5.4022 -0.187757 0.627727 0.561028
443 1 0.734458 2.42766 3.35747 0.167375 -2.1771 0.0749432
444 1 0.36403 2.97677 7.5214 0.977437 -0.71674 0.359331
445 1 2.83456 4.82219 0.166638 -1.30467 -0.229025 0.0997053
446 1 3.27037 1.66391 1.50756 -0.504261 -0.78286 -0.0279894
447 1 1.23678 5.57253 1.54705 -0.228485 -0.39766 1.0413
448 1 6.94893 2.80562 4.80307 0.527099 0.0529886 0.60401
449 1 6.90802 5.29252 2.12352 0.594773 -0.0501228 -0.566901
450 1 2.13761 2.87803 5.80644 0.473651 -1.34622 -1.52648
451 1 0.613684 0.711981 8.23857 -0.00631577 -0.216346 0.646406
452 1 8.36587 8.64374 7.02148 0.763963 -0.0335154 -0.0513931
453 1 2.04216 1.70068 5.08139 0.316866 0.676288 0.788694
454 1 1.25936 0.236979 4.80809 0.44255 0.823676 0.2556
455 1 0.722938 6.52709 6.20964 0.0821982 -1.01418 0.918586
456 1 6.40381 9.2871 7.90982 1.0694 0.748968 0.477163
457 1 3.36022 4.72383 2.26814 -0.102908 -0.762128 0.814212
458 1 4.80951 5.03877 2.1787 0.285311 0.657538 0.121891
459 1 3.31223 2.49023 1.77583 0.964921 1.34589 0.278401
460 1 0.697473 1.5564 3.56546 -0.813608 -1.14195 -0.690164
461 1 3.65242 5.31223 6.08263 0.320347 0.648541 -0.512112
462 1 0.248998 0.081742 1.11391 1.65986 1.30184 -0.760147
463 1 0.292324 5.77323 7.51353 0.427996 -1.13083 0.0404455
464 1 6.18923 6.78987 6.4409 -0.0487933 -0.769187 -0.808034
465 1 3.93407 1.11557 6.28839 0.314686 1.12972 -0.264189
466 1 1.72189 6.84122 7.17527 -0.851277 0.310113 0.920918
467 1 5.71184 1.33683 5.00304 1.00401 0.493236 -1.09572
468 1 7.21913 2.29335 7.72875 0.894132 0.696942 0.609071
469 1 7.20871 8.64312 4.73778 -0.713987 1.06442 -1.78709
470 1 7.05437 3.76966 4.57371 -0.568414 0.685114 -1.51067
471 1 4.07489 1.56207 0.795526 -0.592236 0.664825 -1.05405
472 1 1.75667 0.558386 0.474397 -0.05362 -0.553662 0.773194
473 1 7.90368 3.67779 1.94492 0.209946 -0.266531 -0.298335
474 1 8.67569 1.02143 2.37378 -0.776475 0.92773 0.0877336
475 1 6.48459 1.90648 4.52704 -0.631413 0.461645 -0.15963
476 1 7.79428 4.75595 5.77509 0.468025 1.11227 0.645484
477 1 4.8541 2.6213 4.85582 0.447278 -1.25857 0.355966
478 1 7.03559 9.19085 8.65672 -0.225837 0.438821 -1.07202
479 1 8.71878 6.89633 2.01617 -1.04579 1.24159 0.04501
480 1 6.72381 6.04649 5.9797 -0.141357 0.642219 -0.751556
481 1 7.11322 4.88934 9.09935 -0.943764 0.18944 1.39909
482 1 6.54891 8.49161 0.577707 0.479547 -1.25388 0.561682
483 1 8.33014 0.493956 9.34353 1.42979 0.664848 -0.597421
484 1 6.29674 4.95935 4.74777 0.439171 -0.143395 -0.199512
485 1 7.37042 2.06158 2.83411 -0.448461 -1.45958 0.455883
486 1 4.93812 3.48629 2.43749 1.00119 0.664123 0.019791
487 1 3.07497 8.29119 7.59177 -0.385831 0.0927473 0.478554
488 1 8.0405 3.88283 8.52025 -0.0048482 1.46142 1.08272
489 1 6.72776 2.99543 6.99174 0.0271097 -0.521127 1.04153
490 1 8.47073 2.23582 6.1942 0.498546 -1.8827 -0.295168
491 1 4.60184 0.246231 1.98103 0.777753 0.0352012 -1.52014
492 1 2.70869 8.32061 4.04906 0.953937 -1.00488 -0.197768
493 1 7.70446 1.05722 0.298508 0.417041 0.0095105 0.99754
494 1 3.95256 2.74601 3.32964 -0.705906 0.480186 -0.109166
495 1 4.05225 5.09475 9.06006 -0.363439 -0.209513 -1.4413
496 1 2.07213 7.87167 4.54742 -0.608118 0.289754 -1.81479
497 1 0.747082 2.44551 6.33445 0.770428 -0.0573212 -0.490507
498 1 5.09469 9.08169 3.06315 -0.694567 -0.337629 -0.334118
499 1 1.27682 7.84852 5.66217 0.0520627 0.727144 -0.287185
500 1 1.82806 0.446975 3.58467 -0.216728 0.811621 -0.174531
501 1 6.15066 0.256745 6.94703 -0.378902 -0.00652925 0.284133
502 1 0.568059 8.27852 0.454311 0.879062 -0.11266 2.20164
503 1 8.11177 5.16113 9.11405 0.0582989 0.413153 -0.11857
504 1 8.58516 3.3016 4.23813 -0.14818 -0.131902 1.63574
505 1 8.64373 5.93188 0.0948524 2.44241 -0.573033 0.933639
506 1 7.7294 3.16617 6.33826 1.73285 0.689158 -0.690285
507 1 2.03107 3.90576 9.00752 -1.18716 -0.541687 -0.281498
508 1 9.01223 6.65091 8.06728 -0.801926 -0.0557678 -0.142014
509 1 7.983 9.00731 1.60783 0.83445 -0.392998 -0.215412
510 1 2.88183 1.67263 3.36647 -0.785542 0.835523 0.673502
511 1 8.0199 6.4913 1.64895 -0.0596352 -0.222867 -0.634041
512 1 8.69064 5.5706 7.53491 1.47296 -0.780685 0.442365
513 1 7.58114 7.14927 4.65656 0.968056 0.482651 -0.0575228
514 1 2.4406 3.0725 2.42032 0.1326 1.03247 0.487188
515 1 4.20721 8.50479 5.77727 -0.19068 -0.268819 0.0632722