ITEM: TIMESTEP
108900000
ITEM: NUMBER OF ATOMS
1000
ITEM: BOX BOUNDS pp pp pp
0.0000000000000000e+00 9.4000000000000004e+00
0.0000000000000000e+00 9.4000000000000004e+00
0.0000000000000000e+00 9.4000000000000004e+00
ITEM: ATOMS id type x y z vx vy vz
1 1 3.54798 0.152164 0.846181 -0.30839 -0.928562 -1.38198
2 1 6.75166 6.78556 0.0124131 -0.459525 0.103365 -0.310855
3 1 6.39073 5.9849 0.0824502 2.56936 -0.980978 0.789751
4 1 6.76616 9.21887 1.27898 -0.281959 0.848475 0.145731
5 1 6.6471 0.900883 3.55637 -0.360274 0.0615719 0.00531658
6 1 4.50614 2.30529 2.8443 -0.547637 -1.40462 -0.734461
7 1 3.5984 4.35277 5.06514 0.0117231 0.212522 0.524662
8 1 0.165233 6.72695 2.56055 0.993497 0.457313 0.36764
9 1 8.97614 0.704283 6.15787 0.26374 0.146086 -0.713684
10 1 4.52558 4.38189 5.16479 -0.661322 -0.90562 -0.411383
11 1 7.35145 1.92853 2.81082 -0.0690465 -1.30431 -0.789454
12 1 1.21842 1.05244 4.83729 0.338056 -1.0132 0.114394
13 1 8.37984 2.35623 8.69553 -1.30933 -0.199119 -0.762504
14 1 5.30019 4.68774 6.38887 -0.259109 -0.191054 -1.65949
15 1 2.98419 0.0269217 9.2295 -0.815089 0.245431 -0.159522
16 1 0.677143 1.58339 1.99798 -0.674878 -1.83296 0.0950944
17 1 9.12157 7.52738 2.61973 1.28105 1.09599 -0.76619
18 1 4.68378 5.00161 8.65787 1.91088 -0.120691 0.292358
19 1 2.85883 3.11444 9.11386 -0.235024 -0.145339 0.781537
20 1 8.81558 0.185082 3.73646 -1.48611 0.566077 -0.667494
21 1 5.99219 3.10976 8.75561 -1.28095 0.558835 -0.554776
22 1 0.209909 6.8678 5.41845 -0.585089 -0.270088 -0.266449
23 1 7.71244 2.22793 8.07822 -0.751856 0.150735 -0.820678
24 1 3.1773 4.66547 1.89006 2.52401 -0.548954 0.0807161
25 1 4.20904 6.20755 3.10636 -0.268976 0.312809 -0.443218
26 1 6.19894 3.99516 8.96503 0.164985 0.35055 0.308228
27 1 7.07339 7.87589 3.37094 -0.460397 -0.770392 -0.691425
28 1 9.06756 0.500301 1.22906 0.210582 -1.21091 -1.7495
29 1 7.75963 3.32384 2.89085 2.0065 -1.24385 0.381168
30 1 4.9938 5.17739 0.244162 -0.424224 -1.23432 -0.160383
31 1 3.71492 1.73271 7.40348 -0.491216 0.545104 -0.578087
32 1 7.52862 4.73379 1.44307 0.647558 0.739108 -0.152691
33 1 1.63891 7.93961 7.40514 0.659256 0.127811 1.286
34 1 8.99852 2.56924 6.31539 -0.0705856 1.33506 1.49909
35 1 4.96202 7.39231 4.95681 0.812565 -1.21608 -0.00191464
36 1 0.186283 0.140828 2.13533 0.308836 0.315133 -1.04179
37 1 5.90828 5.49372 5.62753 -0.610012 0.853125 -0.271804
38 1 7.83917 5.56334 5.2508 -0.071503 0.10879 -0.364952
39 1 3.59486 4.30801 7.73774 -0.438649 -0.855498 0.374147
40 1 7.8786 1.59263 4.1495 0.227488 0.397105 -0.183144
41 1 8.30249 8.94314 8.85455 -0.339283 -0.435037 -0.696328
42 1 5.51932 4.32525 7.26598 0.349997 0.906654 -0.0676009
43 1 5.2236 7.50396 8.89685 0.953923 -1.14105 -0.564858
44 1 3.47983 3.54185 0.153242 -0.296611 -0.938075 1.15972
45 1 5.59783 8.17127 7.23156 0.838753 0.346231 0.51047
46 1 7.84594 8.20332 2.71459 0.980063 -0.442485 0.94376
47 1 1.90498 7.98599 6.30078 0.0683059 0.633093 1.02792
48 1 3.53542 6.01714 5.2125 -0.382534 -0.138615 0.794952
49 1 3.49209 5.6548 3.43024 0.419497 -0.469695 -0.639726
50 1 7.23958 4.62325 5.17459 1.47383 0.771474 -0.0410024
51 1 7.76643 6.74811 7.34276 0.516373 -0.126164 -0.604137
52 1 9.1239 1.41506 8.34243 -1.49066 1.51919 -0.604786
53 1 1.85505 2.60931 7.30371 0.143072 0.0818733 0.306461
54 1 5.16625 6.6413 4.47474 -0.275697 -0.122131 0.0771304
55 1 7.33044 4.70787 6.05369 -0.0827436 1.16279 0.304956
56 1 6.01845 4.24803 2.15532 1.51392 0.306943 -0.311196
57 1 7.87449 4.68545 6.86082 -0.814905 -0.746497 1.21897
58 1 5.66686 7.65358 2.8914 1.13056 0.514856 0.854758
59 1 1.42689 2.65992 8.52297 0.968935 -0.245751 0.613355
60 1 5.0783 0.714054 2.11753 1.16482 -0.243386 0.827293
61 1 8.13795 6.77441 6.57627 0.767604 0.574684 0.108475
62 1 9.05653 5.2147 1.69614 0.0180859 0.960264 1.23004
63 1 1.95726 6.63508 0.217263 -0.0987101 0.537757 1.46803
64 1 8.41273 4.90302 1.08174 -0.186003 0.540964 0.381707
65 1 5.51794 5.23025 3.96371 0.171251 1.31268 0.22691
66 1 2.78244 7.12693 0.257241 -0.195326 1.39045 0.858365
67 1 7.11782 8.31316 1.534 -0.596996 0.235602 -1.28013
68 1 8.97453 4.24228 0.159806 0.204245 0.734997 1.52572
69 1 2.7801 1.80477 7.44371 0.525197 0.667093 -0.204637
70 1 4.69771 3.18558 8.66468 0.0700789 1.77578 -0.721641
71 1 5.42746 6.13543 0.189661 -1.20413 -0.799192 1.07085
72 1 8.59358 0.131868 7.4573 -0.732338 0.366822 -1.48004
73 1 1.69402 8.08201 9.38302 0.0693966 -1.02975 1.19088
74 1 6.7985 5.34615 5.43552 1.08085 -0.363325 -0.44627
75 1 8.63736 6.75643 2.98724 -0.335333 0.187578 -0.705995
76 1 1.0858 6.7526 9.21474 -0.35201 -0.378411 1.3144
77 1 0.29912 6.89788 6.4008 0.0265486 -0.102822 1.24113
78 1 1.95834 5.86166 5.8173 0.0874326 0.434028 -0.234313
79 1 4.03202 3.76448 6.64421 -0.344623 -0.791104 -0.269606
80 1 3.00148 1.5603 3.7682 -0.455962 -0.327459 0.00701258
81 1 8.39005 2.58832 4.14178 0.589324 0.54621 0.529218
82 1 1.308 3.2019 5.52573 -1.12851 1.43212 0.0672112
83 1 6.20457 5.30329 2.51515 0.101433 0.299652 -0.117176
84 1 8.04036 5.81071 6.81367 -1.0006 0.324603 1.11514
85 1 7.8137 0.0558184 1.16306 0.314853 0.706717 -0.27975
86 1 3.6703 8.02142 1.48189 0.177427 0.173026 -0.364123
87 1 1.18661 4.62491 0.904986 1.18529 -1.01384 -0.147328
88 1 8.42116 1.44682 0.349664 -0.13436 0.900119 -0.0456491
89 1 4.74505 2.03599 9.16954 0.683434 0.618065 0.663487
90 1 1.78259 4.18774 8.2903 0.630873 0.624557 -0.432931
91 1 4.94722 0.420681 5.17299 -1.30733 0.216158 0.73243
92 1 3.43003 6.04568 7.0225 0.251621 -0.0207771 1.30881
93 1 3.74953 9.05921 7.68269 -0.686769 -0.70877 -0.532615
94 1 5.20927 6.76723 5.62753 -0.657812 0.459329 -0.159164
95 1 3.94633 1.66105 3.20979 -0.0469783 0.578939 -0.530791
96 1 7.2116 0.33129 9.06221 -0.090335 -0.189347 -0.536174
97 1 6.71552 2.50324 1.74399 1.74608 -0.939549 -0.22052
98 1 6.57397 0.926615 7.88548 0.315101 0.539643 -1.7599
99 1 2.84772 5.41722 7.34483 -0.631749 -0.952043 -0.379392
100 1 5.9674 6.90154 4.18921 0.613206 0.273016 -0.563316
101 1 2.45673 8.80336 6.69792 -0.599209 0.163575 -0.0903425
102 1 2.51799 5.32793 6.48098 -1.9101 -0.869119 0.674501
103 1 3.41365 8.62415 6.7302 1.3642 -1.19088 -0.681315
104 1 2.4824 6.52604 6.78401 0.0636623 0.762208 0.973438
105 1 7.08943 7.94414 6.59168 0.497074 -0.481538 1.61545
106 1 1.80697 4.31585 3.17118 -0.906763 0.937835 -0.569204
107 1 3.21274 6.81637 2.81373 1.92721 -1.23844 -0.416296
108 1 4.00844 3.12522 0.764831 -0.251342 -0.502443 0.685576
109 1 7.95356 5.95751 2.78256 0.336699 -0.861988 0.865807
110 1 6.56017 2.39764 5.85276 1.04993 0.0405154 -1.77886
111 1 4.83389 1.34634 2.74403 1.27388 1.00247 0.995802
112 1 3.87922 4.81514 3.66517 -1.75881 0.154037 0.635037
113 1 4.03807 0.916982 2.66771 -0.325836 -0.553388 1.2076
114 1 2.09191 3.26909 1.24825 -0.236156 -0.831852 0.400347
115 1 7.94038 7.84919 8.40673 1.34832 -0.10111 0.384966
116 1 0.247882 5.68259 2.31593 0.0271045 0.485627 0.941565
117 1 0.699256 3.447 1.59715 1.54439 0.442015 -0.138321
118 1 5.09768 3.68277 4.5776 -0.634576 1.05196 -2.21013
119 1 8.34833 3.45548 0.714485 0.0710294 1.63636 -1.1581
120 1 7.0574 6.1249 4.61639 -0.0981322 0.273457 0.949199
121 1 1.09442 0.520182 0.057754 0.245856 0.864326 -1.60508
122 1 3.59342 8.19106 4.3829 -1.26501 -0.544588 -0.749691
123 1 0.334005 7.78736 1.1276 -0.0813005 0.0556048 -0.471767
124 1 4.73108 6.98231 0.0611733 -1.4553 -0.455987 -0.497847
125 1 0.428822 8.67704 8.262 -0.902048 0.497367 -0.259515
126 1 0.814635 7.64892 6.6689 0.205022 -0.381603 -0.675926
127 1 3.58574 4.01752 2.43739 0.416129 0.49895 -0.124734
128 1 0.131262 5.83935 7.7212 -0.25346 -0.625891 1.03259
129 1 0.0265484 5.18245 6.04724 -0.989975 0.884678 -0.837172
130 1 5.62036 1.47852 0.0145574 -0.39278 0.66852 -1.04561
131 1 2.23083 8.75753 7.63821 0.176544 0.321313 -0.45113
132 1 0.808365 7.67331 0.00813803 -0.212117 -0.501723 -0.929559
133 1 2.62649 6.75349 2.07104 -0.369153 0.988014 -1.19018
134 1 8.67091 5.99893 2.0512 -0.175373 -1.06468 0.442054
135 1 3.93863 1.01502 8.95547 -1.05589 -1.39839 1.73638
136 1 1.2056 2.60205 1.19992 0.783067 -0.482971 1.11165
137 1 7.34544 8.03875 5.46608 0.211168 -0.807104 0.213844
138 1 8.50235 2.70118 3.07293 0.39035 0.362666 1.2596
139 1 0.541694 8.42234 7.21601 1.15506 0.702219 0.643305
140 1 4.60635 5.48389 3.61718 1.12076 -0.850861 0.168464
141 1 4.44365 8.52279 5.07506 1.15392 -0.323551 -0.151383
142 1 7.0137 5.88911 3.58973 0.946851 -0.885049 1.14826
143 1 3.00269 9.3241 7.22505 0.297677 -0.812858 -2.09439
144 1 2.27711 4.18668 1.21193 -0.0715056 0.706784 0.511607
145 1 6.15152 7.06386 5.1744 0.670146 1.3561 0.17223
146 1 5.7278 1.96458 4.23072 -0.66947 -0.12855 0.136547
147 1 5.0969 6.97139 1.17882 -0.391959 1.04465 1.51285
148 1 8.96552 4.48236 6.60848 0.386452 -1.03193 0.334411
149 1 3.3648 1.32162 0.176952 -0.433157 0.719591 -0.550142
150 1 3.14161 0.611931 5.26011 0.439415 1.18781 -0.333978
151 1 3.41046 0.646092 6.11825 0.647296 -0.45992 0.399863
152 1 5.43653 8.04799 2.08058 0.0527735 0.36741 0.966907
153 1 5.76149 4.98436 0.70626 -0.929432 0.513681 1.12988
154 1 5.73266 3.08137 1.1644 1.7285 -0.131654 0.749195
155 1 0.445827 6.5113 8.74156 0.685756 -0.420471 -0.548563
156 1 1.2942 1.35876 8.96335 1.30863 0.778938 -0.108194
157 1 7.33873 7.1001 1.82278 1.07185 -0.281535 0.649713
158 1 4.76731 1.48117 6.19219 1.02141 0.10185 -0.285223
159 1 2.9357 7.35528 3.78707 0.713025 0.787814 -0.238703
160 1 0.165539 4.99903 3.61994 1.79985 -0.912558 0.880793
161 1 0.348686 2.35299 1.02743 0.0577779 -0.396457 -0.0482787
162 1 7.16046 4.16721 9.3905 -0.683257 1.20078 -0.145025
163 1 0.344441 2.87609 8.80223 -0.406221 -1.03544 -0.208685
164 1 2.49876 8.27962 3.58343 -0.0455762 -0.233817 0.420237
165 1 0.551273 2.92223 3.03084 1.13318 0.463349 0.044253
166 1 4.47882 1.71756 5.27823 0.0454035 0.839712 -0.96384
167 1 2.19695 8.7262 8.71344 0.360634 -0.605225 0.600083
168 1 8.56325 0.235791 2.06155 1.29496 -0.402655 0.641628
169 1 7.39627 1.3849 5.64452 -1.22476 0.146866 -0.14528
170 1 9.23294 2.97796 2.48271 -0.412989 0.0422279 -0.810558
171 1 2.07041 2.50699 0.740954 -0.316292 -0.560857 -0.389543
172 1 6.61152 2.50525 4.26082 -0.826809 0.295108 0.345294
173 1 0.228047 6.02506 3.17319 0.40688 0.65159 -0.416667
174 1 2.69795 0.11633 2.16823 -0.553123 -0.259974 0.619968
175 1 4.4462 4.42399 3.06025 -0.444531 1.2144 0.269844
176 1 2.26381 3.11713 5.19492 -0.126155 0.0515719 0.895447
177 1 6.52194 1.70977 2.30705 -0.25022 -0.0836802 -0.0979009
178 1 0.358022 7.96755 4.26663 0.497384 0.906382 -0.533172
179 1 5.02236 2.10408 6.91757 -0.116468 -0.590073 2.45655
180 1 5.47791 8.63483 8.98519 0.187376 0.388058 0.987732
181 1 5.0911 6.18369 1.73352 -0.62871 0.190309 0.328161
182 1 7.83984 4.17445 2.30911 0.816862 0.420982 -0.033005
183 1 5.05206 0.28377 2.94669 -1.13194 0.492633 0.687184
184 1 5.70741 2.80566 6.75411 0.0793982 0.239943 0.110339
185 1 6.49636 8.22261 7.44807 -0.642687 -0.638428 -1.09997
186 1 3.78973 9.22764 8.90392 1.86886 1.10257 -1.6217
187 1 6.29953 0.922406 0.363842 -0.488096 -0.100949 1.11252
188 1 1.51252 1.8134 8.12093 -0.363553 0.39725 0.257601
189 1 7.36822 9.23225 6.09566 -1.70368 0.386643 0.245016
190 1 0.846436 1.65981 5.42012 -0.529809 -0.231414 1.08769
191 1 8.81286 7.84121 4.12063 -1.27088 1.83155 0.43268
192 1 7.01605 3.94008 6.37862 0.0815039 -0.862145 -0.237493
193 1 2.90066 2.18708 5.5673 -0.812433 -0.970194 1.66536
194 1 0.0665121 2.27227 1.98106 -0.461596 -0.747936 -2.07928
195 1 7.06746 2.68904 8.51542 -0.549999 -0.251497 -2.005
196 1 1.0256 4.92213 3.30132 -0.58654 0.0601166 0.837798
197 1 8.96698 5.22579 7.07584 -0.248108 0.924088 -1.30161
198 1 0.917991 4.62242 8.33503 -0.717878 -0.0422839 -0.544187
199 1 8.65982 9.27157 4.94521 0.368369 -0.380765 -0.661629
200 1 4.31175 2.55186 8.20388 0.106053 -0.760707 -0.112707
201 1 9.05219 8.66566 4.49401 0.102178 -0.0101953 -0.278012
202 1 0.351896 0.994391 2.57109 -0.875982 -0.564357 -0.820217
203 1 1.61114 1.55388 3.70577 0.0857985 -0.591023 -2.20495
204 1 8.92948 4.16643 7.78014 0.303932 -0.437447 0.273632
205 1 1.13154 4.13259 5.45439 -0.452321 0.824723 0.370203
206 1 7.43141 6.12775 1.89525 0.770501 0.949824 -0.219058
207 1 7.65099 6.3783 0.0835979 -0.472784 0.159191 -0.839141
208 1 1.17945 7.56531 2.57119 -0.700878 -0.129656 0.265928
209 1 6.67756 3.28285 5.05923 -0.785562 0.229159 0.162081
210 1 5.18101 1.01726 7.07898 -0.0187837 0.890352 0.605061
211 1 2.88801 2.07108 0.419907 -0.0841793 0.810308 0.831587
212 1 9.05058 6.30744 6.94845 -0.104548 1.63455 -0.525393
213 1 7.36935 2.71484 5.36836 0.132712 0.124308 0.529353
214 1 0.731896 8.90879 3.28345 0.434738 -0.0492398 1.59483
215 1 4.61556 7.0364 7.77914 -1.02127 0.960913 0.769876
216 1 6.52404 5.71277 8.32788 0.136342 -0.330874 -0.167539
217 1 8.23748 3.84888 6.88942 -0.144906 -0.155374 -0.21176
218 1 3.95206 9.32631 3.37869 0.242259 -0.941529 1.18124
219 1 2.96094 0.0193027 8.24477 -0.0602555 -0.97161 0.617697
220 1 4.06205 1.58146 2.00024 0.306208 0.799288 -0.400506
221 1 6.08381 1.32088 4.59734 -0.228848 -0.33567 1.4768
222 1 4.52096 2.99702 6.60481 0.106138 0.271739 -2.03075
223 1 8.65093 5.08154 9.10686 -0.157496 0.948347 0.208082
224 1 0.857116 9.36139 6.46882 -1.12552 -0.576124 -0.391845
225 1 0.465191 1.7991 8.71019 -0.776783 0.628192 0.09518
226 1 3.05411 7.49103 4.80174 1.13505 1.0825 -0.452163
227 1 5.92898 0.496025 5.32349 -1.13646 -0.812739 -1.44442
228 1 1.80327 4.12288 0.123169 1.1908 -0.666226 1.31731
229 1 2.96659 0.1943 3.82566 0.981488 2.0078 0.846824
230 1 8.27154 3.5045 1.94982 -1.11952 -1.55529 1.0976
231 1 6.55277 3.10753 6.72735 -0.536611 0.0102761 0.277605
232 1 3.00022 3.36059 5.687 0.285033 -0.251238 -0.142294
233 1 8.04657 7.50457 1.40551 -0.708439 -0.758074 -0.225713
234 1 3.53993 3.20501 4.66247 0.746299 1.39822 0.427167
235 1 5.35669 6.57737 8.73665 1.01645 -0.302731 -1.21249
236 1 4.00986 3.38032 2.80112 -0.379497 0.520006 -1.14975
237 1 4.67459 2.66264 0.36197 0.686232 -0.0441866 -0.902831
238 1 0.0241884 1.78502 7.5132 -1.1391 0.204349 -0.602484
239 1 0.455982 9.30728 9.15622 0.960228 0.13046 -0.230176
240 1 6.92919 6.7824 8.11316 -0.32965 -0.502544 0.6491
241 1 4.22469 3.73388 4.54197 1.09668 -0.200421 0.812626
242 1 8.83022 4.96529 8.21793 0.349946 0.542089 -0.476858
243 1 6.31444 0.939862 2.05416 0.844047 0.376914 -1.63892
244 1 3.74972 6.20023 0.0218072 -0.0520334 1.29948 0.680525
245 1 4.72946 9.12012 9.35028 -0.26652 0.4554 0.637526
246 1 1.51139 0.875223 3.17605 -0.028427 1.04043 -0.263181
247 1 9.16795 3.7354 1.84121 0.169508 -0.971835 0.669731
248 1 2.30848 6.81851 1.06737 -0.78029 -0.15077 -0.692219
249 1 1.92185 8.91927 5.48483 -0.767103 -0.774492 0.288026
250 1 8.55369 2.17825 1.93616 1.9796 -0.408999 -0.0953078
251 1 1.76646 0.717905 1.76602 0.104388 0.0929213 1.3716
252 1 3.50602 9.21211 4.41777 0.423512 1.0144 -0.402195
253 1 0.459625 4.66694 6.77288 -0.248521 1.00191 -0.346714
254 1 6.25087 1.78448 3.11541 0.238653 0.207051 0.209413
255 1 3.94244 4.52347 6.01218 -0.276087 -0.311527 -0.815996
256 1 7.08675 1.72918 6.4636 -0.18031 -0.563574 0.220618
257 1 8.90311 2.94354 1.40083 -0.538241 -0.197811 0.637898
258 1 8.19412 1.14212 8.71614 0.775504 0.584669 0.325783
259 1 2.45469 6.53005 4.18127 -0.192691 -0.896528 0.0476043
260 1 7.63445 0.809179 7.25205 -0.353869 -0.401019 0.11027
261 1 6.04485 2.22812 8.79717 -2.0623 0.243565 0.363158
262 1 8.51483 8.9715 2.73205 0.648505 1.17866 0.00358188
263 1 6.64884 1.94779 8.0429 -0.0759854 0.0812838 1.58009
264 1 1.54157 5.95691 4.07478 0.991128 1.10617 -0.138426
265 1 4.34747 8.59995 2.77699 0.1751 -1.01226 -0.130995
266 1 4.80196 7.54025 4.067 -0.262532 -1.56693 -0.695026
267 1 0.437725 3.00327 4.02235 -0.814198 0.940317 0.607405
268 1 2.06106 1.0742 0.113727 -0.720957 0.151699 0.138175
269 1 3.44347 6.06815 8.39954 -0.183723 -0.910731 -0.678841
270 1 0.948178 3.50554 4.65712 0.805454 -0.658054 -0.147355
271 1 7.88736 1.7994 6.95493 -1.09205 -0.700556 0.0660996
272 1 5.3439 2.3661 2.72136 0.181732 -0.0733939 0.0981547
273 1 4.24658 6.32968 2.04017 0.0512166 1.1801 -1.31636
274 1 0.320055 7.07485 1.62792 -0.315707 -0.380006 0.0697491
275 1 6.90285 8.71821 0.574926 0.115065 1.33292 -0.29601
276 1 7.92323 4.17024 7.73889 0.557832 -0.709885 0.533143
277 1 6.54183 7.68456 4.48552 -0.0580945 0.323116 0.667355
278 1 8.65869 4.59953 2.19284 0.16857 0.970222 -1.76398
279 1 6.14431 0.850947 7.01585 0.403172 0.641215 -0.322649
280 1 8.05104 3.99956 6.02954 1.65486 -0.198946 0.959052
281 1 6.89206 1.45339 7.23332 -1.79136 -0.254454 -0.678974
282 1 0.143002 3.49802 0.685385 -0.435657 -0.559231 -1.12879
283 1 5.32363 8.36516 5.00699 -0.195147 -0.664963 0.664494
284 1 2.73521 4.61772 8.12953 -0.0746666 -0.48328 -0.345949
285 1 7.47431 5.85525 7.43668 -0.65652 0.700872 -0.643188
286 1 9.15471 5.14325 0.579564 0.294252 0.223751 -1.12559
287 1 0.62793 5.70568 0.232709 -0.184593 0.5319 -1.76273
288 1 1.70438 2.84636 6.30003 1.0836 0.251845 -0.962349
289 1 2.9583 7.69752 2.69624 0.42578 0.518952 -1.17179
290 1 0.652573 8.33234 0.515831 -0.00752158 0.594371 1.23862
291 1 2.12648 3.71849 7.10555 0.564097 0.0137127 0.786024
292 1 8.50429 1.85565 7.69772 -0.586232 0.071524 1.01154
293 1 7.0577 8.72661 2.4376 -0.851103 0.0865949 2.14175
294 1 0.498469 2.06269 3.05456 -0.207826 0.542767 0.137066
295 1 4.17546 3.60812 7.55489 0.438733 0.996075 -0.315676
296 1 9.05708 5.36038 4.48927 1.3144 -0.194351 -1.37301
297 1 3.5349 0.985635 4.36222 1.17545 0.455571 -0.447848
298 1 0.390415 9.25315 4.05071 -0.857398 -1.13088 -0.682557
299 1 3.34153 3.43644 7.21946 -1.38946 -0.153185 0.314988
300 1 1.49504 8.57181 2.84188 -0.708229 -0.138835 -0.503541
301 1 7.0331 1.45786 0.213916 -0.0994545 -1.27856 0.435139
302 1 1.12544 4.01212 6.30777 0.838362 0.541678 0.874141
303 1 8.13406 8.46708 6.74383 1.13079 -0.557969 -0.203396
304 1 4.89282 1.80906 7.73447 -0.0773466 0.297691 -0.28226
305 1 1.76499 5.78179 6.71477 -0.821709 0.979061 -0.511229
306 1 9.36601 2.5619 5.50055 -1.01665 0.643483 0.56319
307 1 2.75678 3.89794 8.80956 1.01881 0.446492 -0.748399
308 1 0.0858006 1.6663 5.86034 0.252866 0.634033 -1.2508
309 1 1.95183 6.16036 2.71178 1.15329 1.36363 0.322562
310 1 7.31464 8.78348 8.92098 -0.510742 -0.523887 0.61143
311 1 5.81101 0.577211 9.08946 -0.374522 -0.669265 -0.544352
312 1 4.72921 4.07665 6.16897 0.14274 -0.138841 1.60427
313 1 6.11706 7.73032 6.64246 0.488583 1.44102 0.44402
314 1 2.30256 3.25979 3.27079 -0.176407 0.183577 -0.0422588
315 1 3.30084 3.51506 8.1795 -0.967097 0.784101 -0.109604
316 1 6.00964 2.63454 3.49753 1.56469 0.117306 -0.418755
317 1 0.904369 0.575632 3.98777 0.690889 -0.610798 -0.251898
318 1 3.75233 7.31812 0.888445 -0.848288 1.33882 0.65428
319 1 1.24812 4.48539 4.0432 -1.29667 -1.42983 -0.0599738
320 1 7.46171 2.84668 4.52124 0.724007 0.233991 0.0325976
321 1 7.70458 9.01644 0.26382 0.535458 0.631449 1.96604
322 1 5.49202 7.24236 7.03231 0.0917666 0.600438 1.79055
323 1 9.26384 0.886979 7.16324 -0.155566 0.0290098 0.669241
324 1 2.71684 4.95167 1.11391 0.923142 1.46629 -0.929822
325 1 4.13353 0.190859 6.61484 -0.986164 0.309052 0.347607
326 1 6.46994 7.78567 9.27312 -0.462941 0.134312 0.320338
327 1 3.10822 3.20283 2.91924 0.585653 0.262659 -0.94521
328 1 7.90632 8.83881 5.35285 0.496515 0.132636 -2.4486
329 1 1.18738 3.37767 0.316623 0.611855 0.216563 0.356023
330 1 7.7992 2.26956 3.46808 -0.115469 -1.26141 -0.129898
331 1 6.11135 3.65694 0.339557 -0.933423 -0.241685 -0.921606
332 1 7.15084 5.51383 6.37809 2.3508 0.908945 0.859538
333 1 9.17757 1.20361 3.46948 -0.0780668 -0.0771584 -0.659695
334 1 9.14889 6.62722 7.94592 0.312575 -1.04853 -1.24942
335 1 5.59274 2.57989 0.160655 -0.748415 -0.710838 -1.41982
336 1 3.25651 2.49594 4.09083 -0.446208 -0.427693 -0.579273
337 1 3.69923 2.43398 0.215336 -0.450267 -1.01115 -0.587576
338 1 2.04447 7.95849 2.50121 -1.17367 -0.0760649 0.2739
339 1 4.11646 0.228576 0.235415 0.84518 0.893262 0.232619
340 1 2.78783 5.73167 5.56003 -0.273003 -1.94266 -0.435046
341 1 8.16516 7.60535 6.96657 0.674446 -0.829596 0.417922
342 1 4.5998 5.16673 6.23509 -0.123318 -0.449804 -1.33311
343 1 4.24731 0.044587 2.46506 -0.357041 0.0672289 -0.0967019
344 1 1.53276 1.71457 2.48096 -0.146002 -0.176274 0.482561
345 1 1.47748 3.56025 3.87417 0.716874 0.568096 1.18991
346 1 5.93379 8.86579 0.53499 0.965564 1.05589 -0.377207
347 1 2.38439 5.62513 8.10022 0.492765 -0.143741 0.675819
348 1 8.13892 8.85417 4.31118 -0.423557 1.56057 1.25658
349 1 3.1663 8.51828 8.59198 0.452245 0.201792 -0.782414
350 1 7.27584 3.71809 7.22375 0.590343 -0.214437 -0.150409
351 1 4.29209 6.01499 6.63391 0.426602 1.40001 0.898298
352 1 7.57847 0.924912 3.66364 -0.620843 0.862169 -0.211728
353 1 6.2048 8.58859 1.7821 1.69516 -0.259636 -0.960241
354 1 4.38208 6.26514 4.02183 0.369561 -0.799655 -0.910463
355 1 2.46083 1.52627 8.36162 0.0231083 -0.66352 -0.31747
356 1 5.0762 4.38603 3.71129 0.0034946 0.284183 -0.241711
357 1 5.21388 2.39281 8.42341 0.368486 0.567091 0.156783
358 1 4.56641 9.18145 8.2149 1.28833 -0.0993919 -0.0825771
359 1 8.01685 3.49761 3.90657 -0.129627 -0.704809 1.42915
360 1 4.13608 7.09455 3.2598 -0.267564 -0.294154 -0.0111313
361 1 0.48912 8.10311 2.87043 0.581257 0.52833 0.540969
362 1 8.1008 4.38256 5.08918 0.23885 -0.573687 -0.898696
363 1 0.837541 4.31036 7.44372 -0.200191 -1.4415 0.0896894
364 1 4.14805 2.10922 6.49606 0.816063 -0.672203 -0.864614
365 1 2.19657 7.12257 7.68179 -0.605657 -1.0566 0.587789
366 1 6.14804 2.76215 7.80089 -1.01601 -0.833847 0.632527
367 1 6.2399 3.32876 1.78746 -0.496931 -0.264234 0.588962
368 1 7.10455 0.589624 0.701152 -0.968117 -0.855104 -1.05155
369 1 3.79822 8.60741 0.150156 -0.182221 -0.111434 0.562187
370 1 2.31751 0.993866 2.39618 -0.858226 0.309002 -0.47095
371 1 5.01887 6.92766 2.51472 -0.0971357 -0.0325172 0.945768
372 1 0.466313 6.9893 0.785708 -0.0519954 -0.0969697 0.337669
373 1 3.99246 8.29635 8.26709 -0.258504 -0.121012 0.683021
374 1 0.157173 4.5605 2.77653 0.576307 1.21585 0.595046
375 1 0.16926 2.61927 6.97437 0.0317161 0.165315 -0.614419
376 1 1.47575 8.14111 1.05451 0.859864 0.604659 -0.0600814
377 1 4.19054 6.59782 0.94635 -0.205914 0.372161 -0.527593
378 1 1.87202 5.1257 4.06938 0.3323 0.71011 0.365181
379 1 8.53975 9.09146 0.755691 -1.31185 0.183314 -0.222019
380 1 2.09337 2.17909 4.93426 -0.558512 0.730071 0.569107
381 1 7.16517 5.24333 2.21614 -2.36846 -1.43168 -0.228276
382 1 8.50702 0.867967 7.92196 -0.688731 0.712586 -0.360049
383 1 4.35675 4.65391 6.91662 0.535883 -0.0734105 0.257092
384 1 4.86965 3.33204 0.967214 -0.472805 -0.443558 -0.0557491
385 1 8.96258 3.55483 6.21767 -0.397291 1.17211 0.114912
386 1 2.54248 3.37062 4.2825 0.326477 -0.724023 -0.196589
387 1 8.93744 6.50688 4.29068 -0.06344 -0.162856 -1.3517
388 1 6.06019 5.84513 0.947477 0.640072 0.058993 -0.0364891
389 1 4.16287 7.94461 3.5852 -0.0863244 -0.62302 1.12052
390 1 4.30996 6.55107 4.93133 -1.34333 0.385625 0.237702
391 1 2.44294 3.6922 7.95442 0.173023 -0.843297 0.101566
392 1 0.821937 2.56517 5.01467 -0.389838 -0.739792 -1.01503
393 1 3.03107 1.64482 4.81508 -0.96082 -0.389878 0.10832
394 1 6.31007 2.63608 2.50324 0.433634 0.484455 0.190844
395 1 4.9224 0.975735 0.409844 0.322766 -0.212296 0.416754
396 1 8.4843 5.93411 3.49094 -1.50191 0.208758 -0.738443
397 1 7.988 7.46704 5.26542 0.292695 0.81896 -1.60318
398 1 9.3096 0.986834 1.88608 -1.19504 0.00802423 -0.206973
399 1 3.00262 4.07496 6.35525 -0.561464 0.850433 -0.686351
400 1 1.61823 2.74765 4.43194 0.570831 -0.323946 0.0588086
401 1 8.63756 4.19273 8.75909 -0.860688 0.338253 1.87326
402 1 4.60055 5.97742 9.23 -0.479248 -0.40089 -0.817186
403 1 1.88236 4.66146 2.12283 -0.121961 0.0576155 0.742782
404 1 1.89055 6.37514 8.44746 -0.353303 0.591335 0.134731
405 1 4.44944 2.38255 1.25368 -0.653863 -0.362891 -0.735328
406 1 3.94216 5.16984 0.138654 -0.234173 -0.709169 -0.454677
407 1 5.36566 4.28222 0.503538 1.29761 0.0115323 -0.816116
408 1 1.92109 3.22921 9.15884 -0.659258 0.816155 -0.013728
409 1 1.40751 8.42309 1.92843 -0.512087 0.230869 -0.371309
410 1 8.30701 5.71704 8.62303 1.50623 -0.145159 1.4633
411 1 7.77942 7.44962 3.93739 1.36629 0.176344 -0.528408
412 1 6.35983 0.197073 6.13086 -0.28488 0.575988 -1.12316
413 1 9.28302 4.2545 1.02674 0.3036 -2.9099 0.460363
414 1 7.01731 0.48113 5.34296 -0.18126 0.0185799 -0.218609
415 1 8.86351 5.41217 2.87818 -0.12218 0.3247 0.236717
416 1 7.65222 1.38112 0.899632 -0.999743 -1.14277 0.274847
417 1 3.36619 6.68698 4.62166 0.38327 0.018335 0.713725
418 1 4.86167 5.84344 0.87593 0.222591 -0.0762818 -0.63922
419 1 4.8497 6.78668 6.50118 0.967397 -0.401484 0.331048
420 1 8.78412 6.1609 5.2617 -1.01573 0.543202 0.489234
421 1 3.35761 9.09936 5.87065 -0.0197917 -0.161457 0.47659
422 1 3.50371 9.11229 1.69715 0.249508 1.19429 -0.157808
423 1 1.07902 6.05857 8.05095 -1.15041 0.891002 0.584369
424 1 7.28327 0.736159 6.30737 -0.869101 -0.0915814 1.0375
425 1 3.36455 5.064 2.62367 0.0775055 0.834704 -0.87878
426 1 1.92319 0.164969 7.78689 0.00230339 0.395744 0.837213
427 1 3.96175 1.81101 4.13186 0.597155 -0.818839 1.11379
428 1 5.17863 0.279536 6.68057 -0.843447 -0.611484 0.44276
429 1 0.545002 4.1293 0.212176 0.455597 0.0146959 -0.813049
430 1 4.58635 0.764438 3.61671 0.123513 -0.736357 0.184444
431 1 8.71479 4.17262 4.52802 -0.18263 -0.339192 -1.92085
432 1 0.676814 8.58429 1.37274 0.642629 0.303124 -0.440136
433 1 0.468198 3.63661 2.51481 1.1318 1.09371 0.787826
434 1 6.20182 3.53132 2.92456 -1.49084 1.56531 -0.519137
435 1 2.92346 7.64623 8.89408 0.370494 -0.61136 -0.244729
436 1 8.997 7.24398 7.08371 -0.344118 -0.429874 -0.56686
437 1 3.27986 1.74285 6.57407 -0.574222 0.518214 -0.00667224
438 1 5.22214 5.9242 6.37069 -0.0661313 0.512629 0.853889
439 1 2.42052 7.79078 0.795047 0.120144 -0.464586 0.423358
440 1 8.97169 8.72139 1.69269 -0.228056 -0.387942 0.129364
441 1 3.57732 8.35691 2.47352 1.48612 0.625243 0.494101
442 1 2.27978 4.8583 0.303905 -0.358105 0.173206 -0.430308
443 1 1.95521 3.69076 2.19051 0.645262 0.401825 -0.283566
444 1 6.45624 4.15353 7.06902 -0.180291 -0.768941 -0.136478
445 1 0.933532 5.41085 5.97768 -0.457825 0.827766 -0.383561
446 1 5.53721 8.61209 2.76703 0.153362 0.680556 0.487306
447 1 4.53088 4.05619 8.53811 -0.126131 0.116736 0.933899
448 1 3.76646 0.442336 8.21495 -1.326 0.172487 -1.75619
449 1 6.94198 6.15399 2.67251 -1.53785 -0.386402 1.37077
450 1 6.57974 6.38216 7.26578 0.408506 -0.543012 0.133137
451 1 8.51348 5.90491 0.170796 -1.12779 0.123977 -0.158264
452 1 2.97779 8.48139 0.035323 -0.0601466 0.0651637 -0.995819
453 1 3.01235 4.84825 9.21871 -0.57209 -1.1176 0.239521
454 1 0.391616 4.34687 4.37586 -0.0829471 -0.152403 1.20902
455 1 3.65875 4.86226 8.55878 1.25379 -0.251375 -0.895445
456 1 9.27812 9.32409 6.56646 -0.669616 -0.545137 0.723848
457 1 6.92403 9.16683 6.83778 -0.710555 -0.314158 -0.569402
458 1 7.21599 2.87691 7.71405 0.313397 -0.748434 0.164598
459 1 7.50716 6.31825 5.72322 0.372984 0.402862 0.0541428
460 1 3.43068 6.97667 5.64723 0.54965 0.211863 -1.98987
461 1 5.44813 3.43518 7.97447 -1.94853 0.421307 -0.15909
462 1 2.9096 3.62792 1.82969 -0.838191 -0.583196 0.532969
463 1 1.91269 9.15669 2.44474 -1.18065 0.506652 -0.0158729
464 1 8.58732 2.44442 7.08587 0.395755 -0.536952 -0.611038
465 1 7.00296 7.05874 6.69511 0.636727 0.663185 -0.202344
466 1 7.51097 7.93122 0.0231326 -0.201815 -0.518519 -0.110089
467 1 0.191994 7.99845 2.00057 0.755911 -0.00259728 0.374236
468 1 6.25096 5.32161 3.41874 0.312597 1.66522 0.979042
469 1 0.353312 3.82814 3.48217 -0.571816 0.215787 1.00271
470 1 3.9802 7.39 6.6937 -1.40216 -1.65955 -0.505719
471 1 8.70333 6.57305 9.08568 -1.82516 1.41278 -1.73038
472 1 5.90795 8.74511 4.38887 0.972311 -0.347493 -0.381413
473 1 2.25183 7.87478 8.25286 0.603375 -0.217719 0.812603
474 1 9.05449 8.26675 0.496398 -0.362234 -0.528645 0.874803
475 1 3.31217 1.50667 8.16017 -1.11589 -0.349422 -0.38844
476 1 0.345957 3.58728 5.38233 1.8866 -0.0247563 0.641217
477 1 1.14686 6.62527 2.36362 0.717724 -0.665484 0.126059
478 1 9.14068 1.71079 0.840502 -0.420699 0.172266 -1.48039
479 1 1.57921 8.60557 3.72691 -0.622413 -0.471126 0.0476988
480 1 1.9094 5.30616 3.08551 1.14726 -0.21325 -0.364316
481 1 6.38556 4.48443 5.6387 -0.780737 -0.404616 1.18867
482 1 5.94671 8.08651 8.37835 0.712607 -0.133183 0.106207
483 1 8.97028 3.49132 4.91309 -1.2998 0.313002 -0.0532748
484 1 5.90915 7.83073 5.33893 1.46439 -0.0572715 -0.215101
485 1 5.14534 3.59043 6.84935 -0.236777 0.0502636 0.164111
486 1 2.05863 7.26308 4.66654 -0.960507 -0.908217 -0.717552
487 1 1.01655 3.56556 8.66519 0.126104 -1.29577 -0.501419
488 1 9.21227 1.69677 2.58777 0.162062 -1.01798 0.512887
489 1 3.32247 8.00677 3.47284 -0.422789 -0.0735723 -0.445675
490 1 2.57771 6.56945 5.3704 -0.788422 0.822389 -0.53907
491 1 6.79489 9.37091 3.73545 -0.618933 -1.03206 0.504939
492 1 2.26108 8.82275 0.578929 -0.420599 0.374413 1.03515
493 1 3.25916 6.40201 6.27283 -0.487375 0.0780324 -0.978273
494 1 7.50789 7.90833 7.52169 -0.0675549 0.822005 -0.103356
495 1 0.846008 6.92731 3.19427 0.0384887 0.986264 0.292892
496 1 0.897299 6.29958 5.99648 -0.670582 1.33962 0.0905712
497 1 3.05883 8.61436 0.900241 -0.720304 -0.185738 0.416686
498 1 0.463002 6.87864 7.46369 1.20997 0.976139 0.913396
499 1 8.00117 8.73481 8.09617 0.174552 0.656786 -0.160335
500 1 6.38984 8.6633 9.03701 0.304573 -0.488214 0.140201
501 1 5.38271 2.82179 4.45546 -0.396317 -0.512324 1.11855
502 1 8.78293 4.281 5.7041 -0.966508 -0.161104 0.481146
503 1 8.44694 0.996335 7.06498 0.214418 0.436342 0.312214
504 1 6.10807 4.62472 4.00745 0.809658 1.0035 0.23078
505 1 6.78535 2.95023 0.93299 2.16036 -1.53922 -0.559293
506 1 0.306672 6.12716 1.28572 -0.864698 1.16034 0.299397
507 1 0.374281 0.967773 9.09907 -0.331652 -0.0835037 -0.873338
508 1 7.52327 5.01838 0.594344 -0.128661 0.767361 1.96775
509 1 0.104045 0.428663 4.58365 -0.582891 -0.182412 0.429729
510 1 5.46027 6.05546 3.70432 -0.0999743 -0.848835 -0.179543
511 1 5.08443 5.13185 5.48971 -0.0117549 0.807589 -0.0837939
512 1 6.27004 4.96959 6.41353 0.399175 0.280138 -0.0907686
513 1 1.12832 9.29614 5.47725 -0.772443 -0.115702 -0.622876
514 1 7.91946 6.51969 4.83876 -0.349424 -0.602516 -0.430968