ITEM: TIMESTEP
423350000
ITEM: NUMBER OF ATOMS
1000
ITEM: BOX BOUNDS pp pp pp
0.0000000000000000e+00 9.4000000000000004e+00
0.0000000000000000e+00 9.4000000000000004e+00
0.0000000000000000e+00 9.4000000000000004e+00
ITEM: ATOMS id type x y z vx vy vz
1 1 4.3172 4.61852 1.23965 -1.73894 -0.124736 -0.0508744
2 1 5.98377 9.06098 1.96134 0.897275 0.0722912 -0.502419
3 1 3.49714 5.67532 0.153699 -0.148876 0.511212 0.554292
4 1 6.89552 2.03326 1.5409 -0.782235 0.348471 0.462058
5 1 1.46834 6.51187 5.70157 -0.422283 -0.96546 -0.429133
6 1 6.91098 3.62711 5.56164 -0.583938 0.322106 0.161124
7 1 0.674061 3.37879 2.32584 0.442254 0.133602 -1.53724
8 1 8.60523 8.94664 9.20558 0.483781 0.683659 0.590576
9 1 2.21677 8.262 8.02115 2.2889 -0.70171 -0.315789
10 1 5.94107 5.33283 1.81434 -0.866855 0.575378 0.140788
11 1 4.96095 0.919798 7.85227 -0.604168 0.84639 1.1276
12 1 9.39075 1.07389 3.93249 0.394976 -0.251125 1.00286
13 1 0.91726 8.77926 2.83921 0.821682 -0.409459 -1.37715
14 1 8.67873 1.13917 3.031 0.0150719 -0.0488143 0.0377233
15 1 7.90507 7.25953 3.48736 -0.132158 -0.621297 -0.177592
16 1 5.86519 5.24874 8.53119 -1.00484 -0.0171215 -1.30863
17 1 2.7225 2.45265 1.51683 -1.36051 -0.00112926 -0.509136
18 1 0.649372 3.10729 3.3935 0.121211 -0.606957 -0.687743
19 1 1.97663 8.9995 7.40759 -1.0759 -1.19699 -0.265075
20 1 6.7292 6.6425 7.2641 -0.476751 -0.867755 -0.360015
21 1 2.33902 5.62578 0.407741 0.311889 -0.969485 0.443597
22 1 5.76865 2.30763 0.499335 -0.164651 -1.32713 0.13075
23 1 2.70883 7.11635 4.32497 -0.166652 0.437363 -0.913659
24 1 6.25642 7.29188 1.70842 -0.796508 0.688486 0.481876
25 1 1.98389 4.79552 6.71705 0.742419 -1.57108 1.61603
26 1 1.63853 8.89499 1.49226 0.182134 -1.38998 0.308105
27 1 7.49813 3.55222 2.19621 0.186566 0.527891 -0.40858
28 1 8.34962 3.91308 1.77812 1.23258 -0.256353 -0.797644
29 1 2.10169 8.74271 2.59992 -2.17158 -0.0133787 0.432932
30 1 4.04501 7.45195 4.18829 0.491095 0.440725 -0.545147
31 1 5.7188 6.6258 0.704829 -0.495653 0.614956 -0.333543
32 1 0.664049 6.29097 8.01208 -0.789446 0.0855017 -0.542524
33 1 3.19308 5.42673 4.55552 -0.666842 -1.39779 -0.14462
34 1 7.20567 3.83815 1.30634 -0.603081 -0.764168 -0.00521075
35 1 7.99274 2.02352 8.55433 0.355668 0.246125 0.280322
36 1 4.36011 4.9811 2.78125 0.088059 -1.0158 -0.389628
37 1 2.78993 2.65637 6.66725 -0.135434 0.483218 0.484327
38 1 8.07425 2.76241 3.7431 -0.395582 -0.571664 1.6837
39 1 4.34843 1.89712 2.81805 0.361924 -0.454631 0.724831
40 1 7.05832 9.17871 4.05606 1.46019 0.484408 -0.295748
41 1 4.25255 3.6522 8.12715 -0.608133 -0.460066 0.31118
42 1 7.87628 4.29338 0.570122 -0.713521 2.32163 -0.063639
43 1 1.2742 1.86753 0.444527 1.83 -1.74752 -0.565639
44 1 2.41875 1.2961 4.12857 -0.149777 0.214341 1.21311
45 1 2.7381 1.09133 2.73231 1.58263 -1.24214 -0.576218
46 1 9.35309 1.5742 1.2594 0.0196034 0.337394 -0.088855
47 1 3.96255 4.25439 5.61924 -0.405968 0.069738 0.151752
48 1 3.58314 2.38792 2.25506 1.3545 -0.632547 -0.217443
49 1 8.07193 4.05838 8.41389 -0.0708486 0.426804 1.21814
50 1 1.42584 8.06574 2.61172 -0.031837 -0.64019 -1.04553
51 1 2.18853 7.67049 6.09649 0.997436 -0.0674299 -0.134728
52 1 3.24116 4.40963 6.69913 -1.26734 0.284589 -0.168048
53 1 5.02205 0.358814 1.50732 -0.722426 -1.57773 0.190204
54 1 5.26428 2.14503 2.87756 -0.966283 0.0716745 -0.065084
55 1 1.91243 4.85047 0.48462 -0.546325 0.712176 0.808015
56 1 3.58522 4.52862 3.1439 1.2292 -0.139072 -0.538055
57 1 2.74524 5.0485 7.19935 0.0618338 -0.278767 -1.15518
58 1 0.559541 2.22553 6.36661 -0.895259 2.37335 0.350083
59 1 8.99376 5.25406 2.78981 -0.605333 -0.0311917 1.122
60 1 0.790854 6.68225 6.35536 -0.226457 -0.331597 0.228867
61 1 4.53849 6.92633 6.96685 0.38969 0.56279 -1.38347
62 1 4.89048 7.77384 4.76269 -0.968729 0.704345 -0.593832
63 1 8.08289 5.25921 0.944015 0.671798 0.23123 1.08929
64 1 3.05846 0.93134 7.44047 -1.38998 0.111256 -0.661093
65 1 3.51824 7.98941 3.54322 -0.140456 1.55532 0.208013
66 1 3.26462 6.21285 1.09614 1.34934 0.953997 -0.416244
67 1 1.3898 0.0459628 7.95 0.859783 0.966471 0.855105
68 1 4.98314 8.85629 9.16837 0.249651 0.0621772 -1.73865
69 1 0.497211 6.39106 9.14621 0.590829 -0.0855415 0.0784529
70 1 1.48052 8.45254 4.61616 -0.538736 -0.338945 0.1676
71 1 8.945 5.74376 3.58245 0.761028 -0.419788 -0.6943
72 1 8.27155 7.51894 7.65488 0.0370404 0.15933 0.478228
73 1 2.61064 8.14279 5.31114 -0.0997874 -1.09834 -0.443604
74 1 9.3742 5.1269 1.91917 0.407401 1.02658 -1.01309
75 1 5.31396 0.0278427 7.46094 0.789981 -2.29202 1.4091
76 1 0.0323734 7.65206 4.93684 -0.727175 0.0894265 0.148161
77 1 3.54341 6.65793 4.57392 -0.908876 -0.0800927 0.0760017
78 1 3.91494 4.80374 0.194144 -0.381345 0.607888 0.720797
79 1 7.5225 5.81011 8.72072 0.504215 -0.872289 0.431339
80 1 5.80304 7.88755 4.27323 -0.121081 -0.166656 -0.25738
81 1 8.65244 0.0835725 3.06777 -1.01953 -1.75722 -0.00520444
82 1 5.31698 1.73752 8.96494 -1.24673 -0.402131 1.61319
83 1 2.35088 3.26583 8.13774 0.728476 0.455535 -0.696004
84 1 7.21849 9.21511 7.39591 -0.67062 -0.780211 0.140505
85 1 5.75926 2.99638 3.87077 0.316347 1.01463 -0.568833
86 1 5.47918 0.0792751 4.63452 -0.097286 -1.34421 -0.0277695
87 1 1.3445 5.60394 4.873 -0.159688 -0.119613 -1.2411
88 1 0.954919 4.18164 5.13076 0.13318 -0.226441 -0.695692
89 1 6.74784 7.55419 5.33478 -1.00056 0.470345 -0.253907
90 1 5.5237 3.57539 5.19184 0.18807 -0.174035 -0.0865116
91 1 2.52162 1.70857 5.964 0.343469 0.613983 0.39282
92 1 6.13944 4.76125 0.222981 -0.205528 -0.618306 -0.584673
93 1 3.26326 1.74516 1.14778 0.0373548 -0.435967 -1.30163
94 1 4.03805 1.95476 9.08264 -0.730443 -0.0922258 0.0408322
95 1 2.19869 6.99818 0.742581 -0.0658826 0.627736 1.3119
96 1 6.27332 6.04738 1.32953 0.395618 -3.05686 0.0547344
97 1 3.51562 5.23492 2.57934 0.847694 -0.136559 -0.459942
98 1 7.53716 5.34739 5.8078 0.845141 -0.593532 -0.483435
99 1 3.02784 5.21194 8.73304 -0.167169 -0.649107 3.32481
100 1 8.11146 7.54584 5.73339 0.378035 0.106974 1.01438
101 1 6.17126 8.22484 0.17363 0.256944 0.550506 -0.134235
102 1 4.77493 1.55229 3.64911 0.347264 -0.798082 -0.976455
103 1 6.40382 8.34114 2.6979 -0.227846 1.40908 0.20028
104 1 8.62581 7.31035 6.58033 0.525899 -0.917909 -0.58479
105 1 5.6698 6.3419 5.17452 0.247975 -0.704333 -0.636906
106 1 3.8412 1.3709 1.70195 -0.0522601 -0.583163 0.610567
107 1 0.184734 7.62601 1.82041 2.21233 -0.524489 0.602831
108 1 4.2597 9.26171 7.86516 -1.63504 0.527475 0.821193
109 1 5.86519 4.22571 1.75337 0.625196 1.71675 0.300527
110 1 1.90781 5.36302 7.4782 -0.249148 0.668904 -0.773325
111 1 7.52626 4.76792 1.41525 -1.19674 0.0212294 -0.500968
112 1 5.01123 5.37701 5.32955 0.554959 0.796943 -0.133756
113 1 8.08557 5.43556 0.0588033 -2.05351 -1.36756 -0.341884
114 1 5.89028 6.93616 4.51703 0.784235 -0.287576 -0.00325094
115 1 6.77224 1.1979 2.08099 -0.433292 -0.0625818 -1.12109
116 1 7.01697 7.75432 3.54964 0.226683 1.15747 -0.450848
117 1 6.39621 8.89248 6.73369 0.368558 -1.42327 -0.536049
118 1 3.40003 7.31081 2.94173 -0.214399 -0.841145 0.82213
119 1 4.52235 6.1067 8.5478 1.41225 -0.498291 -0.674187
120 1 4.37377 7.99223 5.43499 -0.128855 -0.711107 0.0556029
121 1 3.78287 1.42475 0.493703 -0.576098 -1.10258 -0.750021
122 1 4.14647 6.7668 3.20276 0.933563 0.0204876 -0.815082
123 1 1.04542 8.11377 3.82054 0.175696 0.0189683 -1.90893
124 1 0.447674 2.68378 4.19707 0.721664 -1.01099 0.796586
125 1 4.53568 8.2155 7.72199 0.198419 -0.484147 -0.606504
126 1 1.70034 4.91021 1.90598 1.4844 -0.0796403 1.33081
127 1 2.68695 0.648959 8.32337 0.237156 0.115251 0.662999
128 1 7.30838 5.13072 6.9846 -1.45428 0.239612 0.14273
129 1 9.08184 3.71881 1.10078 0.396577 -0.00993746 0.671134
130 1 3.87855 3.17234 7.37663 1.02375 0.215481 -1.48593
131 1 6.40816 1.19225 4.36093 -0.978257 -0.00395494 -0.614051
132 1 7.37532 5.95373 0.291338 0.361367 -0.480631 0.00125522
133 1 8.44982 0.426673 5.71533 0.898625 -0.271048 0.209971
134 1 7.78964 0.275214 4.35455 -0.22941 1.09253 0.398542
135 1 8.42553 1.99959 7.62296 -0.39014 -1.14545 -0.0564976
136 1 3.21765 7.60372 5.83291 0.160857 -0.0509971 -0.888807
137 1 7.39066 4.65829 3.49339 -0.240127 0.994288 1.72661
138 1 7.22252 2.01875 4.56129 0.325804 0.359196 1.5944
139 1 8.45852 6.62112 4.13259 1.39736 -0.073734 -0.425854
140 1 4.70556 4.06484 7.442 -0.514974 1.76027 -0.867755
141 1 8.87286 5.33545 8.78184 -1.07117 0.0273687 0.55239
142 1 6.59266 1.07324 7.56725 1.35062 0.18417 -1.01746
143 1 5.89717 0.960237 6.4483 -0.120144 0.376486 -0.498997
144 1 8.67277 2.24713 3.36137 -0.447462 -0.647874 1.13841
145 1 8.85835 7.97036 0.674683 -0.779699 0.730091 0.501682
146 1 4.80365 1.70022 0.492732 -0.0710611 0.477549 -1.15479
147 1 5.78757 5.86605 4.41301 -0.025459 0.287522 -1.83338
148 1 7.95025 6.07188 2.61993 0.120745 0.0145264 0.729857
149 1 0.351496 8.64296 6.36347 -0.291325 0.387241 -0.893445
150 1 6.32635 0.0486727 2.90032 -1.1777 0.308366 0.68695
151 1 0.750643 1.24119 0.79301 -1.60789 0.783009 0.819372
152 1 3.25483 7.58137 1.85544 -1.10565 -0.898075 0.133598
153 1 7.00072 5.4976 3.6271 0.299242 0.283585 0.3813
154 1 3.7545 2.78407 4.89891 -0.314051 -1.28519 1.02101
155 1 4.22563 9.14032 2.59732 -0.422705 -0.814432 -0.905506
156 1 4.93517 7.07917 2.86271 0.491654 1.90431 2.07609
157 1 0.221427 3.84308 5.92295 0.692026 1.06097 -0.334178
158 1 8.01651 0.744462 1.34182 1.38601 0.237211 -0.0804886
159 1 3.33128 2.91904 7.99027 -0.322118 0.846936 1.03362
160 1 2.10459 5.7904 2.25583 0.210341 -0.229327 -0.560691
161 1 7.87311 8.10949 3.10688 0.201466 0.215321 0.571477
162 1 7.26845 3.23075 8.53915 0.0430679 0.208634 -0.51189
163 1 6.98163 1.98675 2.86569 -0.786664 0.95304 0.447393
164 1 2.37183 8.41163 9.09469 -1.19118 -0.254138 0.438705
165 1 0.692378 6.81775 1.37533 -0.885476 -0.122992 -0.0625408
166 1 0.755524 8.7888 7.84834 1.40589 0.697531 -0.0488907
167 1 4.03938 5.13649 5.70293 0.800745 0.752719 1.10174
168 1 2.02204 0.698778 3.21168 -0.524464 0.201062 0.249849
169 1 7.14546 8.13836 0.434371 -2.613 -0.590554 0.642082
170 1 1.04508 5.78667 5.95906 0.865199 -0.203341 0.89843
171 1 7.16508 9.02667 5.02883 -1.28298 -0.209658 0.0227464
172 1 6.4473 0.195613 8.16921 0.361155 0.522595 -0.397957
173 1 2.86402 2.30918 4.07599 -0.816361 -0.327686 -0.0795436
174 1 4.95429 2.53836 3.7 0.956639 -0.643252 0.11286
175 1 2.5783 6.02154 5.53106 -0.260935 0.775917 -1.69121
176 1 3.58419 3.24967 4.15969 1.29593 0.443783 0.852278
177 1 8.48644 1.57021 6.13812 -0.43179 1.26686 0.354883
178 1 6.48402 6.78628 3.79447 -0.487562 0.228624 -0.297624
179 1 8.90929 1.97104 2.26611 -0.581078 -0.063944 -0.830492
180 1 7.82693 1.38649 7.882 0.945977 -0.27546 0.713784
181 1 9.26572 6.76386 6.3546 -1.13157 -0.429502 -0.705369
182 1 1.48545 6.33851 0.497781 0.122301 0.713263 0.465263
183 1 5.14874 3.19832 0.494219 -1.59918 1.57135 0.315202
184 1 1.98777 3.24273 8.98376 0.599692 -1.27655 1.33897
185 1 3.8058 7.46452 5.06531 -1.15407 0.208007 -0.00536813
186 1 8.91416 8.40176 4.72623 -0.481784 1.35066 -0.0394908
187 1 4.43399 7.32632 6.16898 0.219374 -0.243873 0.962294
188 1 0.365293 4.5814 2.78332 -0.143092 0.969682 -0.186808
189 1 2.12968 2.10656 4.59408 0.350253 -0.115135 0.269148
190 1 0.440344 7.38698 4.18178 -1.86873 0.393399 0.277525
191 1 1.49016 4.24809 2.55168 1.01978 -0.745245 -0.22902
192 1 7.15268 2.69934 5.9658 -0.252015 -1.04885 0.897823
193 1 2.03203 8.41482 6.70816 -1.42344 0.0679615 0.677216
194 1 0.0656983 2.99539 7.68965 -0.389419 -1.28048 0.232429
195 1 0.945297 1.48179 5.56283 1.2549 0.169827 1.21747
196 1 1.40577 0.850014 8.62285 -0.195097 -1.11838 0.279024
197 1 3.58206 8.55855 6.96332 -0.551016 -0.0563002 -1.41458
198 1 0.257618 3.5811 4.78666 0.296429 1.02118 -1.07904
199 1 4.03388 5.45785 0.950093 0.359054 -0.964388 0.589279
200 1 4.17929 4.84338 3.84763 -0.592119 1.92135 0.0604125
201 1 3.47434 3.70059 6.08395 0.713453 1.08243 0.573652
202 1 5.92755 6.70061 9.00506 0.36065 -1.05013 0.501587
203 1 7.45773 9.32982 0.706684 -1.07373 1.0077 -0.244278
204 1 4.69049 6.06231 7.59144 -0.732708 -1.39435 1.44689
205 1 2.80014 8.65192 7.30395 -0.525148 -1.4156 0.760314
206 1 1.72388 7.75952 0.163052 -0.960954 -0.428518 0.0899643
207 1 1.78654 2.97822 4.73552 0.549407 -0.567676 0.168013
208 1 5.33196 4.8206 3.59172 -0.828873 -0.171285 -0.527983
209 1 1.10546 0.227373 3.42596 -0.270046 0.108388 -0.668927
210 1 1.73495 5.6506 3.88745 0.186433 -1.34375 -0.545546
211 1 1.60027 6.82313 7.59905 0.0222153 -0.334688 -0.0820258
212 1 2.14768 1.43734 8.4758 1.13008 0.541872 -0.161557
213 1 9.29624 0.35537 6.73823 -0.0377827 -0.754875 0.613817
214 1 2.71287 6.11818 8.67928 -0.201487 0.579052 0.142879
215 1 6.37241 4.4238 6.92905 0.227433 -0.295465 0.851848
216 1 8.46539 7.49551 4.91481 -0.461529 0.868763 0.404519
217 1 3.81796 4.48911 2.15775 0.381472 -2.49665 1.466
218 1 6.90991 3.90348 8.07298 0.932978 -0.622871 -2.08629
219 1 5.55068 0.895519 8.47873 0.820569 -0.785476 -0.0821298
220 1 8.82453 8.50025 3.09556 0.376841 0.172897 0.273305
221 1 8.97953 2.85396 4.44901 0.0406564 -0.261396 -1.30368
222 1 4.86435 7.98596 3.4398 1.20205 0.471208 -1.17876
223 1 0.774915 1.9251 3.71309 0.557886 0.337476 0.0139374
224 1 2.30243 7.00219 8.25998 0.0973932 -0.250465 0.425048
225 1 3.43425 3.33718 2.20402 -0.511975 0.806816 -0.869738
226 1 1.08753 7.54294 7.95089 0.608447 -0.364818 -0.441644
227 1 0.129742 7.63265 6.61363 -0.254171 -0.136003 -1.58004
228 1 0.174254 6.31725 4.26511 0.14881 -1.61925 0.382161
229 1 0.992879 7.01743 0.0245882 0.743483 0.0568575 -0.528303
230 1 8.70797 3.03055 0.629452 -1.13803 1.66345 0.399851
231 1 7.02539 1.11674 0.955371 -1.05261 0.689943 -1.44836
232 1 3.74747 6.60363 2.00095 0.111549 0.2789 1.10531
233 1 2.98131 9.32396 0.663965 -0.533077 0.920597 -0.578843
234 1 8.40927 3.64932 3.85897 0.946758 0.472505 -0.213014
235 1 8.729 9.08315 7.76004 0.300659 -0.00920579 -0.487142
236 1 8.44511 4.56289 9.09737 0.0812502 -0.195958 0.632567
237 1 3.1913 3.47874 8.72492 1.03806 0.191335 1.61775
238 1 9.27044 6.27683 8.47733 0.591093 0.346324 0.193232
239 1 0.628769 4.01918 0.845684 2.06989 -0.0245582 1.3553
240 1 4.56744 2.59311 7.34547 1.15176 0.193072 0.405233
241 1 2.58029 4.57189 1.25133 -0.557631 0.274836 0.314721
242 1 4.50922 1.93291 8.32706 -0.162387 -0.482431 0.245896
243 1 1.46947 9.08213 0.281797 1.29581 -0.234291 -0.0581128
244 1 8.9274 7.39403 1.44815 0.544189 -0.804022 0.958995
245 1 7.91919 2.20696 5.21749 -0.989548 -0.206046 0.775865
246 1 8.77049 5.60697 7.93126 -0.103317 -0.235362 -0.590639
247 1 6.00424 1.15803 5.27172 -0.00177525 -1.03176 0.44307
248 1 7.66563 6.32259 7.10443 -0.197748 -0.89087 -0.643015
249 1 7.50996 7.46963 1.72698 -0.384865 1.01454 -1.14805
250 1 1.1406 2.47583 3.04709 -0.783616 -0.699852 -0.169998
251 1 1.50782 0.800342 6.43035 0.677595 -1.43299 0.227945
252 1 0.939011 8.7948 5.48671 0.362769 0.665613 -0.391414
253 1 4.51176 5.44699 9.20097 0.514873 0.472967 1.23839
254 1 3.49195 6.56913 6.46443 1.0408 -0.462186 0.590956
255 1 6.06652 2.0085 5.16782 -1.00387 -1.1132 0.567424
256 1 5.12418 5.9812 1.42427 -1.47914 1.83489 -0.645382
257 1 2.911 7.54793 7.80482 -0.133642 -1.37214 -1.53999
258 1 3.06512 7.9891 8.64587 -0.298929 -1.27726 0.331727
259 1 1.16988 1.40446 7.70719 -1.49231 0.0524263 -0.0547718
260 1 1.81869 3.99456 0.946786 0.413576 -0.935389 -0.289188
261 1 6.95572 3.34894 7.30727 -0.289808 -0.172306 -0.368354
262 1 6.60619 5.13935 4.49896 -0.475809 0.570414 0.749462
263 1 2.42724 7.10808 2.39739 0.535944 0.62554 0.574083
264 1 2.08602 7.41299 1.62838 -0.197705 -0.466541 0.554038
265 1 6.17708 5.50692 5.38484 -1.3646 0.240117 -1.09542
266 1 2.72079 5.87238 6.78676 0.322043 -1.8537 -0.719257
267 1 4.99341 6.3288 3.43134 -1.96748 -0.837857 -0.793945
268 1 5.78889 8.86747 3.4291 -0.464006 -0.439947 0.285087
269 1 8.58367 7.46708 8.55956 0.0533106 0.453626 -1.07645
270 1 5.30734 1.9838 4.48085 0.123837 0.129145 0.0324489
271 1 9.04095 9.32757 1.52169 -1.04001 -1.14138 0.89807
272 1 1.85438 3.90359 4.25457 -0.330598 -0.911654 -0.713398
273 1 3.30051 9.33906 7.58665 -0.00548037 0.564884 0.85957
274 1 7.74383 4.93293 8.73793 0.81334 1.50624 -0.0783619
275 1 4.36752 0.333061 8.62314 -0.0725393 -0.241031 -0.133173
276 1 0.906961 5.35499 3.95697 -0.830747 0.0772122 -0.568203
277 1 0.274357 0.168116 0.227056 0.78176 0.538118 0.28947
278 1 6.12246 1.74933 2.42642 0.596325 -0.816922 0.623845
279 1 0.0813477 4.06037 0.191495 1.06899 -0.105335 -1.20573
280 1 5.29006 1.87183 7.41399 0.371608 -0.862534 -0.480585
281 1 3.36369 0.166308 6.65703 -0.176988 0.580052 0.334663
282 1 5.60473 3.21742 2.79461 -0.619272 -0.525704 -0.985948
283 1 5.92089 4.81726 2.57896 0.886466 -0.267479 0.319993
284 1 2.9245 5.66697 7.84705 1.21807 -0.175035 -0.151483
285 1 3.00019 1.57584 8.09688 -0.624806 -0.320814 -0.616637
286 1 6.39231 7.11224 8.08049 -1.41379 -1.3513 1.43363
287 1 5.12188 7.20969 3.77612 -0.700669 -0.0852358 -0.282728
288 1 4.23207 3.38097 5.5658 -0.499173 -0.503711 -0.382462
289 1 1.82106 7.67322 8.70958 -0.52037 0.531882 1.68963
290 1 2.16349 3.62046 2.65297 0.0454235 2.64518 0.449154
291 1 3.75317 5.7352 1.8356 2.04252 0.52149 0.290949
292 1 2.45139 6.436 2.85882 0.911198 0.448801 0.470767
293 1 7.93144 8.27348 6.53727 0.804386 1.27402 1.25971
294 1 8.79662 3.45472 6.32047 0.830786 0.602873 0.157016
295 1 0.48909 7.88523 7.3711 1.53067 0.15404 0.00433579
296 1 7.70876 4.47473 5.77893 1.05588 -0.158239 0.64776
297 1 4.25349 5.83794 4.96172 0.538401 0.594176 -1.47467
298 1 2.11369 2.70676 3.78377 -0.65899 0.709575 0.152036
299 1 3.97952 3.61758 9.02188 -0.0159009 -0.13598 -0.340107
300 1 0.0816079 8.05621 8.18708 0.489524 -0.665599 0.303714
301 1 8.4763 8.99769 6.7013 1.19152 -0.236284 0.106548
302 1 5.6834 5.84382 2.83 -0.949998 0.32628 0.59384
303 1 1.79403 4.51245 5.71475 0.0295394 0.727085 -1.14227
304 1 8.20981 3.69569 7.5299 -0.0986957 -2.07603 0.923535
305 1 4.97633 1.85639 6.52946 0.383266 -0.259634 -0.17794
306 1 3.70134 2.20111 7.53573 0.166196 0.242976 1.40338
307 1 8.99217 4.2119 4.48866 -0.0453244 0.0268166 -0.948156
308 1 0.102553 5.48916 6.02267 0.736104 -1.08311 1.30735
309 1 1.97643 8.64794 5.72326 -0.352546 0.546827 0.0732294
310 1 6.43124 3.62206 2.5883 0.598059 -1.42548 -0.479118
311 1 0.224207 8.5632 1.20906 -0.93446 0.742503 0.23133
312 1 0.189254 0.196842 4.18536 -0.654166 -0.103963 0.695287
313 1 4.24581 8.26124 2.64746 0.358148 -0.584168 0.541574
314 1 1.46173 0.799374 1.01718 0.836308 -0.150534 -0.980872
315 1 3.25366 6.63128 8.17411 -0.527568 0.0978262 0.311517
316 1 8.67966 2.1693 0.663788 0.113483 0.705892 0.833826
317 1 6.08989 5.34816 3.4365 0.312249 0.402237 -1.64136
318 1 0.257373 7.07352 0.644415 0.390955 -1.30509 0.0412984
319 1 5.41684 8.99076 5.50818 -0.50106 -0.662464 1.209
320 1 5.70058 3.95951 0.8368 0.144686 1.43896 0.972342
321 1 1.74069 1.71403 3.57439 -1.87606 -1.13954 0.652765
322 1 8.55834 8.37884 8.51484 -0.476973 -0.17806 0.368332
323 1 5.59795 0.060451 6.62368 -0.411481 1.15445 0.960616
324 1 1.25827 2.53777 1.34302 -0.550364 0.676661 -0.775831
325 1 8.66829 6.54559 3.05275 -0.530724 0.392871 0.336423
326 1 5.34463 6.54492 8.32441 0.362639 0.493675 0.905006
327 1 4.92631 5.9256 0.531997 -0.846248 -1.01393 0.262436
328 1 2.81117 2.41201 5.02966 0.161353 0.365315 -0.238181
329 1 0.510318 1.77136 4.61285 1.40394 -0.115623 -0.921328
330 1 3.50712 0.429582 8.26979 -0.441372 0.0438468 -0.35972
331 1 4.04386 4.87184 6.64479 0.752754 -1.63772 0.722408
332 1 2.58068 3.02692 5.59417 0.669833 -0.134713 -0.833651
333 1 5.1318 4.06109 2.38074 0.677113 1.63701 -1.00443
334 1 5.66938 6.89581 7.31166 -0.714142 0.256957 -1.0534
335 1 8.71261 6.09154 2.05961 -0.58572 0.652975 -0.0764898
336 1 3.58796 1.22637 6.57572 -0.450497 -0.0922081 -0.0602888
337 1 2.15593 1.87516 9.2812 -0.450661 -0.231204 0.375223
338 1 2.83823 3.59164 1.25157 -0.313852 1.21265 0.625556
339 1 5.26622 8.25201 0.480351 -0.0853653 0.431124 -1.22476
340 1 3.56927 6.12677 2.81842 0.251251 -0.405878 -1.01389
341 1 6.98088 8.54096 6.05442 -0.353047 0.351384 0.0385072
342 1 2.46988 0.0699001 4.07377 0.846328 -0.857967 -0.930637
343 1 7.3719 8.15982 5.3527 -0.518934 -0.541689 -0.306549
344 1 0.955275 5.18461 2.54809 -0.126579 -0.507336 -0.413086
345 1 4.33531 6.18497 6.00911 -1.36121 0.201206 -0.52157
346 1 6.07978 8.76967 4.48719 0.112142 0.595816 -0.948181
347 1 1.59543 0.768668 5.36688 -0.130724 1.07664 -1.11294
348 1 3.28363 3.51168 4.99068 -0.319544 -0.924444 0.659352
349 1 3.83011 4.99417 8.24659 -0.0435679 0.338676 0.383983
350 1 3.2878 2.22892 5.80128 0.584441 0.827926 -1.97423
351 1 2.57343 2.45677 7.65084 0.378994 -0.337698 0.555767
352 1 3.67733 2.96067 6.55873 1.08784 1.32075 1.52173
353 1 9.29759 8.43302 9.14342 -0.0384161 0.0244825 0.111697
354 1 4.64414 6.67265 4.68069 -0.683434 0.548535 0.219684
355 1 8.67211 0.868611 7.67739 0.376128 -0.239153 0.101491
356 1 5.63977 9.27631 1.15072 0.535189 -0.202643 1.51461
357 1 0.826024 9.38564 2.00742 -1.46396 0.615391 -0.886344
358 1 5.23774 9.34759 8.40527 -1.24869 0.470123 -1.28197
359 1 6.87517 1.68682 6.56626 -0.142283 -0.850495 -0.439015
360 1 7.96578 9.16195 8.30017 -0.573302 0.265294 -0.134575
361 1 2.88464 8.45832 4.31867 0.412054 -0.481472 0.499574
362 1 9.15614 7.36375 5.74654 -0.0834668 0.315872 0.470678
363 1 9.16353 7.15261 7.42756 1.35417 -0.676706 -0.129939
364 1 2.09856 5.31336 1.25739 0.477274 -0.726593 -0.231182
365 1 1.33484 6.88894 8.55975 0.931673 -1.03761 -1.81683
366 1 1.96977 2.21655 5.50015 0.301293 -0.86405 0.889809
367 1 6.97457 6.07478 8.02135 0.275017 0.234886 0.559704
368 1 8.88118 3.8467 5.37434 -1.83182 -0.170517 1.03036
369 1 8.0066 5.90992 3.53995 -0.432132 0.285922 -1.10896
370 1 8.27265 2.23108 4.47099 0.419866 -0.541912 -1.5437
371 1 5.94603 0.723328 2.12515 -1.12893 0.235477 -1.70861
372 1 1.87188 5.92769 6.45261 2.69556 0.284653 0.734854
373 1 7.5791 7.73635 4.39031 0.126713 0.717459 0.970579
374 1 0.849807 1.72331 2.55102 -0.506436 1.20059 0.303552
375 1 9.09545 2.08325 4.06158 0.0624973 -0.472126 0.108905
376 1 6.30061 4.53841 3.59246 0.832903 0.978315 1.08424
377 1 3.42282 0.516637 4.79906 0.464326 -0.891089 0.322055
378 1 5.93575 7.86554 7.34778 -0.863333 -0.640372 -0.169104
379 1 7.04826 5.10736 0.108712 0.32141 0.172772 -0.928606
380 1 2.6948 1.78446 2.16319 0.593778 -0.0794691 -0.0702103
381 1 6.11922 6.14555 8.03481 0.816526 -1.67662 -0.688472
382 1 8.9055 7.39937 4.13962 -1.51626 -1.27232 1.23715
383 1 0.544201 4.40814 1.89995 0.692718 -0.336344 0.374047
384 1 9.34517 1.94072 7.65391 0.140029 -1.10461 1.32684
385 1 5.29888 5.74563 6.91773 -0.187357 -0.613077 0.619928
386 1 8.49361 9.14311 2.30103 -0.0148774 -0.00012034 0.399245
387 1 7.64773 6.84809 0.162124 0.476593 0.489009 0.344629
388 1 5.77912 6.6564 3.30066 1.23824 0.73714 -0.380711
389 1 7.84606 8.43106 9.10827 1.17743 1.59991 -1.1957
390 1 2.13898 3.98425 1.74889 1.54187 -0.412132 0.839722
391 1 1.25712 7.1324 3.59482 0.982378 -1.58801 -1.1361
392 1 9.36099 0.270434 7.71935 1.25299 0.00577956 0.17553
393 1 4.07506 3.25719 0.787552 -0.286219 0.651101 0.968116
394 1 8.33275 6.47103 9.0581 -1.03046 -1.09044 0.449365
395 1 3.14328 8.51818 0.208605 0.405143 0.163941 -0.639274
396 1 0.0432545 8.15911 2.5222 -0.577253 -0.179682 -0.272426
397 1 2.4981 9.32563 1.50238 -0.577157 -0.235375 0.68915
398 1 8.50937 4.44201 3.28292 -0.851139 -0.300643 0.0282564
399 1 5.55639 5.83754 6.04777 0.0521234 -0.591725 -0.344258
400 1 7.236 5.34395 2.75862 0.0135476 -0.367882 -0.461432
401 1 8.24702 6.39051 8.05904 -0.374971 1.6425 0.0534716
402 1 7.15159 2.89942 1.27625 -1.11418 0.956055 -0.85663
403 1 9.12636 6.29887 7.55707 -0.68466 -0.182904 0.715586
404 1 2.46855 4.57241 3.17389 -0.139284 0.256638 0.22308
405 1 2.23211 2.37299 2.92929 0.114885 0.247625 -0.96461
406 1 7.24821 3.36314 4.29946 -0.429718 1.25093 -1.09807
407 1 5.20793 8.4539 6.89568 1.23796 0.653023 0.661095
408 1 2.62793 8.81183 3.36373 0.019207 -1.41183 -0.871359
409 1 4.42426 1.60838 7.30656 0.384561 1.06477 -0.19613
410 1 2.35995 6.29144 1.19373 -0.643675 -0.378955 0.144191
411 1 0.264343 4.68894 9.03609 0.572778 0.479708 0.57088
412 1 0.858256 2.57977 7.06309 -0.818771 -0.857191 -0.893213
413 1 4.78594 7.94312 8.69669 0.0150104 -0.149417 0.692767
414 1 9.12966 0.955433 9.01453 -0.636246 -0.18775 0.378196
415 1 0.877824 2.93744 9.06625 2.06015 -1.35331 -1.1921
416 1 1.56862 4.69804 4.6738 0.17352 -0.0998482 0.100795
417 1 0.0896516 6.02505 2.55708 -1.04725 1.4085 -0.211783
418 1 1.59719 0.0375827 2.73275 0.859377 1.37735 0.121653
419 1 3.88199 4.34263 7.65573 -1.58533 0.72526 0.0690405
420 1 4.72444 4.25644 3.23937 -0.587569 -1.29275 -0.37674
421 1 3.61716 6.38105 8.88158 0.224464 1.84215 -0.094071
422 1 7.32701 7.73657 2.53195 -0.67163 1.99455 -1.19371
423 1 5.78573 2.66479 8.89579 -0.126364 0.350282 -0.224931
424 1 2.54841 0.876224 5.18825 -0.351146 0.511116 0.286307
425 1 6.28571 1.6934 8.93142 0.916657 0.374654 -0.0682404
426 1 2.89643 6.26809 1.90259 -0.234671 -0.210541 -0.226589
427 1 6.41352 1.72686 0.760984 1.27783 -0.45558 0.131906
428 1 2.31944 3.56757 6.39002 0.0842768 0.115519 0.607413
429 1 5.3131 1.91187 1.22809 -0.537842 0.25531 -0.155395
430 1 1.93563 6.575 4.10556 0.454216 -0.340061 -0.294725
431 1 6.00256 8.88172 7.5853 0.498142 1.32565 -0.971246
432 1 6.83285 1.61339 3.66442 -0.129508 -0.784471 0.617772
433 1 2.33238 3.53499 3.56239 1.06625 0.937457 0.550135
434 1 5.16519 6.63162 6.39659 -1.40001 1.50527 0.770752
435 1 7.11719 3.89636 6.42912 -0.0268648 -0.832998 0.0743385
436 1 4.15807 0.393778 1.88745 0.447791 0.45657 1.01646
437 1 3.99676 2.39065 3.72379 0.632005 0.0896593 -1.62344
438 1 0.897202 4.82002 6.21385 0.876654 0.466962 1.80521
439 1 7.54991 7.2021 5.09244 0.0638035 1.01711 0.0917963
440 1 7.81211 2.56276 0.0461341 -0.632847 -1.1017 0.290933
441 1 4.73052 4.98358 0.508051 -0.826417 -0.272156 -1.23568
442 1 1.50834 8.10479 7.49933 0.186668 0.295466 -1.02324
443 1 4.83896 2.81267 5.30772 0.361752 -0.646949 0.231315
444 1 4.34228 4.31176 8.75808 -0.401787 0.674541 -0.843581
445 1 2.03075 0.589144 7.49936 0.358198 0.296175 -0.995507
446 1 4.66351 0.809206 2.95545 -1.03032 -0.941838 -1.05722
447 1 6.9094 0.433361 0.126318 -0.618214 -0.583513 -1.16865
448 1 4.80004 9.38542 6.07202 -1.43525 0.502281 -0.851253
449 1 1.62426 2.58523 0.132778 -0.549965 1.19044 -0.372766
450 1 6.45452 5.08873 6.1172 -0.814194 0.462716 0.439626
451 1 0.299114 5.38902 7.83072 0.339828 -0.0692041 0.737174
452 1 1.53464 6.95605 2.6743 0.461525 -0.88885 -0.699553
453 1 1.63993 9.23534 6.6074 1.00997 0.418182 0.411472
454 1 3.3708 5.24485 3.64995 0.317192 0.12939 -0.0842976
455 1 7.24449 2.85788 5.09128 1.13576 0.479128 -0.0185067
456 1 0.661481 0.276335 8.37913 -0.424555 -1.65035 0.383288
457 1 8.15424 3.14901 4.52502 0.588829 1.84545 -0.320145
458 1 1.14421 0.162836 4.76292 0.346277 -0.374999 0.696306
459 1 3.75267 7.0552 0.644205 -0.973262 0.164735 0.0428258
460 1 4.15068 6.35239 0.139591 -0.171393 -0.216626 -1.20662
461 1 6.09302 0.382269 3.93351 -0.341871 -0.194513 1.68959
462 1 6.14881 1.83913 7.01346 0.378112 0.563624 0.960419
463 1 7.89098 9.20669 5.91738 0.73991 0.176219 0.0361601
464 1 8.63374 2.83785 8.27786 0.553932 -0.27248 1.25054
465 1 3.03293 7.0224 1.1971 0.548746 -0.151399 0.119978
466 1 2.21127 6.174 7.79435 -1.18962 0.311672 0.576687
467 1 4.47996 9.29712 4.21788 -0.350645 0.294423 -0.315948
468 1 4.14005 3.06998 3.14458 0.263918 -0.266917 0.00213028
469 1 7.45176 3.24656 0.50536 -0.197865 0.287643 0.00558402
470 1 6.66713 5.68832 8.85043 0.335866 0.442292 -0.875668
471 1 2.0237 2.30992 0.910468 2.2168 -0.0102044 0.00425547
472 1 6.62239 5.01607 7.89448 -1.06272 1.18591 -0.267194
473 1 3.73931 7.41565 7.26628 0.143603 -0.434979 1.08399
474 1 0.459944 5.85947 1.66965 0.493451 -0.0147242 2.01478
475 1 7.13893 6.75685 1.02779 0.404021 -0.189391 -0.726815
476 1 7.13593 9.36314 8.83945 -0.986001 -0.210968 -0.170119
477 1 4.12879 5.96105 4.0197 0.84141 -1.47146 -0.649963
478 1 1.0287 3.40474 4.14775 1.55458 -0.413657 -0.504339
479 1 6.41481 2.7875 2.21273 0.473919 0.119836 0.658902
480 1 7.5381 5.93924 1.66359 -0.35038 -0.311352 -1.71461
481 1 8.73512 1.26489 4.39079 1.58307 0.570473 -0.454646
482 1 6.61996 6.64029 5.05304 1.70467 -1.38919 -0.584077
483 1 6.78488 4.21827 4.28094 0.190139 -0.588167 0.953488
484 1 0.304472 4.29481 7.81887 -1.55833 -0.334425 -0.618131
485 1 5.27506 8.69896 4.188 -1.69154 -0.359884 1.24411
486 1 6.28379 3.1909 8.11417 0.923102 0.217393 -0.00280293
487 1 7.05554 6.75146 2.07055 0.665845 -1.6423 0.594446
488 1 0.0431535 1.2982 2.32637 0.0212272 -0.143212 -0.0573767
489 1 8.6121 2.8675 7.28714 -0.827712 -0.0270401 -0.336254
490 1 5.95872 8.14335 6.0899 -0.244703 -0.563053 0.0824156
491 1 9.08538 2.14838 6.6788 0.227547 0.637717 0.023183
492 1 2.66763 8.37982 1.5197 -0.600753 0.992843 -0.836854
493 1 3.26538 1.27292 5.58992 1.30299 -0.652016 0.669223
494 1 6.24633 8.26143 1.62872 0.624511 0.493249 -0.0891177
495 1 0.359604 5.05145 1.0116 -0.411601 1.59491 -0.338563
496 1 4.36688 7.24261 9.08641 -1.20975 0.363711 0.465327
497 1 4.33416 7.40338 1.27597 0.330554 -0.195878 0.195576
498 1 8.97084 5.44867 1.03433 -0.0449627 -0.567089 -0.153035
499 1 9.17865 4.86831 5.14099 0.263762 0.456169 0.679166
500 1 4.28122 3.70179 6.62748 0.951226 -0.345917 0.526138
501 1 8.10864 3.09638 1.6014 0.297912 0.132278 0.68888
502 1 7.92695 5.47319 7.55002 -0.124596 0.372783 -0.0967556
503 1 7.21151 0.030422 6.42564 -0.452043 -1.40918 -0.703171
504 1 1.82243 7.59124 5.18194 0.605366 0.120147 -0.112325
505 1 5.22413 0.040527 2.40683 0.665454 0.324787 1.46997
506 1 5.37032 7.42862 1.32984 0.0322954 -0.842761 0.464422
507 1 6.8853 8.23555 4.23257 -0.0139149 -1.25023 1.11365
508 1 9.36698 8.34833 5.50989 -0.616792 0.540551 0.0632267
509 1 1.09584 5.04388 7.14794 0.297638 1.39275 -0.693038
510 1 1.78171 5.44466 5.57491 0.229416 -0.16851 2.0107
511 1 0.584134 6.0977 0.651134 -0.100823 -0.64631 -0.683999
512 1 7.08694 4.84763 5.21673 -0.417203 1.12625 0.658878
513 1 0.558178 1.03284 6.4733 -0.411103 0.0436575 0.423294
514 1 4.03297 2.93238 1.60673 0.670601 1.85631 0.141878
515 1 0.372203 2.37826 0.892271 -0.952098 -0.18086 1.04084