ITEM: TIMESTEP
262200000
ITEM: NUMBER OF ATOMS
1000
ITEM: BOX BOUNDS pp pp pp
0.0000000000000000e+00 9.4000000000000004e+00
0.0000000000000000e+00 9.4000000000000004e+00
0.0000000000000000e+00 9.4000000000000004e+00
ITEM: ATOMS id type x y z vx vy vz
1 1 9.37277 8.60698 7.61045 0.71167 -0.73416 -0.582283
2 1 8.6524 8.19025 5.92823 -0.707798 0.673129 -1.11114
3 1 8.88017 4.08581 8.79761 0.199798 -0.294898 0.722265
4 1 7.84065 2.32092 4.1488 1.38446 -0.196397 0.690865
5 1 6.29479 7.89313 2.46814 0.299047 1.92858 -0.0365869
6 1 8.88754 0.046826 5.36298 0.224483 -0.605209 1.08136
7 1 3.62871 8.37135 1.07349 0.736765 0.0300824 -0.851966
8 1 0.274053 6.32809 2.94189 -0.0621457 -0.015764 -0.807128
9 1 4.91111 0.91378 3.78266 0.489631 -0.84821 -0.396339
10 1 1.53531 6.76273 6.43956 -1.14046 -0.474096 -0.322947
11 1 7.8683 3.3685 1.15772 -0.625324 0.478588 -0.998193
12 1 1.37769 5.68995 2.16715 0.450405 0.568671 -1.82586
13 1 8.07857 2.25409 9.29237 -0.299671 1.1496 -0.172998
14 1 1.69747 2.31872 4.18068 0.617059 0.151925 -1.28584
15 1 5.00341 8.78808 6.76106 0.75779 -1.30015 1.4742
16 1 5.15607 4.08896 6.52732 -0.833183 0.987328 -0.807213
17 1 1.37018 6.27949 1.25076 -0.171034 0.137776 -1.15142
18 1 9.20774 3.45731 3.57817 0.46635 -0.718603 0.0400707
19 1 8.52549 6.63836 5.6801 0.385072 -0.330221 0.852558
20 1 5.32784 0.897646 0.27755 0.0327399 0.0890606 -0.292031
21 1 2.91018 6.46249 5.26876 0.120131 -0.217064 1.06235
22 1 0.101946 1.19804 2.07317 0.162609 -0.157768 -0.375841
23 1 1.1116 9.12123 1.39966 0.919377 0.648729 0.301229
24 1 5.93586 3.30148 8.65163 -1.44942 0.647876 0.0356566
25 1 1.63661 7.63991 5.70139 -0.141322 -0.107549 -0.163101
26 1 2.45258 5.89681 5.84592 -1.07673 0.822919 -0.61038
27 1 0.860242 3.14153 3.58657 1.13944 -0.630617 1.42756
28 1 0.321496 5.30211 8.15942 -0.20222 -1.64076 0.0778536
29 1 5.47035 9.30833 1.56606 -1.31267 0.5836 -0.0517392
30 1 4.67359 2.11093 3.7685 0.219753 0.700623 -0.387447
31 1 3.58111 8.39537 5.16095 0.86791 0.608761 1.00414
32 1 6.03213 5.06297 7.38029 -0.262075 -0.478263 0.287702
33 1 2.54348 0.474225 3.08282 -1.63543 0.497162 -0.800492
34 1 5.0847 1.67469 7.01279 -0.466858 -0.548782 -0.0137805
35 1 0.852903 2.32551 4.04117 0.245369 -1.27204 0.251986
36 1 1.0161 1.37702 1.41618 -0.0468311 0.385019 -0.532828
37 1 2.8244 2.17053 1.094 -0.640727 -0.0272717 -0.162226
38 1 8.65844 4.37116 6.54589 -1.03177 -0.648599 -0.398729
39 1 7.41049 2.34062 6.40067 0.314281 0.268886 0.348529
40 1 1.32828 0.685441 6.12195 1.2926 0.159756 1.25743
41 1 3.80763 3.67306 4.0399 0.441318 -1.53948 -0.510867
42 1 1.58628 5.60443 0.32817 -0.398885 0.521163 0.0994673
43 1 1.08273 3.92365 9.27219 -0.31643 0.168829 0.719213
44 1 8.75723 5.89516 4.91893 0.58037 -0.00559141 -0.829222
45 1 9.08838 4.47522 0.35425 -1.2797 -1.55464 -0.073064
46 1 8.207 0.285526 7.96617 -0.675012 2.01025 -0.627763
47 1 0.646787 1.98619 3.26976 0.246811 -0.66923 -0.611544
48 1 4.81786 7.46567 3.14958 0.813391 0.390414 -0.588997
49 1 4.84236 6.47877 6.97578 0.188671 1.20753 0.063864
50 1 7.33603 7.78348 6.3612 0.57389 -0.119371 1.44975
51 1 3.97054 7.7166 3.63846 0.309076 -1.03104 -0.124297
52 1 5.7809 1.46727 6.28021 -0.360912 -0.889954 0.774695
53 1 0.7307 3.12294 6.44656 -0.377588 0.673594 0.680468
54 1 2.90752 7.83469 5.57139 0.160969 -0.177553 0.229391
55 1 9.35466 7.75506 5.13443 -0.342041 0.931972 -0.212842
56 1 1.02388 4.04622 1.062 0.237834 1.301 -0.394903
57 1 4.13393 5.69577 9.00223 -0.216811 0.121148 -1.77428
58 1 5.96321 9.11275 7.89306 -1.28251 -0.442002 0.778186
59 1 3.22719 0.397849 5.91331 -0.0947581 0.166236 -1.69481
60 1 4.11184 5.87686 1.21455 0.572008 -1.01097 0.352943
61 1 1.16445 0.379903 8.31727 0.739036 -0.276245 1.03357
62 1 -0.0211863 3.91424 0.953859 -0.596368 0.824636 0.528722
63 1 7.98558 7.05085 8.11991 0.435691 -0.778451 1.48903
64 1 2.62022 9.04494 0.444549 0.158247 -0.181004 -0.309673
65 1 6.87836 2.26772 2.42171 -0.129849 0.791216 -1.04335
66 1 4.16693 3.13776 3.07389 -1.54396 0.947408 0.659193
67 1 7.09791 7.11659 9.24406 -0.103808 -0.692608 0.398774
68 1 5.39766 0.0178637 8.51994 0.468111 -0.986555 1.53257
69 1 3.7357 8.01968 2.30573 0.568335 -0.311512 0.254623
70 1 5.28667 8.86533 5.84518 -1.51533 -0.963736 -0.128382
71 1 0.791686 2.26602 0.995757 0.901916 -0.227513 -0.928059
72 1 3.71656 6.04004 4.8287 0.782485 -0.55562 -0.731309
73 1 8.93068 4.26289 4.00723 0.76589 0.402074 -0.944473
74 1 1.22231 4.11924 4.49494 -0.323413 -0.366289 0.484549
75 1 4.01542 7.65926 4.62816 0.074303 -1.38412 -0.0831907
76 1 3.80054 6.41658 2.65137 0.96467 -0.312198 -0.607038
77 1 3.05639 2.5703 1.87104 -0.0837235 -0.831197 -0.707481
78 1 6.51333 5.36725 3.45202 0.101118 0.436808 0.185866
79 1 5.49855 5.51907 4.07216 0.779946 -0.602182 -0.33844
80 1 7.16924 9.01654 3.24285 1.00016 -0.0912237 -0.186226
81 1 4.39352 1.37104 3.14622 1.90067 0.460993 0.355223
82 1 0.617601 3.03494 0.574392 -0.703868 -0.28862 -0.979765
83 1 7.25831 7.50644 4.37336 -0.215329 1.40328 -0.831477
84 1 6.66341 4.536 0.117082 0.748161 -0.00684452 -1.27215
85 1 3.80574 7.12242 -0.0188351 -1.24423 -0.569813 -0.267259
86 1 4.69914 5.53054 7.25369 1.02948 0.145779 -0.30262
87 1 1.18353 8.23034 2.64009 0.41983 -0.535238 0.532164
88 1 6.89056 2.43063 4.72045 -0.390855 0.332799 0.385779
89 1 5.26516 8.11844 0.69888 2.14378 -0.116998 0.602485
90 1 7.56866 2.48375 2.92524 -0.177875 -1.27312 -0.269047
91 1 5.01392 0.278642 7.58359 1.20735 0.012799 0.650135
92 1 8.92295 2.26418 7.30433 0.269006 0.360652 -1.59941
93 1 5.68863 4.44221 5.91988 0.301465 0.266228 -1.01933
94 1 4.43036 2.61609 5.41547 -1.50676 0.486452 1.05061
95 1 8.12194 4.03113 8.3608 1.23219 1.64219 -1.17316
96 1 6.05894 2.62834 8.00693 1.20716 -0.5188 -0.137222
97 1 7.6609 2.18801 8.38047 0.452772 -0.444806 -0.0310902
98 1 8.67666 3.45201 7.37879 -1.77846 0.473906 0.696222
99 1 8.28627 4.93886 8.1469 -0.530839 -0.684593 -0.246972
100 1 4.44042 3.01884 7.53241 -0.0209766 -0.208435 -0.128759
101 1 7.99773 4.44001 3.90537 1.03538 -0.419313 0.29088
102 1 4.83646 9.38775 5.16814 -0.963741 -0.233494 1.29293
103 1 4.8242 3.27103 6.29852 -0.125306 -0.220263 -0.348458
104 1 5.57857 1.72127 4.17632 -0.311051 -1.00018 -0.676194
105 1 1.97915 3.28399 4.12776 -0.0120829 0.650774 -0.430206
106 1 1.179 6.62479 2.83792 -1.06875 0.344589 -0.085182
107 1 5.72473 6.91826 7.70691 0.17705 -1.8397 0.381356
108 1 7.21482 4.37721 4.59537 -0.258935 1.34673 0.196443
109 1 1.572 9.155 6.33309 0.499721 0.0269975 -0.329187
110 1 8.68067 5.05559 6.02904 0.674985 0.432102 0.0165828
111 1 7.27179 6.20632 1.16843 -0.69461 0.349155 1.06733
112 1 4.4337 1.62285 5.29805 -0.367026 0.380107 -0.86403
113 1 1.15948 5.08047 3.64321 -0.968875 1.12658 -0.3212
114 1 7.62636 3.09232 5.93795 -0.303731 -0.240677 0.52062
115 1 8.01111 5.82567 0.470382 0.715662 0.228034 1.77101
116 1 4.51576 8.47557 4.92576 0.328252 1.01283 0.915706
117 1 3.92239 0.311604 7.82049 -0.126041 -1.1535 2.18923
118 1 8.73446 5.01997 2.96108 1.25228 0.750512 0.392292
119 1 2.19682 5.13927 8.82302 0.611277 -0.291123 -1.14642
120 1 2.54951 3.19028 6.58911 0.125143 -0.979117 0.456763
121 1 5.72755 0.778105 1.79752 0.924562 0.0496342 0.145319
122 1 1.46285 0.975325 4.05579 0.551584 2.08269 1.05323
123 1 5.13688 5.44698 1.49201 0.430374 0.293628 -0.13672
124 1 9.38451 1.40208 9.29314 0.439213 -0.152134 0.349974
125 1 5.39475 1.4507 1.01817 -0.361988 0.235419 -2.37407
126 1 8.10953 7.52009 4.74952 -0.742943 -0.718081 -0.66309
127 1 4.91312 3.22827 1.50145 0.709154 1.00375 0.438334
128 1 8.6904 7.77005 7.87067 -0.868131 -0.404212 -2.18707
129 1 2.07918 3.85079 2.40622 0.22639 -0.125388 -0.196559
130 1 5.50735 7.1082 1.71152 -0.306918 0.0603225 1.32464
131 1 3.92428 9.33282 6.92161 -0.26507 -0.752935 -1.13736
132 1 8.34823 1.0355 4.99308 0.648077 0.104894 -0.132315
133 1 7.95025 8.80092 0.644153 0.289342 -1.65094 -0.436568
134 1 1.01685 4.39712 5.94582 0.367489 -0.517511 -1.0605
135 1 5.28147 2.76542 9.21106 0.932483 -0.485162 -0.436296
136 1 2.22663 6.15483 0.175021 -0.640616 -2.20936 0.320757
137 1 7.56691 3.22709 2.05362 -0.836559 1.76586 -0.960437
138 1 0.623614 5.75763 3.60815 -0.356408 -0.0188686 -0.0976822
139 1 1.12539 1.22636 2.55278 -1.0324 -0.468536 -1.16621
140 1 0.444624 8.19328 1.10469 0.664782 1.74192 0.385517
141 1 0.873877 7.93693 5.15108 -0.583638 0.246586 -0.438
142 1 9.27053 9.27739 2.81591 0.14969 0.562101 -0.297451
143 1 5.84409 1.63922 8.27756 -0.732743 0.301655 -0.226476
144 1 1.81774 3.93506 6.37807 0.671945 0.6098 -0.163414
145 1 4.55011 0.529796 8.49152 1.35289 0.660011 0.472835
146 1 1.9713 0.482992 7.0177 0.372965 -0.564387 -0.292083
147 1 8.37674 3.03389 3.55872 1.25891 -0.112701 -1.02511
148 1 4.27235 0.582166 5.5864 0.610882 -0.102497 -0.486549
149 1 0.643801 6.22749 7.72815 -1.34663 1.45034 -0.223208
150 1 1.18026 3.74955 5.37593 0.337683 -0.20487 -0.377433
151 1 4.31445 0.977405 0.16671 0.511188 -0.431516 -0.0305911
152 1 5.18689 5.16899 7.84915 -0.0837356 0.593322 -0.984488
153 1 4.27313 8.04472 9.2691 -0.972004 0.854723 0.00421774
154 1 1.91579 2.46481 6.83327 0.252385 0.261376 0.138189
155 1 2.98033 7.40371 3.84236 -0.54857 2.29143 0.369387
156 1 8.09244 3.4239 4.36023 0.453844 -0.731764 -1.26094
157 1 0.220966 8.34411 5.67619 0.440033 -1.09914 -1.04406
158 1 3.20732 5.68969 1.838 -1.03094 -1.0411 0.584146
159 1 7.25465 2.00881 0.303035 -0.0899572 -0.105629 -0.844935
160 1 1.34511 3.92287 1.85487 0.989926 0.139986 -0.0992258
161 1 9.17625 8.66195 8.83213 -0.93566 1.01084 0.467516
162 1 3.81156 7.25631 1.75325 -0.237462 -0.185886 0.623926
163 1 1.20816 6.79439 0.503609 0.00421377 -0.709012 -0.248823
164 1 0.910935 8.55284 7.73163 -0.229768 0.0147087 -0.150851
165 1 0.21365 5.57162 4.48428 0.126772 -0.167767 0.0570204
166 1 8.77434 6.59428 6.63275 -0.113373 0.278833 0.242365
167 1 3.80175 7.434 0.920019 0.419456 -1.10943 0.19329
168 1 7.93769 4.74226 6.04951 -0.323508 0.0455116 -0.535734
169 1 0.202094 1.95827 6.73431 0.367233 -0.151644 0.767163
170 1 0.898041 8.36047 4.39059 0.243177 0.0507347 1.30891
171 1 6.51784 0.579685 2.38406 0.357768 -0.419339 1.12898
172 1 2.4011 8.09175 7.70749 -0.942821 0.988643 -0.0394012
173 1 7.31114 8.16121 1.20134 0.762995 0.60685 -0.446962
174 1 5.37251 5.12786 6.59604 -0.358304 -0.813402 1.36961
175 1 7.78167 2.78502 4.97087 0.404155 -0.695605 -0.437474
176 1 8.64478 7.28641 2.09719 0.853993 -0.851989 -1.29886
177 1 2.59938 1.0393 6.26503 0.920754 -0.443519 0.878255
178 1 6.47309 4.14585 3.08709 0.714533 1.00563 1.32586
179 1 1.58603 1.00523 7.79759 -0.12555 -0.57485 0.742596
180 1 7.93511 0.233912 2.67814 -0.846067 0.21448 0.839623
181 1 5.64409 8.72151 2.30616 0.0978237 0.568089 0.0325096
182 1 7.5435 2.55435 7.54558 0.182023 -0.593163 -0.44133
183 1 7.10088 3.30377 2.80286 -0.665076 0.622503 0.343602
184 1 8.92196 0.936288 8.19239 1.02872 0.907149 -1.34434
185 1 4.93559 4.61866 9.3456 -0.718222 1.60069 0.184693
186 1 1.97109 4.81802 3.31731 -1.22151 -0.0737564 0.122871
187 1 7.51883 4.45355 1.1355 0.744806 0.182767 -0.308812
188 1 4.20367 3.05601 0.936366 0.830924 -0.453282 -0.987243
189 1 3.73772 7.25273 6.95515 -0.342719 -0.754356 0.627831
190 1 2.96313 2.09641 0.135861 0.0976787 -1.29051 0.290142
191 1 8.98301 6.90817 1.3218 -0.628773 0.769952 0.770701
192 1 3.02575 5.71117 8.32887 0.387876 -0.380288 -0.17732
193 1 0.336054 2.06904 2.28097 0.0914567 -0.430578 -1.36498
194 1 9.28935 1.74528 1.01739 -1.12777 -0.371477 0.30105
195 1 2.24466 4.30506 4.07149 -0.626246 0.580817 0.498085
196 1 3.32797 8.4094 0.211932 -0.792279 1.39362 -0.735601
197 1 0.876072 0.688619 0.0569239 0.50132 0.833738 0.0209818
198 1 1.96591 2.84642 2.09639 1.37261 0.00642147 -0.686583
199 1 3.4115 4.36324 2.06876 1.03632 0.134526 -0.161656
200 1 7.33564 0.224942 1.95 -0.752315 -0.82066 0.509833
201 1 6.59674 4.50057 1.19209 0.970437 0.232389 0.526765
202 1 1.71268 7.71004 4.36404 -0.423616 -0.54669 1.4412
203 1 6.31594 1.75347 3.64815 -0.249999 0.632386 -0.389935
204 1 2.69252 2.46171 4.69274 1.07658 0.843437 -1.16791
205 1 7.24004 4.91698 5.37596 -1.02153 -1.24213 -1.60586
206 1 2.08167 6.87254 4.13906 -0.238425 -0.230694 1.75858
207 1 6.37183 1.26658 6.92587 0.791471 -0.674427 -0.213197
208 1 0.98507 3.09695 2.50611 -0.411447 -0.526716 -1.18819
209 1 2.96325 7.82715 6.8773 -0.805845 1.3535 -0.98519
210 1 6.92456 6.14503 0.251608 0.550398 -0.704825 0.0497625
211 1 4.91082 3.38228 5.18156 1.46962 -0.059454 -0.223552
212 1 1.18815 7.68227 0.909497 -0.5385 -0.875541 0.106451
213 1 5.39715 6.14184 5.13852 0.015674 0.0805632 0.804092
214 1 0.0703975 7.09389 9.0236 -0.659896 -0.568971 -0.304658
215 1 7.16318 8.32778 3.75882 -0.647225 -0.670589 0.373218
216 1 6.65636 1.67305 5.19629 0.498091 -1.46141 -0.23433
217 1 0.917052 8.63174 9.13322 0.965141 0.419301 0.592231
218 1 4.74548 5.95969 8.04966 0.911433 0.791361 -1.61831
219 1 1.98639 8.69399 9.35891 -0.88075 -0.246083 -0.917607
220 1 7.05326 3.97302 3.69082 1.0423 -0.619532 -0.507655
221 1 3.79594 6.01795 3.50514 0.29407 -0.47358 0.32327
222 1 3.14137 5.89534 7.52169 0.539987 0.211078 0.749329
223 1 5.3977 7.65866 2.33317 1.73379 0.400042 -0.308368
224 1 1.53002 6.59193 8.27179 -1.19355 -0.950362 0.519914
225 1 4.06645 3.65252 8.08912 -0.290261 -0.278098 -0.885254
226 1 3.36012 3.5363 6.12862 -0.27495 1.09233 0.0739212
227 1 3.55125 2.84444 9.06187 1.05726 0.257074 -0.828116
228 1 0.653591 5.84601 1.58193 0.412794 0.759905 0.344584
229 1 9.25866 3.55637 2.39736 1.05338 0.710533 -0.0819259
230 1 0.00877967 0.720242 0.464124 -0.348086 0.761991 0.38755
231 1 5.70085 6.7293 6.48386 1.16064 0.458067 0.392752
232 1 4.33101 8.04757 8.23824 -0.0340537 0.822233 -1.22134
233 1 2.34845 7.24565 6.00431 -0.785215 -1.18474 1.14019
234 1 1.75102 0.363064 1.53243 0.11004 0.393855 -0.645896
235 1 7.20844 8.4454 8.00906 -0.454034 -0.629492 -1.30619
236 1 5.46081 3.64678 3.73525 2.18566 0.656229 -0.214785
237 1 8.49195 4.04134 1.36414 0.511542 0.891407 -0.266174
238 1 6.77754 3.58834 4.69509 0.189652 0.0250017 2.35259
239 1 4.58384 9.04081 1.30546 -1.07334 1.46358 0.502648
240 1 0.0286704 6.07911 5.67632 -1.82521 -0.42363 -0.345355
241 1 6.81748 2.17996 7.22806 -1.04738 0.674343 -0.36257
242 1 4.6539 5.19585 3.81199 0.0716568 -0.76402 -0.8601
243 1 5.16413 0.882653 4.63821 0.455785 0.210692 0.365072
244 1 4.87665 5.23961 5.73527 0.4958 0.486795 -0.283403
245 1 3.12533 1.24805 1.36229 -0.793038 0.0801599 -0.810721
246 1 0.0753471 6.8774 7.2091 -0.454656 0.27827 -0.764314
247 1 3.6511 6.22409 6.68121 -0.565871 -0.316814 -0.250367
248 1 2.11227 6.8346 0.748862 0.465477 -0.537486 -0.467532
249 1 9.33288 3.87378 6.97234 -0.33115 0.811842 0.715817
250 1 5.77151 8.50139 9.3283 0.507999 1.08099 0.12283
251 1 5.77363 2.52771 6.40845 1.42168 0.622767 0.13518
252 1 0.713845 2.20399 8.35035 0.529518 -0.498478 -0.198674
253 1 5.66429 0.751144 2.75829 -1.51317 -1.58681 0.674807
254 1 4.79515 4.82061 1.03031 -1.35074 0.520482 -0.958121
255 1 3.03636 9.22284 6.56728 1.16005 0.286128 -0.423134
256 1 8.04839 5.55811 3.84406 -0.625318 -0.65698 1.32267
257 1 5.63787 7.98583 3.41321 0.665928 -1.49818 0.629
258 1 6.75508 4.56762 8.51977 -2.23435 -0.564953 0.95339
259 1 6.12447 4.30389 2.25866 1.30185 -1.17813 -0.267488
260 1 1.42745 1.52893 0.30367 -0.241857 -0.389173 -0.623507
261 1 8.06345 8.39776 3.95752 0.492505 0.396869 -0.845523
262 1 5.43458 7.10075 4.04103 1.0065 -0.206235 -0.266615
263 1 6.38482 6.4961 5.37893 -0.396619 -0.0552568 -0.30712
264 1 7.80438 7.5435 3.60484 -0.420119 -0.192745 0.0227808
265 1 7.79233 8.56321 5.38381 -0.273973 -0.643379 -0.133201
266 1 5.40483 3.41371 7.72241 -1.51072 0.244474 1.10323
267 1 5.91172 0.971685 3.6434 -0.0478192 0.00686247 -0.817307
268 1 2.76873 8.98169 4.55815 0.125026 0.503343 0.573485
269 1 5.1587 8.52994 4.29117 -0.810577 -0.193991 1.88796
270 1 2.92354 8.4438 2.3103 -0.502337 -2.18713 1.46521
271 1 3.59448 4.62743 4.49541 0.980019 0.804377 -0.757339
272 1 6.25443 4.26492 3.9747 -1.29362 0.249278 0.290746
273 1 5.35852 0.555892 5.62194 -0.64699 0.472142 1.07798
274 1 1.59043 0.631018 4.765 1.01709 0.709027 0.938857
275 1 8.27952 5.79091 6.18892 -0.608248 -1.42506 0.349881
276 1 5.86185 2.58036 3.82943 -0.284183 0.281685 -1.5334
277 1 4.89974 6.54005 5.88463 0.773253 -0.652353 0.852773
278 1 8.07973 2.0706 7.03064 0.103405 -0.645282 1.08868
279 1 1.01906 9.35315 0.516675 -0.611648 0.861475 0.381521
280 1 4.49585 4.8006 2.87611 0.222295 0.704406 -1.24916
281 1 5.6147 7.2251 5.8337 -0.982796 -0.24449 -0.248164
282 1 2.4684 0.296774 8.58796 0.104396 -0.0975579 -1.19629
283 1 7.18714 9.25508 0.92465 0.453413 0.937849 -0.712306
284 1 0.948628 6.75283 8.88974 -0.0991046 0.0431221 0.83323
285 1 7.39503 2.15828 5.48032 0.0649268 -1.63879 0.891
286 1 8.72309 8.07384 6.93754 -0.393509 0.306938 0.535943
287 1 4.69692 5.6373 0.524644 0.0823381 -0.132354 0.321925
288 1 1.55658 1.48384 3.33944 0.588107 -1.04226 -0.952359
289 1 7.74994 3.12757 9.0254 -0.752516 -0.389293 -0.0869268
290 1 4.46548 4.18701 1.83401 -1.01042 1.42012 1.82228
291 1 1.74875 6.53653 5.56949 0.544858 0.369242 -0.316509
292 1 0.641134 6.76075 6.49095 0.0202063 -0.244374 -0.38707
293 1 1.11439 3.7914 7.62077 0.129402 -0.144519 0.731931
294 1 0.151401 9.35161 0.979767 0.282952 -0.385546 0.353477
295 1 3.60106 8.81042 8.0984 0.802831 -0.607349 -0.697463
296 1 1.9948 7.48979 1.43316 0.402431 1.35791 0.836847
297 1 2.98892 0.206731 3.95378 0.347677 -0.405956 0.233458
298 1 5.28514 4.49532 3.96082 -0.491171 1.65409 0.241929
299 1 1.34387 5.88926 8.88947 -0.101009 0.952955 0.22693
300 1 8.1562 1.23021 5.91956 0.0999967 0.123433 0.0732846
301 1 6.09208 1.215 9.21399 0.288604 -1.73624 0.63843
302 1 3.36997 7.93575 7.93629 0.0108535 -0.604129 0.574924
303 1 2.70698 3.9325 7.13597 0.721205 1.00395 -1.00046
304 1 5.43042 5.21163 3.19122 -1.33957 -0.371165 -0.296906
305 1 1.98912 8.10136 2.24208 0.582992 1.06435 0.03092
306 1 2.56956 1.22283 7.51581 -0.528756 2.51437 -0.439994
307 1 7.82113 7.97476 8.32272 1.48965 -1.09393 -0.499798
308 1 4.34611 2.98606 9.39091 -0.489718 0.823134 1.6325
309 1 3.15351 8.71563 7.39466 -0.754703 -1.18882 0.564271
310 1 1.55042 8.90254 8.501 -0.271214 0.591796 0.0177438
311 1 2.76758 4.90708 1.35301 -0.0818601 0.894628 0.652085
312 1 6.64311 8.98335 0.308054 0.104934 0.323078 -1.35305
313 1 1.08293 1.90616 7.58822 -0.426428 -1.25087 0.992584
314 1 2.96925 3.57518 4.43039 -0.336313 0.587249 1.06675
315 1 8.4874 5.66521 2.18983 -0.236098 0.551266 -0.19424
316 1 9.07347 1.30199 6.17153 -0.291367 0.344432 0.623295
317 1 3.11002 7.34295 4.73864 0.22258 -0.841284 0.115018
318 1 1.24664 8.28657 1.70315 1.18627 0.751242 -0.338524
319 1 6.93059 8.62592 5.89029 0.0723058 -0.212578 -1.08093
320 1 4.33323 6.62165 0.509504 -0.481616 0.973972 -0.282263
321 1 4.8422 0.8048 2.14154 1.32202 0.780076 -1.09509
322 1 8.22596 8.6898 7.79802 -0.127518 1.02631 0.0523676
323 1 0.326763 7.52885 4.19727 0.632898 0.00961506 0.563917
324 1 1.67922 2.95375 6.13401 0.336261 0.29177 -0.590555
325 1 7.86312 8.79554 2.49012 -0.242013 -0.129557 0.278493
326 1 1.70819 8.35753 5.151 -0.552675 -0.277109 1.20621
327 1 0.0768408 2.27731 0.255844 -0.281952 0.138714 0.357293
328 1 8.6058 1.22656 0.639727 0.141667 1.30534 0.180902
329 1 6.62716 9.09087 4.16404 -0.232446 -0.566068 0.0549651
330 1 7.99973 0.177519 5.29817 0.552606 0.510109 -0.585905
331 1 2.06261 3.14755 8.97595 1.00721 -1.34503 -0.8648
332 1 7.17822 2.05393 3.71687 0.557753 1.24836 -0.900188
333 1 9.09937 9.29682 8.13895 -0.406271 0.344492 0.585171
334 1 1.5606 7.87515 7.88174 0.577651 -0.450539 -0.0310873
335 1 1.8724 8.77251 4.30315 1.949 -0.379143 -0.101464
336 1 3.54995 9.27597 0.623593 -0.138523 0.692182 0.559485
337 1 5.60809 2.73756 1.89141 0.246065 -0.179825 -0.78506
338 1 1.6026 1.92033 8.68524 2.07547 -0.122373 -0.858697
339 1 7.57782 6.41993 5.93584 -0.52141 0.519471 -0.170568
340 1 1.10899 7.71127 6.99006 -1.70984 0.359424 0.875392
341 1 3.84197 8.21291 7.15676 -1.40317 0.0821442 0.582034
342 1 7.08867 3.73178 9.19923 -0.256683 -0.725155 0.51998
343 1 4.56925 6.09245 1.97562 0.70821 0.330694 -1.08599
344 1 8.01973 6.3394 8.99897 -0.6732 -0.13279 0.0694284
345 1 7.03558 5.99359 3.83393 0.919859 -1.10502 0.162893
346 1 7.28435 6.95403 6.68615 1.26717 0.118623 -1.25809
347 1 6.2565 0.49799 7.25009 0.0157008 0.0241599 -1.2472
348 1 5.20543 4.33836 7.46998 1.18232 0.244965 -0.833086
349 1 8.70947 0.317077 6.37169 -0.485852 -0.804153 0.558364
350 1 1.55357 5.81741 3.16341 0.669501 0.0261467 0.388108
351 1 1.01348 3.0717 4.62176 0.0739254 1.11822 0.859722
352 1 1.37414 1.18441 6.97079 -0.74094 0.491046 0.631505
353 1 4.82779 7.76348 5.47159 -0.126705 -0.332011 -0.94205
354 1 6.40664 6.80832 2.9005 -1.01547 -2.53203 -1.20138
355 1 6.04191 9.23868 6.71793 0.000542225 1.01685 -0.539996
356 1 9.18022 0.994685 4.42119 -0.485538 -0.509233 -0.265251
357 1 6.66569 8.42477 4.83852 0.155816 -0.358012 0.556132
358 1 1.13848 4.44773 8.30246 0.767006 0.132731 1.70347
359 1 9.14766 2.65295 0.922468 0.349896 1.65544 0.100599
360 1 1.59938 5.47214 5.4424 -0.0507817 -0.259325 0.124369
361 1 9.34932 5.35726 1.94849 -0.511022 -0.330153 0.148871
362 1 1.25505 0.568597 3.28219 1.35901 0.75202 -0.975161
363 1 8.46366 2.0924 5.05466 1.15555 -0.128369 -0.107127
364 1 1.13478 5.31326 7.63055 0.463054 0.540673 0.105129
365 1 8.77262 1.8475 2.67095 0.352047 -0.879863 1.21516
366 1 1.71346 8.70232 3.13652 -0.667073 1.38708 -1.11716
367 1 5.2383 6.31105 0.895894 0.834541 0.944651 -0.0769283
368 1 5.60689 3.05821 0.809874 0.532932 0.129475 -0.15708
369 1 3.68911 8.83274 1.78639 -0.948858 -0.38946 0.224449
370 1 0.166842 1.79359 7.73967 0.39624 -0.0575385 -0.0703883
371 1 4.31155 2.56441 6.74182 -0.161275 1.44466 0.973861
372 1 3.00563 5.10786 5.41676 -1.16876 0.0747368 -0.539539
373 1 7.33032 1.59892 1.50676 -0.396775 -1.97247 0.863563
374 1 5.2049 6.80924 0.0886946 -0.0560361 -0.782716 0.123168
375 1 3.48065 1.34322 5.64768 -1.14797 -0.425412 0.29723
376 1 4.12963 1.45143 1.85177 0.748795 0.131584 -1.36284
377 1 3.56552 0.861336 2.2301 -0.313343 0.794037 0.982254
378 1 3.46163 5.04505 8.7927 -0.144752 -0.529774 0.230385
379 1 3.52115 1.27193 7.85516 -0.294693 -0.880298 -0.917056
380 1 3.7702 5.73844 5.79127 -1.05545 0.0790339 0.956876
381 1 3.57959 3.41831 0.349322 1.32596 0.755839 -0.67492
382 1 8.57883 9.10973 3.46035 0.097747 -0.224656 0.846417
383 1 1.3032 7.39517 2.07323 -0.100379 -0.370214 0.224852
384 1 6.5377 7.0394 6.17578 -0.632379 -0.0666233 -0.728808
385 1 2.91426 5.65954 6.72741 0.387106 0.964499 0.133696
386 1 0.631988 9.11204 8.47815 -0.847325 -1.19471 -0.838013
387 1 6.11317 1.09749 0.68804 -1.21837 0.185022 1.52253
388 1 9.28627 2.03015 8.62645 -0.808936 -1.38556 -0.674819
389 1 7.26045 4.66722 3.12309 1.40862 0.252657 0.662073
390 1 6.07297 6.11101 0.56125 1.63404 0.940892 0.259989
391 1 8.49224 1.74434 8.21676 -0.427725 -0.212308 -0.333402
392 1 6.73533 2.93788 6.5662 0.922485 -0.482635 -2.09388
393 1 4.42921 0.82036 7.20246 -1.09508 -1.17803 1.2647
394 1 6.28711 3.32232 4.08496 0.222643 -0.0614444 0.594553
395 1 2.03952 6.62788 2.93975 0.264891 -0.0093263 -0.380157
396 1 3.32192 4.22968 5.31127 0.972118 -0.878427 2.54944
397 1 7.47551 5.38312 1.46286 0.126834 0.0793151 -0.571074
398 1 4.09959 1.91935 4.51142 -0.138045 1.01529 -0.380483
399 1 2.84301 4.20709 0.856482 0.0815038 0.324848 0.328893
400 1 0.224964 8.72938 0.366575 0.165557 0.524732 -0.110498
401 1 4.05745 5.04171 0.239124 -0.593414 -0.016301 -0.25318
402 1 1.9703 0.0870331 3.74148 0.417569 -1.20674 0.981888
403 1 2.67588 6.30723 1.36674 -0.786407 0.940469 0.866632
404 1 6.41864 7.6691 6.69237 0.175926 0.257184 -1.10826
405 1 3.22193 8.44213 3.9372 0.0201925 -0.141502 1.27672
406 1 5.11032 2.79573 3.36048 0.312959 -0.76455 -0.298805
407 1 8.70233 6.06924 2.98843 -0.0787631 -1.09315 1.07477
408 1 6.99306 1.37299 9.12973 -1.15001 0.0374698 0.715396
409 1 8.3285 0.34443 0.481081 -0.300419 -0.370159 1.50591
410 1 5.22446 2.41426 8.39241 -1.37958 -0.851603 0.193646
411 1 0.818932 9.06979 3.18558 -0.777183 0.731403 0.629232
412 1 8.03147 5.42198 7.37487 -1.84105 1.02531 1.02613
413 1 2.48598 7.5871 0.186748 0.307672 0.363944 -1.66917
414 1 8.78553 0.433764 9.12289 -0.207614 0.631976 0.0796695
415 1 6.49367 6.02188 7.96019 -1.0578 0.765369 0.257263
416 1 0.188901 2.5118 5.95185 -1.12917 -0.102606 0.384516
417 1 1.08329 0.333363 6.88224 -0.872943 0.0789499 0.0270922
418 1 3.29457 9.13566 3.317 0.725605 0.621171 0.0450818
419 1 9.18604 5.25547 5.30835 -0.993973 -0.0659778 0.178273
420 1 5.58336 2.85387 5.64262 -0.0705313 -2.02018 0.859911
421 1 6.48402 1.63015 1.93081 0.342736 -0.706235 -0.219412
422 1 3.45087 4.21771 8.41126 -1.38357 1.15876 -1.42015
423 1 3.73906 2.42041 0.470565 -0.268887 0.152295 -0.15322
424 1 1.64258 0.993963 8.97075 0.243581 -1.85419 0.540253
425 1 4.31932 4.0077 7.02962 -0.222284 0.0968036 1.75797
426 1 8.63882 0.513304 3.04635 0.405292 -0.584997 0.13945
427 1 7.64118 8.67747 7.04411 -1.0429 -1.70821 -1.0049
428 1 1.21384 2.37659 2.04495 0.344266 -0.465805 1.4434
429 1 7.06543 6.35868 8.82384 -1.14235 0.478591 0.990684
430 1 8.20536 4.44037 7.32432 0.60309 0.831492 1.49672
431 1 0.470177 5.48515 0.616996 -0.46703 0.682315 -1.04613
432 1 8.23453 1.27729 2.93634 1.67704 0.981897 0.0101105
433 1 5.05121 2.29068 4.69705 -0.739395 0.433979 -0.749833
434 1 8.81392 1.50421 3.73884 0.839473 0.0488233 -0.180673
435 1 1.75894 2.61307 5.1638 -0.206488 1.26557 0.0258939
436 1 3.57528 3.83148 1.15813 -1.57612 0.650885 -0.0523061
437 1 6.63404 9.124 2.56286 0.443314 -0.136218 -0.601422
438 1 0.74164 6.51395 5.56859 0.563876 -0.951255 0.689896
439 1 1.84112 4.2549 9.13818 0.299201 0.191747 -1.09492
440 1 9.05498 4.2764 7.75071 -0.119459 1.95305 0.515602
441 1 3.72883 2.15622 1.34251 0.163764 -0.0500457 -0.43901
442 1 8.37807 2.09679 6.24128 -0.201555 0.581842 0.541721
443 1 8.75663 9.03718 7.17782 -0.191166 0.563303 0.528738
444 1 5.21083 3.11601 4.27494 0.69969 -1.03635 0.99653
445 1 4.83618 5.08309 4.82958 0.303909 0.253882 -0.574734
446 1 6.47127 1.37505 2.82726 0.805067 1.2298 -0.407317
447 1 6.96207 6.55411 4.65069 -0.409105 0.328534 -0.366407
448 1 0.904563 2.79074 7.41571 0.602175 1.22686 0.787323
449 1 7.78503 6.4728 4.99114 0.456307 0.510217 1.52057
450 1 0.642547 4.31815 3.57215 0.72269 -1.15639 -1.1053
451 1 4.91378 2.07958 2.71157 0.474868 -0.230997 -0.927984
452 1 2.16113 1.873 7.88998 -0.889016 -1.36477 -0.00417042
453 1 6.5101 5.01301 4.40571 0.482295 -0.536401 0.555238
454 1 6.84429 0.508039 9.15148 0.55566 0.491125 1.01654
455 1 9.22838 7.96237 -0.0142656 0.165348 0.0843364 -0.608193
456 1 4.17445 4.24981 0.521919 -0.484675 -0.0678879 -0.688915
457 1 9.432 6.77993 5.12399 1.03481 -0.365244 0.857625
458 1 2.73943 2.96578 0.262124 -0.552944 0.355254 -0.131422
459 1 3.57468 2.20051 5.46689 0.125642 -0.451872 0.00478572
460 1 4.62375 6.79931 4.88301 0.599541 0.792688 -0.440752
461 1 2.03937 8.99679 1.12719 -0.246556 -0.693479 1.10547
462 1 4.22291 4.54831 7.84704 0.604129 0.234811 0.354871
463 1 8.61777 3.29336 0.717049 -0.490939 0.364258 0.889857
464 1 8.60413 2.73966 4.38413 0.979937 0.507155 0.577879
465 1 2.04541 5.79285 6.76749 -0.267658 1.28005 0.532147
466 1 0.303899 6.52898 1.05219 0.0666627 -0.99951 0.500769
467 1 9.3293 2.73169 7.99046 -0.170884 0.982645 0.529586
468 1 4.09574 9.09468 6.04108 0.760736 0.755002 -0.400254
469 1 4.77252 9.30899 2.25577 0.114556 -0.19157 1.29924
470 1 3.18131 5.76997 0.928283 0.933021 -0.457357 -0.956283
471 1 0.176439 0.446667 6.74337 0.212801 0.459628 -0.292083
472 1 7.43365 5.44276 6.43384 1.15708 -0.0709187 -0.72438
473 1 2.82679 2.64914 5.59199 -0.161646 -0.78664 0.395778
474 1 9.06057 5.63583 6.68039 0.372188 -0.0748529 -0.118194
475 1 3.96407 0.205391 3.70211 1.66978 -0.732728 -0.124806
476 1 3.49358 8.23071 8.75748 -0.415665 -0.261254 -0.473128
477 1 2.21927 5.6646 2.47509 0.144786 -0.165344 -1.64388
478 1 1.62913 2.59158 8.1585 0.433437 0.045527 -0.972871
479 1 8.50413 4.36932 2.32052 0.099331 -0.158268 -0.432821
480 1 1.27325 4.91347 2.77201 -0.35006 0.162111 1.18295
481 1 5.52768 8.14158 1.5894 0.575518 -1.50665 -0.5398
482 1 5.80761 7.68491 8.14831 -0.281069 -0.723112 -0.143928
483 1 2.96277 2.22067 7.58857 -0.408428 0.483078 0.202681
484 1 4.55299 6.44469 9.03485 1.19169 0.771661 -0.0463905
485 1 1.33225 2.57455 3.19595 0.471681 0.647855 0.0368187
486 1 1.39713 7.06335 3.60652 -0.335522 -1.46178 0.154325
487 1 6.50831 2.53882 5.5828 1.34959 0.387527 0.256479
488 1 1.97459 6.65259 2.09342 -2.09832 -0.557519 0.0169273
489 1 6.5748 5.0353 6.5581 -0.221985 0.379451 -0.0833408
490 1 6.23583 8.06314 5.75354 0.753573 -0.13172 -0.692982
491 1 4.08718 6.40671 7.5503 -0.195826 0.627117 -1.02985
492 1 0.956181 3.3202 8.36374 0.20563 0.9301 -0.203969
493 1 3.79221 0.293627 1.63493 1.13397 0.873525 -0.545554
494 1 8.47756 2.66101 8.46596 0.296868 0.449109 0.361868
495 1 6.43519 8.18315 8.8315 -0.779639 -1.97179 -0.089949
496 1 6.51628 7.64212 7.59509 -0.686429 1.191 -0.0914598
497 1 5.8544 5.22745 2.37786 0.709044 -0.845692 0.936363
498 1 7.59121 2.50147 1.31843 -1.88352 0.128557 0.592733
499 1 6.86982 0.127607 6.47505 0.333199 -0.0967409 -0.443366
500 1 0.535845 1.00715 7.26992 0.257132 -0.43051 0.76575
501 1 0.0487701 4.5147 5.78215 -0.0263406 0.69019 -0.629498
502 1 0.45733 7.3969 5.87696 -1.07173 0.851525 -0.499104
503 1 4.76334 7.48938 0.447199 0.0359729 -0.0186508 0.433845
504 1 5.49046 0.0780804 4.23006 1.25822 -1.01643 0.720889
505 1 5.31866 1.16053 8.73353 0.408587 -0.311328 0.710175
506 1 2.04403 1.59666 2.45927 -0.245478 1.96812 0.729181
507 1 8.9864 1.33201 7.08614 0.658139 0.365919 0.0693534
508 1 7.68081 6.1569 7.8754 1.10977 -0.642677 -0.81673
509 1 0.337242 6.2139 8.55455 -0.561314 0.110598 0.137834
510 1 2.97039 5.43646 0.0944676 -0.427374 -2.41008 -0.599658
511 1 7.20024 3.55572 7.36274 -0.72216 -0.961668 -0.947166
512 1 7.35476 7.71555 2.00989 -1.60255 0.716153 0.333626
513 1 6.04179 8.7041 0.990724 0.497346 -0.479446 0.373757
514 1 0.443134 3.70742 4.23408 -0.353257 0.760102 0.0857988
515 1 0.382027 3.99225 8.33821 0.315277 -0.662697 0.0496877
516 1 4.33439 4.8332 6.4699 -0.378423 0.00966784 1.17012