ITEM: TIMESTEP
117000000
ITEM: NUMBER OF ATOMS
1000
ITEM: BOX BOUNDS pp pp pp
0.0000000000000000e+00 9.4000000000000004e+00
0.0000000000000000e+00 9.4000000000000004e+00
0.0000000000000000e+00 9.4000000000000004e+00
ITEM: ATOMS id type x y z vx vy vz
1 1 8.08453 4.79004 3.11595 -0.250235 1.52842 -0.211367
2 1 6.76299 6.72995 9.22945 -0.25445 0.89406 -0.276489
3 1 7.34354 3.52258 2.05539 1.4826 -0.695838 0.817706
4 1 0.825959 7.0548 2.23939 -0.778773 1.02388 -0.150946
5 1 2.6242 5.88936 5.31727 0.613395 0.208756 -0.908104
6 1 7.87689 0.433092 2.85968 1.3221 0.371899 1.21734
7 1 0.341575 3.74871 4.54929 1.00223 1.1839 -0.621489
8 1 8.96526 5.36182 0.372554 0.457086 0.849942 0.336422
9 1 7.07071 8.4677 8.69046 0.840633 0.0175249 0.103295
10 1 3.30653 3.25023 7.42055 -0.635412 1.01514 -0.495653
11 1 1.79199 7.61275 3.37233 -0.610305 0.407377 -0.731518
12 1 8.07983 9.39791 6.36982 -0.517813 0.593899 -0.0378257
13 1 3.94097 0.800622 8.90029 -0.660341 1.92145 -1.2908
14 1 3.96135 1.91904 1.02099 -0.942837 -0.854483 1.49975
15 1 4.41661 4.2892 4.33528 -0.680785 -0.234564 0.886819
16 1 2.31959 9.27992 1.1275 1.26593 0.600607 0.248092
17 1 4.98362 4.44175 8.32153 0.100073 -1.59203 -0.448024
18 1 2.62667 8.70963 8.94724 -1.42375 -1.05816 0.191924
19 1 0.116535 5.44251 2.73739 -0.439445 0.897166 -0.937694
20 1 4.37115 1.95818 4.79803 -0.258474 0.820172 -0.216886
21 1 3.91923 8.62396 5.24182 1.03789 -0.438917 -0.129683
22 1 4.77422 4.93376 7.52598 -1.0764 0.353005 -1.02596
23 1 8.49342 8.30418 5.07593 -1.08688 1.13587 0.599805
24 1 4.14515 8.53782 2.65782 -0.29161 -0.125348 0.663244
25 1 0.183975 7.73197 3.26741 -1.51295 0.71613 0.258682
26 1 8.24606 1.85563 5.89249 -1.90045 -1.233 -0.261459
27 1 5.53783 3.06066 4.84943 -0.425614 0.114719 1.03389
28 1 7.67834 2.6363 6.30242 -0.143705 -0.382876 1.57415
29 1 8.47876 0.132226 7.13549 -0.83304 0.0610626 0.182622
30 1 1.38229 4.32573 7.62771 0.461393 0.320741 0.584565
31 1 7.26606 5.25802 7.09881 -1.24679 -0.0256635 0.539866
32 1 5.52084 4.84126 8.95479 0.389603 0.221322 -0.816587
33 1 8.74532 9.2282 0.0374566 -1.20639 0.931868 0.184934
34 1 3.95201 6.52688 3.31338 -1.43217 -0.136961 1.45527
35 1 2.41373 4.0912 7.24715 -0.147941 0.270726 0.79302
36 1 4.56145 0.689712 8.16113 -0.227634 -0.239758 0.420562
37 1 3.06687 2.04111 2.57804 -0.830258 0.553014 -0.311632
38 1 3.02966 3.71021 6.70198 -1.15948 -0.362862 0.779566
39 1 3.15414 1.23331 5.88897 0.311941 -0.777054 0.147139
40 1 4.75659 0.669034 5.05336 -0.809071 1.19493 -0.396426
41 1 8.56161 6.75267 6.74708 0.172593 0.16419 0.681383
42 1 8.69514 0.142605 5.62841 -0.364086 -0.0943328 -0.084441
43 1 0.577553 0.437653 2.81212 -0.00766912 0.687116 0.393859
44 1 1.45537 0.477027 9.23831 -0.678395 0.930614 -0.239911
45 1 3.98606 3.56911 6.36549 1.17826 0.375815 -0.295504
46 1 0.329378 5.40362 5.92845 0.412195 -0.572331 0.609851
47 1 4.49561 2.34077 0.25495 0.0814132 0.480949 -0.481148
48 1 4.28196 1.09532 1.34223 0.436112 -0.483316 0.306904
49 1 3.60993 6.43599 6.82262 -0.249867 -0.175678 -0.759232
50 1 7.79912 1.33145 8.69167 -0.383849 -0.0924043 -0.0570808
51 1 1.38591 6.86093 3.18409 1.0408 0.916187 1.02026
52 1 3.07488 1.30834 7.08673 0.240335 -1.20924 0.180684
53 1 7.22026 2.75717 0.483021 -0.0608195 -0.349974 -0.580907
54 1 5.98648 1.19804 6.22745 -0.118595 -0.493811 1.64419
55 1 5.09487 7.48699 1.56017 -0.0558267 0.0405099 -0.753035
56 1 1.69191 0.479734 5.38736 0.176256 -0.854336 0.567163
57 1 1.51303 7.55795 4.54186 -1.64571 0.35003 0.353544
58 1 1.71159 8.26988 9.06819 0.0357514 0.452973 0.381083
59 1 0.261152 1.17926 2.31315 0.974215 0.0228025 -1.47512
60 1 8.80313 6.38742 4.07719 -0.91061 -0.541708 1.10197
61 1 1.73497 1.82838 8.10572 -0.263687 -0.0153901 -0.285579
62 1 8.15545 6.24193 0.555636 -0.631177 0.790702 0.466778
63 1 7.2164 0.0398885 8.18332 -0.51767 0.812119 0.391875
64 1 2.1571 0.855998 4.54379 0.155881 -0.433171 -0.287794
65 1 0.734153 7.80069 5.05621 3.40107 0.857456 -0.396651
66 1 5.55579 1.87304 2.59058 0.0351387 -0.341132 1.37555
67 1 0.831933 2.33457 0.0336999 -0.453562 -0.0307007 0.232922
68 1 4.18264 2.54025 6.60718 -0.200061 -1.34835 -0.277022
69 1 2.79458 6.73572 8.3715 0.132586 -0.58181 0.39475
70 1 2.86364 8.76132 5.94065 1.00687 0.10718 -1.03037
71 1 8.65799 4.73241 2.4073 -0.089367 -0.575855 -0.362081
72 1 6.57857 2.36302 5.11638 1.39079 -0.964443 0.43889
73 1 8.43476 5.42393 1.12786 0.0545651 1.81853 0.439632
74 1 2.24963 3.46966 1.39574 0.817448 0.12044 -0.0876956
75 1 2.52453 1.96154 0.230839 -0.63526 -0.0362044 -0.619189
76 1 1.66921 3.22791 2.34284 -0.32813 -0.119338 0.856869
77 1 5.12917 9.29695 0.034596 -1.38269 0.175616 -0.184701
78 1 6.37021 7.5049 3.74565 -0.379409 0.0606706 -1.45255
79 1 6.04795 9.42861 7.50155 0.0954258 1.57416 1.45124
80 1 4.42021 6.58406 8.41081 0.0362825 0.19139 0.0877563
81 1 6.06788 2.6275 5.84666 -0.328448 -0.709005 2.31202
82 1 7.88425 3.04742 9.18175 -1.32126 0.47344 -0.205957
83 1 3.99687 9.2768 7.87556 1.13085 -0.805094 -1.08547
84 1 4.61647 3.85649 5.83047 0.36278 2.36388 2.20101
85 1 0.824133 0.0495514 8.53083 -0.347979 0.755288 0.36067
86 1 6.48117 3.20808 5.20069 0.99253 1.04997 0.291241
87 1 0.23281 6.73831 7.93117 0.140933 -0.0650766 -0.894675
88 1 -0.0111003 8.25749 4.13558 -1.64836 0.325732 1.1166
89 1 7.8409 -0.00210221 0.432884 0.167742 -0.65578 -0.155826
90 1 4.99321 7.98706 6.61833 -0.336606 -1.7657 0.0761616
91 1 2.40415 0.689405 9.1628 -0.191431 0.765829 0.842353
92 1 8.57663 4.70112 4.83819 -0.71945 0.502932 -0.24111
93 1 1.45067 6.31121 1.63507 -0.451768 -0.28998 -0.247087
94 1 7.72048 5.51967 8.84882 -0.0614803 0.569399 0.138395
95 1 8.33073 3.8678 0.594267 0.108143 -0.377188 -0.692543
96 1 6.97639 5.0193 2.74474 -1.74821 -0.435905 -0.803673
97 1 1.85389 7.22626 6.15635 0.25733 1.7201 -1.24056
98 1 6.64131 3.74794 7.46789 -1.70649 -0.660322 -0.39824
99 1 2.59775 3.74876 8.19408 0.17434 1.16318 1.33444
100 1 0.404609 3.30876 3.65289 0.39869 -0.855408 0.586644
101 1 7.88406 3.88443 8.70264 1.27927 1.03989 -1.73486
102 1 1.01216 2.80204 4.11804 -0.00137334 1.28599 -0.888302
103 1 7.86488 5.29861 0.398531 -0.353664 -1.16899 0.298288
104 1 7.10789 3.28874 8.46252 0.23965 -0.967691 0.19538
105 1 7.9838 2.53449 3.75891 0.879937 0.442263 0.737544
106 1 2.68936 4.80229 6.52019 -1.49473 -1.86247 1.10191
107 1 9.08495 2.88412 7.94947 -0.196558 0.858162 1.16085
108 1 5.88533 8.36754 4.59853 -0.164163 0.961104 0.166724
109 1 1.25185 0.365288 4.02825 0.205634 0.739547 -0.0914937
110 1 8.03538 4.05499 6.58647 1.06293 1.43603 0.50296
111 1 7.07634 9.22505 7.31312 -0.780933 -1.33407 -0.059982
112 1 5.35038 0.683046 7.57841 0.261432 -0.658185 -0.00544119
113 1 6.5084 6.03855 2.91413 -1.07046 -0.565877 -0.0950971
114 1 6.04115 1.22234 0.0592159 -0.975685 -0.753031 -0.822755
115 1 5.01001 4.36815 1.63251 -1.56535 0.46964 -1.6954
116 1 6.87799 6.57751 6.08206 0.116648 -0.153951 0.0403905
117 1 3.7016 9.36931 3.65118 0.559586 -0.522371 0.268281
118 1 6.00443 4.83185 3.41489 0.93079 1.61227 -0.738413
119 1 3.37369 0.42743 7.25184 0.616746 0.385833 0.322728
120 1 3.71988 7.29514 0.682656 1.31976 -0.665882 -0.0588782
121 1 6.72699 2.94704 6.31879 0.396745 0.161331 0.509829
122 1 8.8764 5.75985 6.35058 -1.37546 1.18619 0.384638
123 1 5.75479 8.93973 2.13629 0.0380384 1.05877 -0.0646052
124 1 8.85574 1.95813 8.57823 -0.709571 -0.708044 0.621327
125 1 7.24115 2.69954 2.62401 0.0240145 0.0189811 -0.744703
126 1 8.74901 1.70653 0.768682 0.0276608 0.0930104 0.661196
127 1 1.94237 7.9322 8.05233 -0.647117 1.05091 0.33542
128 1 6.35239 0.276554 8.4533 -0.739085 -0.86261 0.877186
129 1 1.00912 5.18236 7.37991 -0.607216 -0.191995 -0.804268
130 1 9.29941 6.87623 4.75283 -0.79525 0.263606 0.016765
131 1 5.29595 8.66729 3.49879 -0.218222 -0.577249 -0.489896
132 1 1.94159 4.33518 1.11941 0.952015 -0.031174 -0.654156
133 1 7.74281 5.45347 3.95965 -0.289249 -0.500785 0.725838
134 1 1.44661 8.83106 7.79027 -0.502812 -1.27897 -0.378151
135 1 9.31457 8.71218 1.53996 0.460616 0.929858 1.67056
136 1 2.64843 4.98653 1.65262 0.0969465 -1.80264 0.494332
137 1 4.09541 6.45147 0.934963 -0.898705 1.7105 -0.49114
138 1 8.63857 6.4787 2.18063 -0.659339 -0.402112 -1.18396
139 1 5.35612 3.04902 8.36163 -0.22776 -0.198936 -0.0087687
140 1 0.246388 8.93535 2.44629 0.579949 0.760878 -0.368552
141 1 7.21853 0.801902 4.2221 -0.604204 -0.235367 -0.17284
142 1 3.76724 2.64203 4.45975 0.244906 -0.963613 -1.48921
143 1 1.17353 7.6411 1.54798 -0.0383172 0.728773 0.295365
144 1 8.78943 0.525579 3.95622 0.371758 0.70767 0.629871
145 1 8.08492 8.9975 5.40196 -0.405116 -0.589055 -0.515458
146 1 0.771161 5.32576 0.407113 1.5792 -0.0381582 0.716807
147 1 3.83005 3.13991 0.916913 0.562539 0.515869 0.10111
148 1 3.15132 2.05681 6.35239 0.151439 -0.163974 -0.474817
149 1 5.17359 5.26762 5.25742 0.528519 -1.48192 1.39771
150 1 9.04521 2.21054 6.45281 1.1756 0.900332 1.13494
151 1 0.276886 1.53136 4.71046 0.14131 0.813206 0.862494
152 1 7.24831 7.51888 8.71699 1.51765 0.236199 -1.16389
153 1 5.0034 2.73599 3.35463 0.391249 1.24904 0.186095
154 1 2.49173 1.56695 1.99979 -0.186895 -0.338998 -0.687191
155 1 6.01209 0.0703513 3.94961 0.297229 -1.06787 0.270425
156 1 4.98251 3.27328 6.55873 0.269109 0.311174 -0.847142
157 1 3.7098 6.86767 4.40459 -0.168229 -0.762592 -0.0587811
158 1 3.9323 0.313815 5.39985 -0.146277 0.949263 0.146614
159 1 3.92851 7.71852 4.77116 -0.168128 -0.472103 -1.49585
160 1 0.933001 8.60617 1.74116 -0.0625664 -1.17471 -0.0617719
161 1 1.11338 7.94457 0.561269 0.192384 -1.02805 0.294776
162 1 4.61906 0.120803 3.96275 -0.183964 -0.796943 -1.5003
163 1 2.15404 1.57993 1.02191 0.166493 0.167241 1.37635
164 1 4.98265 5.94314 7.72452 0.010233 1.50324 -1.28345
165 1 0.0371993 3.83081 6.53455 0.622306 1.21535 -0.987698
166 1 4.64715 7.53401 8.46309 0.832303 0.803172 0.638745
167 1 5.55302 3.13293 3.95745 -0.0717254 0.0202825 1.67691
168 1 3.08015 1.61054 7.918 1.26016 -0.10233 -1.17413
169 1 7.57322 1.57272 6.40389 -0.866953 -1.26428 1.11462
170 1 4.02527 1.77214 7.99405 -0.738472 -0.0211778 -0.004163
171 1 4.77206 5.33675 9.0859 0.268479 -0.810701 -0.91021
172 1 9.39762 7.09206 6.73493 0.865548 -0.978101 -0.202103
173 1 0.414684 6.11026 4.49654 1.4114 -0.817039 -0.757315
174 1 2.91246 7.59208 0.993415 0.317844 -1.38354 -0.945301
175 1 6.96166 1.25231 5.93716 0.606948 -0.080812 0.819685
176 1 8.32636 1.45938 8.06972 -0.468244 -0.17691 0.593037
177 1 7.68109 7.31726 5.37861 -0.8321 -1.2372 -0.0360871
178 1 5.77842 4.769 7.85424 -0.216248 0.219552 -0.857196
179 1 5.09822 5.07574 3.66145 -0.608899 -0.249319 0.474227
180 1 0.780098 5.93606 5.33758 1.13468 -0.121302 -1.62931
181 1 4.05479 7.34537 9.22302 -1.15238 1.51567 0.224815
182 1 9.02452 3.96268 5.53614 0.977644 2.18969 -0.114946
183 1 4.53702 4.74973 0.960233 -0.303596 -0.643965 -1.34729
184 1 2.58538 7.2804 7.55476 -0.611621 0.604031 0.476679
185 1 5.89415 4.59129 0.41047 0.558391 -0.160575 -1.45605
186 1 6.09568 6.26136 7.28396 -0.0929115 -0.0457932 -0.106744
187 1 6.16199 3.95752 3.27604 0.829425 0.494958 -0.564846
188 1 2.47434 0.648133 6.88671 0.797701 0.785837 0.226828
189 1 3.36169 5.51323 8.80391 -0.705748 -1.006 -0.282487
190 1 8.08281 6.7336 3.67973 0.388669 -0.330163 -0.994018
191 1 7.85541 6.84447 4.49819 -0.760131 -0.443174 -0.58304
192 1 9.18396 1.571 1.55928 -0.161718 0.395372 -0.655926
193 1 4.73209 6.50879 1.58055 -0.189235 -0.369431 1.1734
194 1 8.76529 1.35902 4.81548 0.232009 -0.593698 -0.657148
195 1 6.26129 7.44611 5.81427 -0.398696 -1.10414 0.398572
196 1 7.40259 3.73669 0.430066 0.651804 1.41299 0.374714
197 1 6.3214 4.81174 6.09259 -1.50092 -0.229617 -0.336498
198 1 7.20065 7.34162 0.265716 0.251399 1.35418 0.211481
199 1 5.73751 7.5802 7.69061 0.136988 0.118042 0.542626
200 1 2.03348 7.61772 0.922763 1.72551 1.04347 0.23864
201 1 5.6221 4.09639 6.06565 -0.419364 0.765149 -0.907882
202 1 0.19995 1.2657 7.29057 0.297867 0.952504 -0.755438
203 1 9.10112 7.91642 7.00529 -0.7631 -1.08318 -0.90975
204 1 6.73381 8.85485 2.35819 0.180491 -1.04589 -0.0556652
205 1 2.62266 5.66887 4.16588 -0.53401 0.602534 0.112312
206 1 2.39244 5.87422 0.893011 -1.30953 -0.174121 -1.08046
207 1 7.31795 7.23651 1.5217 -0.131164 -0.631168 -0.648918
208 1 0.861962 7.19771 6.571 -0.238105 0.985552 -0.239992
209 1 7.44656 7.08577 6.83225 1.38455 0.199879 1.14663
210 1 2.78898 4.21196 5.80717 0.917007 -0.523556 0.210106
211 1 1.96241 0.0397204 7.16255 -0.299646 0.837154 -0.294609
212 1 6.2611 1.69651 5.53905 0.12253 0.732878 -0.347456
213 1 7.82671 7.58186 3.76656 0.0407626 0.0420118 0.73017
214 1 1.41927 4.82838 9.11728 -0.0631365 -0.702663 -1.47852
215 1 1.99086 3.23629 8.7505 1.35193 -0.0275529 0.889719
216 1 0.857871 8.73056 0.796777 -0.42935 0.174315 -0.0955257
217 1 6.87297 5.13822 8.01563 0.753644 -0.684118 0.858906
218 1 4.50495 0.926 7.33589 0.611387 1.06241 0.768965
219 1 7.34791 0.401233 6.30993 0.764662 -1.12868 1.44477
220 1 5.92014 0.463813 2.20487 -0.474298 0.931755 -0.2278
221 1 6.24323 2.22275 0.169799 0.771736 0.315621 -0.470784
222 1 5.63891 4.1394 6.96673 0.363221 -0.289919 -0.1994
223 1 1.99255 2.07091 3.78423 0.629794 0.151513 -0.10227
224 1 7.54606 5.72572 7.91724 0.735834 1.52032 1.01452
225 1 8.4959 9.26314 1.97783 -0.821692 0.798076 0.53329
226 1 2.09252 7.68236 1.85111 -0.81589 -0.842278 -0.780259
227 1 8.00039 9.01685 1.31168 -0.597083 -0.616148 -0.899741
228 1 3.7277 3.76485 3.50422 -0.096643 -0.979241 -1.44113
229 1 3.42762 8.56839 3.42183 1.3153 -0.236842 -0.525403
230 1 3.07288 5.32334 0.323239 -0.825858 -0.177215 0.370789
231 1 5.99392 1.14749 7.22813 1.31507 0.47302 -0.330227
232 1 4.93067 8.25391 5.00246 1.27627 -0.93036 1.12129
233 1 1.8437 8.5424 0.91258 0.496138 -0.215003 -0.052186
234 1 8.37041 6.32422 5.14015 0.0485323 0.0296819 0.372188
235 1 2.76281 9.19259 2.14317 -0.302369 0.639466 0.651994
236 1 2.85464 4.30818 2.26379 0.247892 0.36937 0.322917
237 1 3.4534 8.02151 5.72723 0.755561 0.501136 -1.04737
238 1 5.76141 7.91004 8.57406 -0.744835 -0.114507 -0.0566408
239 1 7.1112 8.15401 3.105 -1.309 -0.953027 0.775239
240 1 1.53567 1.59681 1.89139 1.62564 0.0262366 0.462977
241 1 6.38981 8.63321 5.5875 0.932808 -0.00266853 0.254716
242 1 5.20733 0.174197 1.6386 -1.09926 -0.191919 0.306288
243 1 9.22736 4.61964 8.65253 0.670199 -0.7292 0.264572
244 1 1.40554 0.0268872 1.08507 -0.548095 -0.156473 -0.386605
245 1 3.96101 3.92513 9.02042 -0.686222 1.2752 1.19956
246 1 0.829948 8.65158 5.47636 -0.680995 0.0301433 -0.168242
247 1 6.9092 4.02958 5.88381 0.0766399 -2.14594 -0.310033
248 1 5.70667 5.85165 3.92305 0.666211 0.336134 -0.160736
249 1 1.87242 6.10178 8.62557 0.697622 -1.06963 -0.133715
250 1 4.15209 4.16873 7.82475 0.757942 -0.716196 0.466801
251 1 7.16683 6.2959 5.11608 -0.218995 -0.0751823 -0.319481
252 1 2.68429 6.39828 7.32205 1.35132 -0.0257003 0.621564
253 1 7.78473 3.47281 4.22935 -1.07492 0.561935 -1.11745
254 1 5.24968 2.59279 9.14867 0.324608 0.766151 0.722756
255 1 7.14389 4.41611 6.8072 -0.1661 0.911508 -0.759454
256 1 4.99295 1.41103 6.61032 -1.53908 0.999406 -0.190017
257 1 3.60419 3.06069 9.30257 1.97552 1.29102 -1.15519
258 1 8.84316 4.49902 1.33573 0.364808 0.377984 -1.33307
259 1 1.5263 7.40227 7.2838 0.34603 0.35824 -0.979516
260 1 0.313803 1.39933 6.328 1.51121 0.136313 0.336575
261 1 5.35055 9.30477 5.36189 -0.474493 -0.661643 1.10679
262 1 6.00913 1.91578 6.83158 -0.138399 -0.785911 -0.265714
263 1 0.525428 1.8808 3.85008 -0.547319 0.607259 0.297965
264 1 1.76219 5.088 0.540655 0.193828 -0.232436 -0.137823
265 1 2.28707 9.31593 3.57083 0.716559 -0.580677 -0.118946
266 1 0.0109427 6.89905 0.818195 0.334465 -1.11866 -0.791572
267 1 3.12657 5.16352 3.46493 -0.826713 -0.696441 -0.290323
268 1 9.05551 0.747037 6.65301 -0.0111394 -0.596951 -0.409069
269 1 5.28819 2.45233 6.8036 0.331499 -0.95953 -0.558985
270 1 7.5744 4.20312 2.69218 0.677213 -1.20369 -0.406005
271 1 7.70069 8.63091 9.2258 0.921585 0.554591 0.999005
272 1 4.36052 4.30358 6.76065 -0.652556 0.0997879 0.877722
273 1 1.34813 6.96993 0.928524 1.08596 -0.0706116 0.977019
274 1 6.34619 9.30386 0.433091 0.0970424 0.0351177 1.3588
275 1 1.13344 4.62085 2.08333 -0.223025 -0.338375 0.105907
276 1 8.64767 8.08851 3.25213 -0.208058 1.09816 -0.951298
277 1 9.06663 5.32533 1.81347 0.657239 -1.18864 -0.873314
278 1 0.268013 1.45557 0.638443 0.936673 1.20337 0.0960533
279 1 6.73532 5.34848 9.18387 0.431673 0.282971 0.206814
280 1 1.65359 0.546596 3.23762 0.127008 -0.684957 -0.190469
281 1 9.26015 1.49806 9.20528 0.30592 -0.158145 1.5694
282 1 2.62324 4.78204 4.12749 0.432851 -0.39009 -0.777035
283 1 6.40349 8.06191 7.16617 -1.34498 -1.48009 -0.682728
284 1 3.97736 2.19711 5.73648 0.776453 0.937416 -0.27002
285 1 7.70421 1.193 5.13228 -0.535211 -1.01109 -0.0962867
286 1 1.12949 4.51342 0.683063 0.276452 0.22316 0.623493
287 1 8.94259 7.70249 1.1581 0.439398 0.23726 -0.35632
288 1 1.33008 0.397614 7.92578 -0.428692 -0.371881 0.576151
289 1 3.36979 8.94851 1.10254 1.21057 -0.443608 0.678017
290 1 4.83246 4.27882 3.45333 1.18769 -0.916592 -0.019044
291 1 0.259811 0.534555 7.94485 -1.02282 1.74442 0.12405
292 1 7.91998 8.5676 3.68511 -1.26952 0.408807 -1.13153
293 1 7.34896 7.39354 2.51758 -0.235498 0.714581 -0.956125
294 1 8.70258 3.01621 8.7981 1.66292 0.947567 -1.03776
295 1 5.9023 4.43928 1.29459 -0.122729 0.88493 -1.60918
296 1 4.74102 7.84702 2.81607 0.186545 -0.677673 1.03485
297 1 1.07999 3.492 3.05043 -1.02515 -1.01429 0.0309803
298 1 3.90009 4.27706 1.43457 0.622861 0.69545 -0.537354
299 1 8.92774 4.76424 7.69449 -0.211512 1.00704 0.958099
300 1 2.38316 1.64243 6.36521 -0.721802 -0.242264 0.154578
301 1 7.82005 0.571436 7.69919 0.0500007 -1.29697 -1.38894
302 1 8.47209 8.37376 1.72524 -0.515267 0.313662 0.239597
303 1 6.14496 4.01748 5.15129 -0.334494 -0.434439 0.176257
304 1 6.39714 4.85965 6.98471 -1.70838 -0.386396 -0.0121536
305 1 3.23241 9.28618 5.27504 -0.170321 0.572311 -0.0888226
306 1 4.51446 8.19113 1.90142 0.496403 -0.542575 -0.361142
307 1 2.68388 1.54646 4.16747 0.318406 -0.663456 1.167
308 1 4.60281 3.23859 0.161626 0.1135 -0.356073 0.657078
309 1 1.10831 7.82479 5.98721 1.02941 -0.422692 1.0125
310 1 6.8822 4.40436 1.67236 -0.792749 0.495455 -0.737355
311 1 4.94866 1.095 3.59587 -0.453167 0.607797 0.0709989
312 1 5.68831 7.34645 6.67297 -0.603172 -0.276191 -1.20803
313 1 4.98711 1.55304 4.35167 -0.000234721 0.770119 0.138196
314 1 0.509411 8.70913 3.4889 0.162719 0.608318 -1.04886
315 1 3.33855 2.8457 6.70779 -0.420991 0.709793 0.166675
316 1 9.02703 0.292819 2.68864 -0.291645 0.446834 -1.54419
317 1 7.7369 4.67111 4.45065 0.538827 0.957355 -1.00637
318 1 3.31789 1.78764 3.36274 -0.248711 0.470104 0.770505
319 1 8.54483 5.67055 2.59242 0.293339 -0.599038 -1.0557
320 1 1.69426 4.10053 6.62368 -1.01482 -1.5256 -1.02589
321 1 7.697 6.24235 7.18764 0.264479 1.33394 0.653244
322 1 5.69201 0.823421 5.43951 -0.374666 -0.273499 -0.752345
323 1 4.67621 9.4099 5.93694 0.48908 0.246109 -0.838317
324 1 0.782788 2.85645 5.37123 1.29561 -0.96721 0.614136
325 1 4.5514 0.768091 6.08764 0.399825 0.115896 0.0539453
326 1 6.21643 3.00549 3.4194 -0.884788 -0.330848 -0.921727
327 1 4.19081 4.74857 8.63393 -0.393212 -0.41556 -0.216855
328 1 3.46936 0.93413 0.631411 0.347165 -0.422033 -0.755143
329 1 1.65629 1.21285 3.93284 0.0692519 0.118743 0.530302
330 1 4.89961 2.58848 5.88735 0.577093 -1.89229 -0.658614
331 1 2.31009 5.2311 9.13827 0.829499 0.279425 -0.445358
332 1 0.813012 8.80863 4.36558 0.270264 -1.06487 -0.75175
333 1 0.167346 0.064223 6.10747 -0.47244 -0.437729 0.976085
334 1 3.04973 3.84959 1.48128 0.698629 -1.19573 0.84984
335 1 7.95656 5.79084 1.88324 0.595262 0.401881 0.41888
336 1 9.38917 3.68865 8.39061 0.176964 0.122663 0.058168
337 1 7.35667 3.4677 6.78939 0.876698 -0.689587 0.237617
338 1 1.57997 9.04742 6.27668 0.0997728 0.91403 1.17286
339 1 0.0453218 3.95155 7.53262 -0.281257 -0.19078 -1.23289
340 1 0.941202 8.2001 8.50146 1.08286 -0.267712 -0.651344
341 1 1.15767 5.96691 6.83791 -0.46984 -0.199848 0.124113
342 1 5.82534 1.38173 4.39693 -0.922896 0.415938 0.976278
343 1 6.12768 5.60492 5.50878 0.522638 -0.293215 -1.20475
344 1 4.74047 1.61276 5.63478 -1.25241 0.424578 0.639597
345 1 6.46768 3.93426 6.599 0.176813 0.951899 0.296751
346 1 6.97143 0.647312 2.19678 -0.947339 -1.97152 0.167257
347 1 3.52365 8.82195 7.23635 0.286771 0.724312 1.02009
348 1 1.69402 8.06227 5.21374 0.280532 0.683055 -0.0466419
349 1 7.37967 1.42218 7.95295 1.32289 -0.654317 1.55539
350 1 6.2496 1.44708 1.77728 -0.272262 -0.501489 1.79602
351 1 1.88934 6.29742 4.7413 -1.54726 -0.32963 -0.617045
352 1 5.60708 2.18504 1.75747 0.904861 0.636108 1.02804
353 1 9.24857 2.51244 0.107068 -0.758875 0.751022 -0.154794
354 1 0.722636 2.85986 0.957317 0.427542 -0.745099 -0.813131
355 1 5.90352 2.27214 8.58647 -0.903334 0.772279 -1.28454
356 1 3.90086 0.383169 4.46273 -0.745036 -0.0883018 -0.218544
357 1 3.89793 4.68597 3.66639 0.763742 -0.299938 0.395994
358 1 7.06994 4.45933 3.62052 -0.917735 0.28012 -1.10589
359 1 3.10465 2.96413 2.41155 -0.248982 1.47982 0.386566
360 1 3.04408 1.09385 4.89181 0.860465 1.11109 0.839566
361 1 4.81593 4.40814 9.33386 0.361041 -1.33753 -0.364478
362 1 4.02281 8.20574 6.66564 -1.17414 -0.253155 -0.686053
363 1 6.3663 6.46742 0.617358 0.0560586 0.508047 0.582237
364 1 3.46107 6.47601 9.00161 1.23917 -0.530086 -0.104942
365 1 1.80881 0.904234 6.31702 0.837789 0.890689 0.467936
366 1 8.18211 2.22127 9.18529 -0.603151 -1.29072 0.988106
367 1 7.10697 9.17096 3.13262 -0.0633358 0.238024 0.255434
368 1 7.91704 6.38435 2.68393 -0.605338 0.449143 -0.2176
369 1 5.64049 5.75507 3.04387 0.219758 1.04162 -0.410093
370 1 2.34212 6.76546 1.17962 -0.565705 0.421951 -1.28072
371 1 8.2825 8.60815 6.86275 0.259915 -0.344335 -0.292943
372 1 2.5102 7.2641 6.67403 0.130803 -0.605688 0.877394
373 1 5.20055 0.359559 6.71652 -0.759677 -1.10516 -0.144167
374 1 0.414782 4.19977 1.43163 0.518061 0.0265213 0.207611
375 1 8.21973 1.24119 1.38177 0.0609771 -1.25431 0.738074
376 1 1.18151 4.80116 4.88046 -1.30193 0.950854 0.455074
377 1 2.93113 9.22106 6.78585 -0.787563 -2.11573 0.525201
378 1 6.32761 6.52388 3.82787 0.392321 -0.833097 0.169102
379 1 7.77324 0.399686 1.70412 0.915735 0.130417 0.927584
380 1 7.0149 2.19804 8.46143 -0.149019 -1.09416 -0.0395349
381 1 1.23318 8.06127 3.82685 0.425044 -1.18641 0.0875938
382 1 5.70634 3.46919 1.38092 0.866552 -1.16959 0.0660818
383 1 2.426 3.31757 0.408806 -0.0411185 0.544603 0.25904
384 1 8.4516 2.76396 0.464039 0.512912 1.76988 0.0931624
385 1 3.95464 2.20084 2.37198 -0.37685 0.063111 -0.548249
386 1 2.54478 7.34653 2.54888 -0.321153 -0.503637 -0.592863
387 1 6.70243 1.82438 0.956109 -1.02668 -1.36051 0.174038
388 1 4.85363 3.82409 7.36371 -0.30667 -0.582106 0.204902
389 1 7.94138 0.525903 3.80692 -0.556932 -0.384169 -0.146242
390 1 4.40641 6.66415 7.51817 -1.55924 0.566475 -0.641169
391 1 8.41103 1.60668 6.77511 0.532911 0.616557 -1.61535
392 1 2.86362 8.07473 8.07838 0.726739 -0.32241 0.320687
393 1 4.39724 6.57612 0.058182 -0.873636 0.225714 1.04613
394 1 2.48451 2.91724 6.41596 0.953656 -0.533701 0.316927
395 1 2.82065 2.9165 8.85914 1.1856 -0.0716879 -0.127045
396 1 6.40817 4.70182 4.14312 -0.921972 -0.662511 0.836457
397 1 2.74712 2.1377 7.21547 -0.459952 -0.559062 -0.497822
398 1 8.11977 1.44481 3.94498 -0.756136 -0.703022 1.43665
399 1 0.781351 3.61166 7.06003 -0.0849466 0.400593 0.201123
400 1 4.10091 5.85038 8.9764 1.13657 0.132817 -0.665639
401 1 6.61132 7.56794 1.19628 -0.768707 -0.00951062 -0.313985
402 1 7.48586 8.29543 5.75337 1.11733 0.472197 -0.0383364
403 1 4.54487 7.55455 7.5349 0.869583 -0.00115677 -0.64731
404 1 6.07575 8.61174 6.56949 0.553992 -0.317627 -0.560173
405 1 5.68182 5.17932 4.54338 -1.0273 -0.280214 0.804671
406 1 3.02571 7.38815 5.14241 -0.668412 0.923425 0.234354
407 1 5.08361 1.64057 8.43715 -1.00355 0.93943 0.177633
408 1 3.97067 6.92373 5.36645 -1.12968 -0.0879792 -1.0622
409 1 7.63644 3.74421 7.72201 0.0451726 1.04522 0.144086
410 1 0.753724 3.19353 9.33552 -0.0360579 -0.372843 1.51532
411 1 6.01258 8.24945 2.80641 0.341127 0.834502 2.21171
412 1 0.939708 5.60846 2.11731 0.209368 1.13757 -0.386666
413 1 0.0730689 6.10407 2.15837 0.417056 1.18266 -0.0272454
414 1 2.44059 0.657941 7.80477 -0.691384 0.166563 0.404627
415 1 5.26148 8.90285 6.72859 -1.46605 -0.0948188 0.0704238
416 1 9.20043 3.33513 2.97542 0.076457 -0.0962364 0.276404
417 1 3.27814 5.50408 1.2572 0.907441 0.235751 0.428837
418 1 5.01537 3.45348 2.1074 0.465616 0.547426 1.85402
419 1 7.9014 1.90927 7.5249 -0.0919286 0.0663864 -0.509735
420 1 6.7748 0.820618 7.74944 -0.324104 -1.22976 -0.19512
421 1 6.50517 7.12733 6.86248 -0.560845 0.347951 -0.0355943
422 1 3.7745 0.848489 7.91181 0.873455 0.0166703 -1.11839
423 1 1.85951 8.38839 3.0602 0.535589 0.668556 -0.541176
424 1 9.08468 3.87344 3.59582 -0.889904 0.375517 0.233197
425 1 8.93797 9.34545 8.14921 -0.141637 1.39291 -0.641958
426 1 1.26161 5.15466 6.35854 -0.597036 0.825355 -1.01577
427 1 0.422723 2.20756 8.48257 0.33735 0.674766 0.923228
428 1 4.36251 8.81822 0.763324 0.854338 -0.636754 0.252344
429 1 8.65191 3.70914 7.14347 0.436589 0.650142 0.983164
430 1 3.86487 3.40462 2.0188 0.268781 0.0718508 1.17632
431 1 4.60132 7.82727 0.944046 -1.22643 -1.31551 0.323814
432 1 1.71059 6.42841 0.306201 -0.517206 -0.735448 -0.834568
433 1 5.97206 7.2442 9.156 -0.414051 -0.82333 0.417946
434 1 6.19119 0.110532 1.43298 0.110595 0.0915835 0.083887
435 1 7.31125 4.69898 9.07825 0.754041 1.16208 0.0529983
436 1 2.13906 6.99507 5.29106 0.203069 0.857106 -1.09214
437 1 7.97431 5.68278 4.75297 0.648786 1.55182 -0.0475315
438 1 3.75853 0.36749 1.21212 -1.14786 -1.2585 0.681675
439 1 9.0309 6.83423 9.29519 0.91769 -1.40721 -0.665865
440 1 4.35884 9.28817 8.78772 0.172772 -0.95012 0.00909579
441 1 6.92794 6.56627 7.56518 -0.651592 -0.720509 -0.341362
442 1 0.72016 3.07339 8.01141 1.09031 0.280619 0.474842
443 1 3.58387 2.29109 8.61373 0.124907 0.117842 -0.00824993
444 1 8.51119 8.94532 3.00452 -0.0681979 -1.2126 0.582708
445 1 3.00033 3.55198 4.24748 -0.357503 0.438265 -0.644778
446 1 7.82935 7.58993 0.878185 0.338816 -0.0209965 0.0287995
447 1 6.89054 7.8238 6.38302 -0.337855 -0.830782 -0.187368
448 1 6.39929 2.16711 2.28087 -0.749626 0.441996 -0.38499
449 1 5.37887 1.25318 1.74581 1.11947 -1.19508 -0.572853
450 1 5.44153 6.80211 2.90875 0.700037 1.2857 0.0926749
451 1 4.7465 2.30314 2.12344 0.0906655 0.484866 0.694756
452 1 5.55598 7.63453 3.31354 0.23417 -0.842103 -0.269321
453 1 6.85214 3.88762 9.00676 -0.370055 0.601128 0.219364
454 1 0.0707972 2.13376 5.63089 0.238169 1.29118 0.238584
455 1 2.55841 2.75015 3.35982 -1.66141 -0.414531 -0.436986
456 1 7.74802 4.7727 8.21908 0.815876 -0.00195138 1.01535
457 1 0.523502 7.91194 2.15594 -1.3402 0.0711432 0.272801
458 1 4.30495 1.61737 8.89959 -0.214023 1.04236 -0.331429
459 1 0.48216 3.78117 0.560633 -0.00131663 0.871998 -0.0939995
460 1 2.6405 8.43699 1.51675 -0.934977 1.50687 -1.90292
461 1 4.17946 5.47078 8.10803 -0.1873 0.733054 0.367903
462 1 2.42258 6.46319 2.04334 0.492099 -0.473772 0.432259
463 1 0.245198 6.21407 8.91225 -1.57571 0.427437 0.00965368
464 1 8.30225 5.32393 7.5314 1.1728 -1.0751 0.379292
465 1 9.27015 2.65526 3.67861 0.129037 0.277327 0.666069
466 1 0.591871 4.45982 6.73818 0.257091 -0.138128 -0.407667
467 1 9.26318 6.9895 1.75239 0.665786 1.30932 -0.483151
468 1 7.80585 7.80131 4.67382 -0.955936 -0.564477 0.315069
469 1 9.25764 8.43656 8.12907 -0.710592 0.79761 -0.307471
470 1 8.2514 7.37147 1.61272 0.37352 -0.736043 0.151287
471 1 3.52769 8.94574 8.76545 0.528692 0.150945 0.406464
472 1 5.87126 7.53899 2.42168 -0.214837 -1.43168 0.273492
473 1 8.08475 1.07909 0.116372 -0.340132 -1.33414 -0.464453
474 1 1.0682 6.61196 8.68511 -2.22558 0.0493352 2.16481
475 1 6.63758 8.04383 1.95585 0.174278 -0.451632 -0.968483
476 1 7.21423 2.14092 3.28223 0.140824 -0.209827 -1.30312
477 1 7.70287 3.74154 5.69941 -0.843791 0.508571 -1.23929
478 1 4.36101 3.37238 4.07381 -0.0187577 0.389938 -0.13238
479 1 5.94218 3.17521 0.341642 -0.719324 -1.41824 0.246837
480 1 0.80652 4.74982 5.64335 -1.37363 0.942982 -0.236793
481 1 8.13876 2.68571 5.48724 -1.22105 0.414809 0.370022
482 1 1.79961 2.26798 5.71284 -0.463239 0.952392 0.609406
483 1 9.1018 3.07941 5.16115 -2.46856 0.477142 -0.297209
484 1 0.971524 0.199207 5.00998 0.97156 1.08207 0.768999
485 1 2.39853 3.06491 7.60582 -0.476197 -0.630309 -0.759769
486 1 5.63568 7.68741 0.618988 -0.875457 -1.02171 -0.119541
487 1 3.06661 0.747427 8.52549 -0.0665431 -0.389397 0.457717
488 1 1.63189 4.37967 5.52895 0.0639581 1.1611 0.555794
489 1 7.78805 1.78814 0.662909 0.158708 -0.886752 1.06109
490 1 3.63905 8.21629 0.492323 1.02384 -1.46761 -0.073805
491 1 7.92411 8.10584 8.49544 -0.531577 -0.94684 -0.99996
492 1 0.316275 3.24779 1.56701 0.733702 -0.840105 0.736817
493 1 8.18635 4.72196 9.12283 -0.174685 -0.0814067 -0.0368063
494 1 3.09598 9.1031 0.241085 -0.0837663 -0.309061 -0.0621162
495 1 6.06025 5.82355 7.96549 0.542469 -1.66853 1.91022
496 1 8.30264 5.4643 5.619 0.517242 0.51849 0.188166
497 1 6.33363 4.77613 8.62093 -0.075935 0.730832 0.392463
498 1 0.91199 1.92477 2.46784 -0.749431 0.887227 1.30844
499 1 1.81267 8.86394 1.86822 0.963703 -1.26628 -0.515516
500 1 1.44319 5.05533 2.88099 0.131257 -0.562364 0.127765
501 1 6.98373 1.68472 4.17619 0.424309 0.146806 -0.274636
502 1 1.54338 2.71318 1.67229 -0.744271 -0.970866 1.09956
503 1 0.219633 5.24747 9.07744 -0.270084 -0.295105 0.952854
504 1 7.35985 2.95567 5.24319 0.123147 0.682968 0.358482
505 1 3.73624 0.916917 3.82233 0.311453 -1.1618 0.804227
506 1 0.0345448 7.08558 2.59132 -0.0720601 1.18683 -0.706377
507 1 6.4478 6.93801 2.76642 -1.79028 -1.46188 0.296174
508 1 0.202177 0.128514 1.61731 -1.38364 1.49211 0.832498
509 1 4.67183 9.18059 4.82131 -0.206168 -0.111134 -1.10019
510 1 7.45544 7.68019 7.78151 -1.09699 -0.971615 0.280809
511 1 1.66168 7.05017 2.30631 -0.651176 -0.407469 -0.282154
512 1 8.39572 7.21269 2.79331 0.266536 -0.672864 -0.124903
513 1 8.58072 7.30286 4.71337 0.0221453 1.22502 1.50581
514 1 3.97423 5.18776 1.80883 0.802145 0.716758 -0.466972
515 1 6.97893 9.24173 9.18623 0.115389 -1.21569 0.428669