ITEM: TIMESTEP
279750000
ITEM: NUMBER OF ATOMS
1000
ITEM: BOX BOUNDS pp pp pp
0.0000000000000000e+00 9.4000000000000004e+00
0.0000000000000000e+00 9.4000000000000004e+00
0.0000000000000000e+00 9.4000000000000004e+00
ITEM: ATOMS id type x y z vx vy vz
1 1 6.31423 2.66956 5.06489 0.509738 0.823622 -0.585374
2 1 4.19267 1.48622 5.45203 0.907674 0.110007 1.01578
3 1 6.63866 3.76297 1.60511 -0.0633566 0.30302 0.801849
4 1 5.07391 1.63265 4.98922 0.848639 1.45882 0.881382
5 1 6.58741 2.76447 3.27062 0.0326655 0.929447 -0.340952
6 1 5.52146 0.943923 4.61849 -1.00747 -0.857046 0.330864
7 1 8.3255 8.33152 8.91826 -0.085421 1.55142 -0.411444
8 1 1.36886 5.09461 3.89994 -0.675901 0.0329518 -0.605661
9 1 7.85462 7.38449 4.1132 1.19064 -0.38671 1.18803
10 1 1.06621 1.8287 5.83274 -0.330823 0.318104 -1.15292
11 1 7.42553 2.31202 2.48325 0.767949 1.256 -1.16979
12 1 4.89201 0.720753 1.8638 -0.801723 -1.94308 -1.40539
13 1 2.40262 9.28751 5.60434 0.718754 -0.00777055 -0.698713
14 1 3.82678 8.37286 5.01962 -0.539652 1.19335 -0.202727
15 1 5.75131 2.43482 1.92344 0.619633 -1.12268 0.898509
16 1 9.27882 0.0898301 2.66114 1.33107 0.136185 -0.0239931
17 1 2.24865 8.28702 5.69789 0.865374 -0.895111 1.42971
18 1 6.24323 8.80296 0.232447 -0.111678 -1.36218 -0.76244
19 1 2.93866 0.989508 6.27778 -0.0796618 -0.333381 -0.637023
20 1 7.24682 1.60551 7.25801 0.574246 0.759671 -0.174362
21 1 0.595507 5.16298 5.30557 0.774804 -0.183767 -1.40279
22 1 1.79101 4.94512 1.50588 -1.389 0.108675 0.749322
23 1 0.868314 7.43107 6.754 1.63093 -0.273472 -0.260737
24 1 0.117517 4.15682 8.87791 -0.339786 -0.378274 0.0657422
25 1 3.16125 4.85798 6.80693 0.955037 1.37025 -0.234296
26 1 6.50779 4.53848 3.09514 0.542357 -0.941181 0.0691497
27 1 4.1167 3.2346 3.68353 -0.909081 0.1887 0.484894
28 1 0.595963 5.55862 2.25571 0.6778 -0.237041 -0.977639
29 1 3.84118 4.69256 8.57361 0.723978 -0.771835 0.773043
30 1 4.27273 7.32129 9.0481 -0.0979561 -0.750509 1.15516
31 1 1.77787 2.30231 0.450868 -0.455758 1.82641 -0.694879
32 1 8.87396 4.0257 2.771 0.803853 2.50138 -0.969139
33 1 4.11883 7.79998 7.62024 -0.176873 0.449787 -0.154691
34 1 3.51761 5.22484 9.26439 1.52237 -0.98631 -0.24576
35 1 6.66727 4.82897 6.18546 1.22494 -0.153323 0.627002
36 1 2.44783 3.14164 8.80856 -0.462958 -0.760414 0.278099
37 1 4.33621 2.28468 3.78679 0.116213 -1.24454 -0.976086
38 1 5.27081 8.83849 3.45155 0.0881998 -0.434786 -0.198716
39 1 4.44786 5.51858 6.94245 -0.742303 -0.805662 1.04941
40 1 6.52268 2.26084 4.25099 1.01003 1.09016 0.81643
41 1 4.35881 6.45533 7.51581 -0.609875 0.928119 1.32758
42 1 7.0057 2.78752 6.5016 -0.966958 1.18244 -0.458685
43 1 2.08895 9.37451 4.54684 0.487194 0.45011 -0.638473
44 1 1.53349 5.59154 4.86738 -0.512654 0.376425 0.0949192
45 1 0.492211 7.54122 8.77383 -1.07309 -0.837905 0.613751
46 1 1.33562 7.05382 5.06807 -0.270121 -0.568646 0.594066
47 1 1.34518 1.21207 5.2694 0.148852 0.445671 0.0899837
48 1 9.26662 6.24258 7.13527 0.107365 0.779834 1.53675
49 1 4.65254 6.73607 3.31983 0.262964 -0.145276 0.86835
50 1 9.19005 1.9695 3.18767 -0.603795 -0.119513 0.558675
51 1 4.3665 3.88485 0.735725 0.809292 -1.43359 -0.626621
52 1 2.89863 6.5718 2.12342 -0.706984 -0.712473 -0.242018
53 1 6.97782 2.96636 0.29544 -0.134031 -1.40986 0.37511
54 1 8.97996 7.84879 1.74441 -1.41984 0.883469 0.368221
55 1 6.67408 1.20238 2.0038 -0.33885 0.778583 0.303519
56 1 8.77395 6.96945 4.45658 1.37301 -0.0143073 -0.176946
57 1 6.10207 6.54568 5.29672 0.620363 0.561449 -0.787202
58 1 0.851053 6.42478 3.51029 1.86091 0.651828 -0.697413
59 1 6.56637 2.82897 1.11389 -0.881874 0.222596 -0.212524
60 1 4.04707 2.57622 4.58495 0.729329 -0.446624 0.587803
61 1 2.32928 5.25756 0.0511402 0.896607 0.395257 0.530587
62 1 2.67701 5.02577 3.1315 -0.363591 0.67596 0.921054
63 1 0.534665 8.18604 1.77804 -0.642139 -0.390085 -1.42937
64 1 7.8146 6.50966 4.50745 2.2884 -0.0828858 -0.304964
65 1 6.68645 3.69994 5.03675 0.0262815 -1.21006 -0.160377
66 1 5.70892 3.42174 1.83257 -0.606671 -0.195564 -0.715993
67 1 9.15793 5.19631 7.11266 -0.825676 0.515034 -0.401382
68 1 8.83203 2.28253 7.70642 -1.15774 -0.548451 0.45833
69 1 2.58692 8.72117 0.103652 0.811377 -0.50054 0.787036
70 1 1.77999 1.24939 0.69815 -0.266799 -1.03866 -0.632846
71 1 0.249688 5.06985 8.7897 0.672262 -0.28676 0.841353
72 1 8.32222 8.56142 2.13054 -0.908737 0.938114 0.36551
73 1 7.01194 6.07809 2.52853 -0.61565 0.214706 0.0103491
74 1 3.87735 2.11439 1.20716 0.196506 -0.943609 0.796643
75 1 2.25913 6.94524 8.93079 -0.526594 -0.0300756 -0.184782
76 1 8.02632 3.78535 3.25061 0.483917 -0.0486073 -0.258404
77 1 0.294798 4.20283 0.339339 0.470074 0.414594 1.41026
78 1 1.45311 3.50602 3.04762 -1.80664 -0.16061 0.251294
79 1 0.730512 6.05705 5.09948 -0.535124 0.0383904 0.727855
80 1 1.84902 6.9981 7.7197 0.392275 0.599362 -1.37313
81 1 2.68994 5.36608 1.18941 0.714435 -0.456138 0.573171
82 1 7.27455 1.49762 1.15745 0.347577 0.0487834 -0.158102
83 1 7.66517 3.2746 3.87937 -1.88202 0.610237 2.53431
84 1 3.64493 7.53477 2.73405 -0.783268 0.0836112 0.596074
85 1 5.30698 6.81817 5.19394 1.85406 0.481551 -0.986486
86 1 1.52027 2.81404 7.31503 -0.517817 1.13746 -0.278233
87 1 1.36516 6.68777 1.03029 1.2943 -0.0255558 -0.106065
88 1 4.39774 8.73459 7.36772 -0.255683 -0.71972 -0.566919
89 1 7.93956 2.6235 4.49118 0.0928884 0.523176 -0.488073
90 1 3.49379 4.81677 1.32244 0.152431 0.984595 0.574707
91 1 4.74282 7.28421 0.458946 -1.48964 0.184935 -0.3434
92 1 1.80031 6.56292 3.59734 -0.062171 -1.53085 0.15314
93 1 1.07806 8.45522 6.66708 -1.02072 1.07808 -0.38247
94 1 7.16489 3.82736 0.807665 -0.227918 2.23816 0.737261
95 1 5.67562 6.09173 1.73809 -0.264888 0.54854 1.3574
96 1 2.88146 9.2358 3.99941 0.150865 -0.165481 -0.107498
97 1 7.94265 6.51191 7.44144 0.459105 -0.392544 0.757849
98 1 1.11576 1.68897 9.35744 -0.457536 -1.42259 0.469557
99 1 5.62888 7.50217 1.17129 0.858921 -0.0690533 -0.646109
100 1 7.34891 3.87366 4.50771 0.546747 -1.9081 -0.0312613
101 1 1.6788 3.72196 8.66423 0.833795 -1.11646 -0.256336
102 1 0.478519 1.5681 0.86367 0.309103 -0.154191 0.408054
103 1 8.83773 7.2843 0.762665 0.473864 -0.248969 -0.687915
104 1 2.18903 7.387 6.47878 0.535147 0.724384 -2.71391
105 1 6.38414 3.93595 6.69457 -0.59339 -0.208745 -0.710149
106 1 2.14753 2.95613 6.51257 0.541634 -0.284755 0.0037636
107 1 1.46277 1.76219 7.31478 0.0425495 0.334532 0.998506
108 1 6.44854 7.62103 2.3487 -1.41258 -0.455782 -0.525335
109 1 2.61347 0.947216 2.15801 1.51569 0.952492 0.41692
110 1 9.30633 4.4759 5.49167 -0.382802 -1.06729 0.993529
111 1 3.13082 3.79175 9.21762 0.2178 0.0337413 0.119103
112 1 8.44331 8.01792 6.85483 -0.556873 0.692032 -0.20591
113 1 1.10005 2.06275 3.58894 0.344843 -1.18463 -0.471438
114 1 4.87346 4.11506 6.44211 -0.691795 -0.902716 0.232559
115 1 0.210358 6.91652 7.51163 -0.665771 -0.767623 0.328781
116 1 3.94659 1.84772 2.00415 0.29176 -0.0241275 0.645665
117 1 9.00752 8.9748 7.96599 -0.33479 -0.0903482 1.38604
118 1 7.4942 0.245799 5.82114 -0.636919 0.38274 2.28855
119 1 6.70956 7.36876 7.86249 0.286915 0.354293 -0.260086
120 1 0.332062 0.47741 3.77042 -0.213471 1.31684 -0.729534
121 1 6.59382 7.70398 0.951085 0.253659 -0.363515 -0.00427305
122 1 4.91586 5.27499 2.26762 0.0524392 0.109783 0.852796
123 1 5.97335 7.2214 8.86099 -0.618941 1.49737 -0.332849
124 1 0.378893 4.68707 2.40706 -0.44545 1.46721 -0.367634
125 1 5.47425 0.83124 3.67358 0.706998 -0.992455 0.288739
126 1 5.94072 1.53081 5.64084 -0.328373 -1.46163 1.02094
127 1 3.63835 3.83071 8.16746 -1.97908 0.0749003 -0.0195194
128 1 6.74914 5.26158 8.53608 0.701127 1.00023 -0.94417
129 1 3.2456 0.203953 5.73068 0.548407 -0.105937 1.78811
130 1 3.06124 1.92268 0.772937 -1.10372 0.834245 -0.283435
131 1 4.11881 0.252154 7.47158 0.176899 -0.618174 -0.990089
132 1 2.12285 6.2428 1.27817 -0.0882996 -0.00834968 0.870865
133 1 8.10225 3.53779 5.79415 1.11353 1.4947 -0.55913
134 1 3.33956 5.87904 0.443927 0.383624 0.00575309 -0.983725
135 1 0.129205 0.976806 2.73318 -0.386632 1.11028 -0.712851
136 1 1.90167 8.446 8.72641 0.704644 -0.957196 -1.76718
137 1 3.92178 8.62432 6.59137 -0.120343 1.07643 -0.626494
138 1 8.19019 2.62813 2.0119 -0.187475 -0.00814536 -0.649103
139 1 5.43715 1.34278 7.55514 -0.659521 0.531939 -0.392034
140 1 6.01871 0.319625 0.451524 1.18421 -1.42765 -0.950849
141 1 5.99955 1.36223 6.52345 0.100538 -0.80475 -0.915287
142 1 0.631352 2.70256 2.21788 1.20344 -0.920081 0.990439
143 1 4.05238 0.789092 5.85458 1.52278 1.04154 -0.56898
144 1 0.938451 9.3112 3.1306 0.465924 0.479284 -0.933747
145 1 3.40725 5.84988 1.46285 -0.224128 -0.443437 -0.466624
146 1 1.26926 4.02981 3.94434 -0.527465 -0.748607 -0.657068
147 1 1.01007 4.71042 1.19051 -0.366338 0.170693 1.35951
148 1 8.23182 9.1861 7.14698 -0.461517 0.335851 -0.281661
149 1 1.17621 0.254742 5.19628 -1.40512 -0.877956 0.42386
150 1 2.23038 0.772993 8.86858 0.717267 -1.58862 -0.497545
151 1 8.51243 8.1869 3.69094 -0.776133 -0.175654 0.292343
152 1 4.40666 5.85899 2.81826 -0.439342 -1.02389 0.696634
153 1 5.94658 5.61093 8.14501 0.180409 -0.581878 1.52089
154 1 6.67558 4.49667 7.25677 0.208983 0.92814 0.248318
155 1 4.89365 0.790345 8.68128 0.601941 -0.19461 0.768834
156 1 0.383291 6.24766 9.36549 0.00727405 0.634963 -0.901611
157 1 4.25712 0.326752 1.39398 -0.515824 0.189992 0.332446
158 1 5.59201 2.25336 0.363924 0.244966 -1.71896 0.30779
159 1 3.0388 8.19942 1.38594 0.213671 -0.310989 0.854919
160 1 2.16829 3.31227 7.9498 -0.10965 -0.642574 0.0587347
161 1 7.09307 7.4907 1.76514 0.104194 -0.222803 -0.0945929
162 1 9.33025 5.49017 0.289939 -0.674296 0.160481 0.0358204
163 1 0.32821 9.20905 5.62457 -0.70691 0.260635 0.150811
164 1 7.55509 0.678438 2.05518 -0.382801 1.33075 -0.982261
165 1 1.95351 5.78831 2.09547 0.394964 -0.249657 -0.257264
166 1 9.17136 8.79344 3.76214 -1.15265 -0.939281 0.0564189
167 1 6.04899 2.11973 7.02855 -0.165239 -1.26894 0.615023
168 1 7.26059 8.41886 0.453802 -1.20635 -0.616586 0.285662
169 1 1.95603 2.88899 1.08921 1.22809 1.39779 0.475692
170 1 8.67556 3.21442 7.06503 1.30169 0.464623 -0.90593
171 1 7.87943 1.62024 0.174369 0.241988 0.437775 -0.416896
172 1 6.10286 8.24794 6.86622 -0.375035 -0.160433 0.20951
173 1 7.37956 7.22042 0.892809 0.534995 0.389099 -0.18757
174 1 6.82088 8.23125 6.33294 0.265986 -0.358928 -0.392539
175 1 6.72163 9.10243 5.97754 -0.605411 0.656974 -0.242092
176 1 5.07212 6.14702 2.36375 0.044121 -0.672391 -0.115696
177 1 8.67878 3.48322 8.85812 1.05409 0.966525 -1.12346
178 1 3.31631 7.32219 4.34886 0.109176 0.937825 -0.414438
179 1 3.62092 7.20304 5.32855 0.902178 1.03092 -0.835518
180 1 0.948427 0.979663 1.32664 -0.170135 0.799831 1.03461
181 1 5.10983 6.55047 8.04811 0.00147023 0.490299 0.317282
182 1 6.1815 6.82124 1.34811 0.247141 1.36497 0.0734404
183 1 7.3261 5.16574 7.71596 -0.0451017 -0.993456 0.478597
184 1 1.64185 5.85442 7.07158 -0.508956 0.848211 0.297302
185 1 5.6829 4.62932 3.9057 1.04432 0.0270704 0.496736
186 1 0.374031 1.52845 7.60439 0.0264608 -0.0656202 -0.0871651
187 1 1.94066 1.12663 8.02019 -0.162084 -0.111022 0.254082
188 1 0.538972 1.4031 3.43121 0.039731 0.184956 1.06234
189 1 6.36109 1.36928 4.58708 0.796306 -0.0801935 0.497712
190 1 7.38468 4.17489 5.66292 0.698237 -0.885607 0.0839398
191 1 5.23808 7.79901 6.08445 -0.264109 0.628872 -0.611719
192 1 1.09387 4.55634 7.66796 1.06654 -0.539875 -0.57352
193 1 3.20372 0.384831 2.45342 0.629646 -0.718204 -1.39944
194 1 9.05751 4.16849 6.99828 0.706471 -0.811721 0.747485
195 1 5.67903 2.93831 1.03153 0.647436 -0.603571 -0.400965
196 1 3.7028 2.74718 0.299685 -1.35444 0.0970703 0.501262
197 1 2.55793 6.02801 5.56864 -0.329188 0.498847 -0.326752
198 1 1.79913 6.10074 0.0210775 -0.234314 -0.672755 -0.0385712
199 1 6.97093 1.90909 9.22072 0.110833 -0.937922 -1.06386
200 1 0.647133 6.96817 4.42347 -0.331257 -1.91588 -0.424615
201 1 6.55483 2.01779 1.72581 -1.00874 0.042717 -0.115909
202 1 7.85684 0.751087 4.49791 2.49358 1.72304 -0.141198
203 1 1.94441 3.9685 2.48437 -0.661147 -0.684571 -0.23011
204 1 8.92261 5.65005 8.59336 0.0216793 0.0168167 -1.36474
205 1 1.30302 8.70765 0.907972 -1.31838 0.895074 0.818078
206 1 0.60739 5.71471 4.11268 0.215502 -0.514927 -1.01123
207 1 7.74865 7.7877 2.39591 0.788524 0.609467 -0.493394
208 1 6.22951 3.71901 0.701925 0.154185 0.138796 -1.52045
209 1 3.3808 1.70457 3.6239 -0.29946 -2.07622 -0.297209
210 1 0.30819 2.22918 4.1897 0.927915 -0.0198847 -0.0271198
211 1 4.83552 8.22796 1.54565 1.03442 -1.48344 -0.28473
212 1 2.99578 5.87591 8.05968 -0.0524459 0.443426 2.24408
213 1 4.98525 3.91307 3.63628 -0.296827 0.855173 -0.00450906
214 1 7.0903 1.66132 3.04746 -1.23481 -0.27004 1.09722
215 1 1.71062 0.507054 7.24458 0.215265 0.840334 -0.124061
216 1 5.0389 4.36303 1.98955 -0.598249 -0.396514 0.809524
217 1 7.91729 0.611165 1.16092 -0.764909 0.235489 -0.623906
218 1 6.88672 4.28726 8.14705 0.828079 1.18541 -0.265456
219 1 6.88138 5.51682 0.763246 -0.38197 -0.751992 0.0756781
220 1 1.7741 3.51133 5.64508 -0.286349 -0.747812 -0.839869
221 1 1.23607 5.88727 6.18443 0.052759 0.263426 2.67745
222 1 2.37146 8.48202 2.22004 -0.4166 -0.650336 -0.661587
223 1 1.92488 9.16419 2.93074 1.36971 -0.0489928 1.32654
224 1 0.287901 4.84628 3.70441 0.461677 -0.0061086 0.132639
225 1 6.78883 0.602307 8.16055 0.165078 1.20798 -0.616723
226 1 6.19907 1.69042 3.56306 -0.167866 0.339508 -1.04366
227 1 1.05146 3.20149 1.01298 0.707442 -1.64602 -1.46432
228 1 3.25592 8.56144 2.54419 0.852006 -0.934822 -0.382928
229 1 8.36406 7.34151 6.2938 -0.706678 -0.119833 -0.141432
230 1 1.52748 6.72025 6.72396 -0.329964 0.383017 -0.621325
231 1 2.60205 7.34159 3.8654 0.415728 -0.0985641 0.0764339
232 1 6.98891 2.59416 8.47467 0.863044 -0.710743 -0.139956
233 1 3.57372 6.63496 3.23637 0.361042 -0.886001 0.315988
234 1 5.06342 4.42083 1.03345 -0.78466 -1.02036 -0.434402
235 1 7.55452 5.22054 2.39118 0.601709 -0.635198 -0.325287
236 1 5.5891 6.74976 3.8976 0.243632 -1.35122 1.25841
237 1 0.873638 0.531028 4.40953 -0.449144 -1.15948 0.136578
238 1 1.67768 9.06156 7.10058 1.20422 0.291231 1.05664
239 1 0.0497196 3.10818 6.23543 0.00692673 -0.724572 0.117478
240 1 3.89971 7.40944 6.83323 0.492222 1.06224 -1.28848
241 1 0.224219 7.38295 1.34361 -0.329198 -0.444918 0.49861
242 1 0.628942 5.60116 7.35988 -0.28335 0.41058 -0.780852
243 1 8.17715 5.15529 5.4433 0.469457 0.483262 0.56637
244 1 7.59961 1.15064 5.67225 0.644306 0.205345 -0.768669
245 1 8.90451 8.78209 5.73638 -0.392234 -0.296176 1.5962
246 1 1.13707 7.45158 3.72782 -0.4068 -1.15813 0.988014
247 1 4.90159 2.14698 9.1307 0.777662 -0.0378252 1.70268
248 1 2.08704 4.58468 0.742692 -1.05803 -1.94025 0.41093
249 1 6.5659 2.2663 6.02216 -0.122361 1.0832 1.70891
250 1 3.01582 2.44706 4.6333 0.384981 -0.588256 -0.800705
251 1 0.0227381 3.75837 1.81439 -0.0964345 -0.0569926 -0.155485
252 1 7.14312 0.444372 2.87282 1.11252 -0.0189334 0.6887
253 1 5.01433 7.99082 7.1387 -0.844699 -1.18275 -0.0548879
254 1 7.69267 5.9429 0.477349 0.345154 1.11671 -0.295519
255 1 5.37176 3.83464 7.25111 -0.233907 0.740106 0.145616
256 1 7.1334 7.84036 4.42591 -1.06528 -1.20708 0.894611
257 1 8.71309 6.3684 9.09104 -0.123885 -0.230278 0.706405
258 1 8.8928 0.119438 4.53031 1.10507 -1.01035 -0.515479
259 1 2.24523 7.27472 4.96135 0.417704 -0.0846323 -0.238359
260 1 0.759179 4.07095 4.7879 0.1547 -1.31537 -0.0906776
261 1 1.07349 9.36416 7.68424 -0.764052 1.19207 -0.245144
262 1 3.78796 4.65221 3.3862 0.483436 0.422619 -1.15514
263 1 6.29654 7.46318 3.36215 0.268604 -0.248625 1.05566
264 1 3.387 2.06265 7.12777 0.170203 0.379475 -0.458404
265 1 6.05799 9.00413 3.85715 0.369659 0.690557 -0.573855
266 1 1.77875 5.34011 2.98339 0.0563246 -0.492362 -0.133796
267 1 3.77876 7.19653 0.608687 -0.222724 0.15462 0.116827
268 1 6.66368 8.96743 1.05997 1.64533 0.693438 -1.19804
269 1 0.0932497 0.351897 7.56895 0.466896 -0.670319 -0.215044
270 1 3.00508 8.45426 8.49556 -0.732573 -1.13624 0.199848
271 1 4.78557 2.42615 1.50774 -0.15593 0.374741 -0.1244
272 1 3.36171 2.93756 8.82739 0.269624 0.237971 -0.260793
273 1 0.87526 2.56434 9.14794 0.983698 -0.201424 0.656639
274 1 7.60856 8.54825 3.66154 0.447268 0.624966 0.27976
275 1 5.47876 7.41357 4.56105 -0.81143 1.03615 -0.735696
276 1 5.1499 0.522876 0.826143 0.182412 0.824508 -0.208697
277 1 7.311 3.85509 9.17317 -0.740644 -0.0188652 -0.634071
278 1 0.579012 3.18833 8.17486 0.726475 0.162674 -0.389767
279 1 9.13805 4.16175 4.56015 0.020726 -1.46344 0.821524
280 1 6.547 8.35009 3.18846 0.743477 -0.597185 -0.831696
281 1 5.47496 0.286567 2.924 -0.501266 -0.238588 0.213657
282 1 4.79044 4.47839 5.56227 0.17063 -0.723691 0.0738408
283 1 1.83903 9.14626 9.27451 0.407033 -1.17466 0.0361726
284 1 4.40509 4.75624 1.65633 -0.265521 -0.222393 0.681714
285 1 2.94886 7.88766 5.01992 -0.715063 0.118576 -1.10486
286 1 7.94948 3.51084 0.250117 -0.419923 1.26287 -0.790094
287 1 8.3829 6.73033 2.4392 -0.394082 -0.0421178 1.08432
288 1 7.54777 2.90011 1.22414 -1.05966 -1.69312 0.78946
289 1 4.15819 2.62445 7.00678 1.05098 0.669917 -0.553618
290 1 4.86753 9.05098 1.14075 0.513594 -0.231053 1.22152
291 1 1.1983 5.38302 8.06216 0.0494146 -0.778008 -0.948451
292 1 4.06908 5.55942 4.80601 -0.260057 0.122709 -0.729655
293 1 5.49568 2.08074 2.88709 -0.408139 0.146079 -0.659154
294 1 5.23517 4.85595 7.15861 -1.67276 0.311267 0.126891
295 1 8.28054 4.04754 0.92355 0.223949 -0.335496 -1.35699
296 1 2.79443 7.96858 3.12032 -1.68326 -1.2617 0.0714605
297 1 3.23794 4.89663 4.87112 -0.0303487 0.287678 1.4559
298 1 0.959363 3.79446 6.75281 -0.176697 -0.0168881 0.551949
299 1 2.40594 1.51423 3.0369 -0.127939 0.46915 -0.383113
300 1 4.6225 7.64735 2.81447 -2.02901 0.786597 -0.441565
301 1 2.15958 1.43888 3.94346 -0.236255 -0.1609 0.682481
302 1 4.90626 6.19923 6.63597 0.453469 -0.200706 1.31592
303 1 1.07369 5.98532 0.552971 -0.101729 0.21266 -0.299343
304 1 0.0326721 1.52141 8.52988 -0.753446 -0.784899 1.90026
305 1 5.21538 3.65441 2.78859 -0.517128 -1.64999 0.352825
306 1 8.26439 0.0340864 8.94969 -0.955735 1.08168 -0.640565
307 1 5.691 9.36477 8.80602 -0.431035 -0.696415 -1.29076
308 1 8.28092 7.14344 9.0647 -0.300951 0.896247 0.928496
309 1 8.58639 2.31409 3.79906 -1.61573 -1.00405 0.289119
310 1 8.1852 0.541898 8.04205 1.04066 -0.379473 -0.439855
311 1 0.963181 3.22984 5.54306 0.760184 1.39501 1.06632
312 1 2.95067 6.74215 1.09091 -1.95832 -2.59996 -0.96137
313 1 7.08668 3.07907 5.6756 0.403809 1.82201 -0.461489
314 1 7.49066 5.64475 4.5941 1.85951 0.357106 -0.40392
315 1 2.43935 7.39781 2.21302 -0.0111969 -0.196134 0.982485
316 1 8.66366 0.755176 2.18772 -0.249783 1.04004 -0.302692
317 1 8.63097 6.11257 4.8639 -0.631573 -1.87256 0.675123
318 1 6.18045 3.14218 6.94723 0.0137556 0.513204 -0.0424989
319 1 2.15547 4.46895 7.28579 0.255845 0.810496 -1.56571
320 1 1.03924 6.43919 7.67162 -0.0578689 -0.108934 -0.285934
321 1 4.91085 1.34136 6.09914 0.0139244 -0.0508555 0.154621
322 1 6.55746 9.21909 5.0731 -1.73972 -0.600136 1.28925
323 1 5.62045 2.25739 6.14229 -0.303044 0.0908906 1.98664
324 1 4.23311 6.74964 2.35501 -0.792558 -0.78278 -1.42858
325 1 2.4225 4.16952 3.51232 0.242012 0.575545 0.454168
326 1 1.86292 8.0257 1.52505 -0.0539373 -0.761043 0.456985
327 1 8.79189 4.74244 8.49291 1.11249 0.23591 -0.178878
328 1 0.523647 8.18611 0.935026 -0.119352 1.41829 -0.805909
329 1 1.87385 2.20693 4.20967 -0.395123 -0.292987 -0.14857
330 1 3.94166 2.44478 2.82235 1.21648 -0.704543 0.84986
331 1 8.71106 4.62553 7.62897 0.549247 -0.664092 2.04443
332 1 4.97373 3.02552 4.31996 -0.59207 0.97833 0.355568
333 1 3.964 1.90285 6.28749 1.59418 -0.73547 0.421517
334 1 3.77659 9.07425 8.7961 -0.434208 0.0334438 -0.974481
335 1 7.54262 5.59595 1.5149 -0.227234 -0.141309 -0.110401
336 1 0.916395 0.910077 8.00316 2.22267 0.349761 -0.281501
337 1 9.04979 3.46862 5.26652 0.159816 0.654517 0.341872
338 1 8.32828 8.0604 4.75143 0.185557 0.325215 -0.109617
339 1 3.79773 4.04967 5.29406 -1.3085 -0.47598 0.387628
340 1 4.58864 1.80692 7.53939 0.0863804 0.379365 -0.744743
341 1 0.471963 8.35502 5.40201 -0.711292 -0.0724845 -0.634731
342 1 8.14805 8.70399 0.292072 -0.880169 0.0831659 0.082898
343 1 5.71593 7.43517 6.99252 -0.201775 -0.576229 -0.672277
344 1 1.13427 8.43117 0.0644129 -0.970134 0.327467 -0.607055
345 1 8.45033 7.86292 8.13179 -0.920753 0.495905 -0.066534
346 1 3.34377 5.72054 5.28146 1.68463 0.745413 0.210313
347 1 5.44626 7.72468 2.19433 0.516019 0.0425119 1.1017
348 1 7.34152 7.00283 2.73817 0.00675571 1.28284 -0.014947
349 1 3.67961 1.11596 1.40808 0.644676 0.189448 -0.889587
350 1 2.93899 4.61177 0.387367 0.590255 0.570547 -0.599121
351 1 1.60038 4.62005 9.38269 -0.14795 0.694656 0.0064256
352 1 1.58911 3.72876 4.68968 -0.710478 0.358513 0.0321391
353 1 4.75899 4.96998 3.71542 0.34353 1.04111 -1.99137
354 1 8.20925 5.77395 2.13632 0.586364 -0.664877 -0.353024
355 1 1.78539 1.85962 8.88018 -0.806682 -1.31433 0.0194515
356 1 1.41043 4.37235 5.53804 1.56088 -0.825476 -0.611584
357 1 4.44718 8.66706 4.1387 0.127206 0.30543 -0.861227
358 1 2.077 4.87828 8.48999 -0.864888 -0.191094 -1.1829
359 1 1.17869 6.6515 9.18999 0.199549 -0.119645 -0.873826
360 1 5.1067 6.82298 9.16056 0.615136 0.390723 -0.74333
361 1 5.36321 9.19879 2.0801 -0.260823 0.636729 -0.405446
362 1 8.34398 2.29427 0.99518 -0.531364 0.00792908 -0.0585796
363 1 5.59564 3.73309 4.98587 0.671255 -1.07363 0.419083
364 1 9.01585 1.84784 5.14346 0.225861 0.164068 1.16518
365 1 8.37431 6.45983 6.43892 0.614466 0.311474 0.188266
366 1 2.54142 3.90878 8.41844 0.78585 -0.511644 -0.38194
367 1 0.0634643 2.52367 0.8651 1.2089 -0.497194 -0.230113
368 1 3.20536 2.8947 2.51761 0.697597 -0.00728762 -0.863115
369 1 2.80355 0.99378 0.977739 -0.282346 0.528815 0.257571
370 1 6.40584 7.21448 5.83474 -0.451146 -0.154154 -0.253294
371 1 1.25278 0.956061 8.8227 0.308681 1.32876 0.634802
372 1 8.93755 5.32624 3.83848 -0.360765 1.31677 0.555009
373 1 6.97073 0.728196 0.506214 -0.774548 -2.39651 0.0680574
374 1 4.01471 3.18242 5.46054 0.32595 -0.0085692 0.602545
375 1 7.11713 6.54725 7.68456 -0.241463 -0.178665 -0.995281
376 1 5.01488 5.46274 1.22583 -1.76705 0.984754 0.291914
377 1 5.56372 6.87211 6.16371 -0.425432 1.04201 0.441763
378 1 6.12887 5.50862 3.6436 -0.481961 0.220302 -1.90097
379 1 8.01975 4.1584 8.66579 -0.436222 0.426807 0.157641
380 1 3.13068 1.67789 5.74921 1.41267 -0.156096 0.182538
381 1 0.481532 6.74265 0.691528 -0.175189 0.067658 -0.24745
382 1 2.90563 2.37486 9.32634 -0.157032 -1.15736 0.442804
383 1 6.8158 3.54949 7.51984 -0.185512 0.5475 0.387895
384 1 2.77193 4.42527 1.49612 0.627608 1.16543 0.669358
385 1 3.1447 5.82821 6.36566 0.820973 0.976778 -0.4742
386 1 8.11726 6.7832 0.518459 -0.630038 -0.375759 0.70143
387 1 7.53668 0.600712 7.40411 1.24592 -0.378298 0.882249
388 1 2.52429 1.7281 4.66988 -0.727444 0.517504 -0.590109
389 1 9.319 2.23488 6.88674 0.988191 1.61898 0.814653
390 1 5.54638 2.28498 4.52925 -0.260409 0.6016 0.19718
391 1 9.1597 4.70631 1.04876 0.153622 -0.35688 -0.505246
392 1 6.36878 8.48473 4.64985 1.18258 -0.574515 1.23416
393 1 3.19817 9.18542 1.5453 1.54998 -0.974015 0.9814
394 1 6.50299 4.22105 4.30619 -0.113879 0.94117 -0.554784
395 1 1.16951 2.98709 6.54413 -1.28049 -0.0682423 -0.677495
396 1 2.12469 2.09749 7.95605 -0.267172 -0.465195 -0.0959206
397 1 6.26579 5.52832 5.76687 -0.95512 1.02595 0.944119
398 1 6.62099 0.765692 5.26036 1.08537 -0.698382 -0.00646809
399 1 8.14262 7.75856 0.560942 0.455101 -0.418755 -0.886082
400 1 5.49106 9.01687 7.06919 0.584007 -1.83042 -0.179124
401 1 0.654286 6.23317 6.70691 -1.1134 -1.09736 0.384094
402 1 4.2883 6.04651 4.13449 -0.0736199 1.15044 0.468795
403 1 5.88583 9.35544 1.2812 0.256326 0.346249 -0.542313
404 1 1.33519 8.72752 2.47403 -0.280407 -0.685782 -0.474914
405 1 6.95365 6.00343 3.89431 -0.83247 1.10035 -0.760993
406 1 1.23984 7.59087 0.986946 0.245058 0.152014 -1.24254
407 1 3.15278 4.56462 7.95217 -0.791086 -0.979429 0.687905
408 1 2.73305 6.45524 3.84316 1.36118 0.556112 -0.562306
409 1 7.42072 0.0666588 4.90732 -0.68722 -0.111331 0.538403
410 1 0.368927 3.28848 0.475676 0.107027 -0.943947 0.373468
411 1 6.89595 5.08664 4.06418 -0.526489 -0.742919 1.08262
412 1 8.88875 0.686826 3.47132 1.50673 -0.443874 1.90396
413 1 0.106903 1.75007 5.98398 0.683634 -0.651327 1.25579
414 1 4.58207 8.57102 2.40419 0.827538 -0.801093 0.618631
415 1 5.72284 0.0524461 4.90812 -0.491711 0.310309 0.00455724
416 1 4.54336 6.34889 5.65587 -0.00791284 1.76367 0.557481
417 1 8.80176 8.74291 2.99328 0.171065 -0.673905 -0.116226
418 1 5.99942 0.946859 8.51639 1.20735 0.825255 -0.319009
419 1 4.75914 4.12848 4.51584 -0.708289 0.770151 0.181635
420 1 1.25716 0.878775 3.62508 -0.256609 0.300601 0.1187
421 1 4.14761 8.38715 3.1777 0.222879 0.900087 0.379759
422 1 6.43319 6.57568 3.397 0.270288 -1.29937 1.03189
423 1 3.75916 0.0912535 4.2897 -0.680942 -1.7041 -0.0485151
424 1 6.48867 1.87319 0.844248 -0.323475 0.176912 0.652954
425 1 5.12134 1.04016 2.72957 -0.639997 0.495952 0.109464
426 1 1.48118 0.0167576 6.11233 -0.259306 0.201682 0.730522
427 1 4.88766 3.56358 5.39927 0.287207 0.372358 -0.751775
428 1 0.0377944 7.8821 6.82231 0.801765 0.441834 -0.279746
429 1 2.41282 0.0912771 2.18211 0.638404 1.15462 -0.418572
430 1 1.81427 6.72338 2.28055 -0.0335138 -1.07439 0.765415
431 1 7.09548 0.254457 8.82822 -1.2444 0.0905889 0.585708
432 1 3.95296 8.38062 8.25997 -1.02132 -0.719108 -0.0118254
433 1 7.83308 5.97826 2.87652 -0.267551 -0.87929 -0.649262
434 1 7.73886 4.40847 3.94945 0.462199 -0.00274348 0.832225
435 1 3.1011 6.60773 4.92712 -0.0331597 -0.611976 -1.40872
436 1 4.94338 8.38815 8.00371 0.642937 0.0121512 0.705828
437 1 8.14469 2.67937 3.1365 -0.180058 0.0256462 -0.860033
438 1 3.06465 8.48845 5.66001 -0.0335787 1.8619 1.49685
439 1 8.8454 1.63432 0.248197 -1.24171 0.410985 -0.884281
440 1 3.84114 0.451524 5.06017 -1.163 -0.0470504 0.633516
441 1 6.67549 2.80137 2.21279 0.512187 -1.53519 -0.607721
442 1 7.57754 4.66929 4.77883 -0.179759 0.379828 0.306587
443 1 4.48774 9.23229 8.1653 -0.371808 -0.728465 -0.355041
444 1 7.3317 0.512153 3.82788 0.0474332 -0.599123 -1.54809
445 1 0.22155 0.653943 1.76726 0.795758 0.523802 -0.360737
446 1 8.99746 7.51649 2.6476 -0.483065 0.19563 -0.673292
447 1 5.16545 4.94169 0.230183 0.50479 1.30906 0.905696
448 1 3.04453 4.92078 3.94904 0.762948 0.658293 -0.999028
449 1 5.25095 3.61331 0.641208 0.294285 1.58624 -0.590075
450 1 3.60985 1.03167 7.35853 1.23245 0.0697784 0.427026
451 1 4.9023 1.99753 6.72944 0.43265 1.40586 -0.272148
452 1 8.45509 6.80944 3.6298 -0.515328 -0.383631 -1.2316
453 1 8.64112 1.29096 6.19843 -0.832554 0.0504104 0.305382
454 1 1.21336 4.48371 2.97443 -1.44699 -1.16047 -1.46034
455 1 0.220153 8.54246 6.34724 0.655553 -0.41516 0.587609
456 1 3.61303 5.56737 7.30239 0.91956 0.709606 -1.41365
457 1 3.46765 7.55387 8.57869 -0.159936 0.335466 -0.953439
458 1 9.02461 3.91237 6.17517 -0.307771 -0.972953 1.21557
459 1 6.18306 3.25163 4.3265 -0.769989 -1.52379 0.898598
460 1 1.37058 0.237694 1.11291 0.071297 -0.40941 -0.0653707
461 1 0.289737 7.72573 0.261955 -0.992625 -1.00661 0.123167
462 1 0.565482 2.04112 2.75273 -0.387754 -0.038921 0.424702
463 1 4.25237 1.72259 4.46944 -1.39512 1.80417 0.205066
464 1 6.02887 6.64614 8.22015 1.14327 0.07307 -1.4151
465 1 2.80618 4.19281 5.33668 1.20106 -0.826117 -0.97512
466 1 9.23869 8.57544 4.94642 0.26393 -0.0953802 0.645891
467 1 3.29698 5.69139 4.22691 -0.664841 -0.876052 0.718118
468 1 7.29487 6.73988 5.97204 0.349509 -0.445983 -0.0488237
469 1 5.97305 5.35871 9.18802 -0.638389 0.220627 -0.117451
470 1 8.95137 2.80999 2.70643 -0.736862 -0.478555 -0.674423
471 1 3.24581 8.83672 0.689034 1.43196 0.0595702 -0.338038
472 1 7.90016 5.07893 8.36255 1.19284 -0.653987 -1.53028
473 1 8.1953 6.4649 8.30871 0.673566 -0.549277 0.22784
474 1 2.1625 5.53971 3.7589 1.02325 -1.5053 1.47443
475 1 7.98134 0.721146 2.94503 -0.505843 0.782257 0.56975
476 1 8.28817 0.339181 6.43014 -0.309118 0.104593 -0.586672
477 1 1.537 4.58961 4.72452 0.899562 1.40842 -0.73621
478 1 3.82659 9.22111 2.54012 -1.2791 1.00326 -1.20188
479 1 2.31628 8.53017 6.90402 -0.0559996 -1.83362 -0.306956
480 1 4.55195 9.2677 3.06453 1.28398 -0.00516843 -0.374742
481 1 7.68859 1.46501 2.31937 1.63249 1.78111 0.612998
482 1 2.43807 0.16592 0.511663 -0.571958 1.58127 0.60765
483 1 1.0839 1.98152 8.04524 -0.905183 -0.0929702 -0.571466
484 1 1.46411 3.7822 7.71124 0.525525 0.0703965 0.574485
485 1 6.30219 1.51744 7.72512 -0.386211 -0.524917 -0.787884
486 1 0.250503 4.93071 7.84345 -0.149947 -0.15156 0.43858
487 1 0.471585 9.16764 4.51521 1.24727 0.599172 -0.971321
488 1 2.27944 8.45623 4.78615 0.664507 0.453941 -0.202622
489 1 1.23416 0.273162 1.98613 -0.105301 -0.566255 0.192779
490 1 3.99588 3.7922 1.78895 0.0137033 1.48058 -0.424476
491 1 7.13784 8.7961 4.38492 -0.771037 -0.283763 -1.63453
492 1 0.102221 8.60701 9.21334 0.99099 0.918057 -0.174388
493 1 9.34902 7.16231 3.73555 -1.66384 0.615453 -0.560645
494 1 7.661 2.73741 9.08028 0.6486 -0.427028 0.0940602
495 1 3.2052 1.83269 2.71831 -0.179646 -0.873846 0.337541
496 1 1.22231 2.15422 4.75478 2.21978 -2.07381 -2.15482
497 1 6.63421 6.75387 2.0657 0.430515 -0.437284 -0.497275
498 1 2.62036 3.51606 1.32634 -1.49966 0.237358 0.0743827
499 1 8.15102 1.60334 4.51351 -1.48202 0.253525 0.0208823
500 1 1.67283 0.752078 4.4425 -1.08808 -0.159981 -0.387854
501 1 4.62922 1.92672 0.709847 1.03513 -1.33958 0.102715
502 1 1.65577 7.8951 4.73381 -0.115873 -0.695093 0.135612
503 1 7.47538 9.33039 0.609906 0.257502 1.01052 -1.1178
504 1 1.31194 8.84759 4.40741 -0.683727 0.1764 -0.591542
505 1 2.66521 1.58034 8.64859 1.20205 -0.458839 -0.0360462
506 1 3.45788 4.53968 2.47661 0.0886069 0.253491 -0.108731
507 1 4.00083 8.82352 1.68343 -0.00438699 0.523679 1.40563
508 1 8.42398 0.951007 7.20885 -0.467819 0.286097 -0.0887564
509 1 5.66209 2.22307 7.90909 0.540668 0.438376 1.23359
510 1 6.1452 4.95226 0.665703 0.521934 0.626578 -0.498991
511 1 3.4469 6.65624 9.36512 0.06204 -0.0189872 -0.628266
512 1 4.02256 4.85122 5.50378 0.394842 -0.447026 0.640639
513 1 3.10771 9.11645 4.92751 0.175787 -0.607048 1.5108
514 1 1.14244 6.99992 2.94539 0.394606 0.379815 -0.271582
515 1 7.66831 1.14543 6.53461 0.274984 -0.0585892 0.235837