ITEM: TIMESTEP
307600000
ITEM: NUMBER OF ATOMS
1000
ITEM: BOX BOUNDS pp pp pp
0.0000000000000000e+00 9.4000000000000004e+00
0.0000000000000000e+00 9.4000000000000004e+00
0.0000000000000000e+00 9.4000000000000004e+00
ITEM: ATOMS id type x y z vx vy vz
1 1 4.79577 5.45271 1.45131 0.724812 -0.0983722 1.06952
2 1 7.21692 3.02024 5.91802 -0.857404 0.980353 0.503954
3 1 4.86564 3.16696 -0.0308214 0.568741 0.660531 -0.970781
4 1 6.06574 5.3553 4.45365 -1.5941 0.773698 -0.762488
5 1 6.89985 0.0956113 7.74542 -0.0655565 -1.03205 -0.43839
6 1 5.76205 0.757526 2.0023 0.985735 -0.405801 1.02878
7 1 0.54028 3.27059 6.65626 -0.361976 -0.261403 0.123815
8 1 2.15013 1.25956 1.46314 0.348762 0.127494 0.890157
9 1 6.07993 6.44831 0.745635 0.541343 -0.373432 -0.601192
10 1 0.618284 1.23693 4.99102 0.255579 -0.869115 0.341636
11 1 8.35089 4.16682 2.78616 0.985712 0.414458 -0.127887
12 1 4.75032 5.48613 0.0296795 -1.26141 -1.45136 -0.603013
13 1 7.70215 4.95515 8.6421 0.351047 0.706176 -1.67317
14 1 4.79379 2.6561 6.34639 0.254884 -0.708029 0.26146
15 1 5.41853 8.99369 1.7089 -0.106715 -1.18802 -0.369952
16 1 6.36633 4.49185 2.41547 0.201269 0.541441 -0.042863
17 1 1.02066 4.58138 3.68072 0.74169 -1.16613 0.318916
18 1 7.5 7.89353 1.21678 -0.792007 0.926129 -0.794219
19 1 0.308697 0.0313597 6.13514 -0.277238 0.258699 -1.0421
20 1 6.09514 7.11021 6.53125 0.800849 -0.881966 0.641285
21 1 6.54831 5.65119 7.31848 -1.80211 0.784567 -0.0353628
22 1 0.338576 4.59111 0.432815 -0.25611 -0.346536 -0.502967
23 1 1.97209 4.0983 8.99501 0.934126 -0.292638 0.883283
24 1 5.2411 6.87176 9.06586 -0.947426 0.233925 0.0359686
25 1 0.368798 4.2638 6.98175 0.0546269 0.721919 -0.145881
26 1 1.94179 2.47326 0.544952 -0.00192634 -2.4348 0.512179
27 1 7.55888 0.02898 0.12843 -1.12904 0.0850727 -0.218289
28 1 6.88843 3.83443 4.32996 1.05663 1.15657 0.0214907
29 1 7.20754 3.19417 2.87645 -1.53866 0.17513 0.386568
30 1 0.308519 0.223436 7.19835 -1.08503 -0.162297 0.447027
31 1 5.39137 7.64949 8.07234 -1.38628 0.311486 0.24022
32 1 4.87528 2.21482 3.86971 0.633081 1.12251 -0.539132
33 1 6.0336 -0.0353857 2.59714 0.215473 -0.950573 -0.599829
34 1 8.47981 8.92995 2.33938 0.796765 -0.132485 0.675622
35 1 6.65527 6.46117 7.61246 -0.891671 0.352356 0.400307
36 1 2.43432 7.17966 5.69979 -1.40534 -0.863249 -0.0855002
37 1 0.828219 4.35979 9.15059 0.659783 -0.658054 -0.158534
38 1 8.01093 8.54994 1.51567 -0.975049 0.421574 -0.575801
39 1 6.76454 6.2084 2.75931 -0.852525 1.01465 -0.0571339
40 1 6.59413 6.99751 4.81697 0.76678 0.311593 -0.153931
41 1 5.97507 1.11791 5.92742 1.22781 -0.251582 -0.0145527
42 1 1.25144 3.4514 8.60656 -0.570498 -0.126081 -0.975578
43 1 3.31875 5.98905 5.75053 1.18474 -0.232965 -1.79822
44 1 5.11451 5.84755 4.61039 -0.251703 -0.633761 -0.19723
45 1 9.1782 0.895475 0.229143 -0.855451 0.684898 -0.011972
46 1 4.72996 0.302018 7.18484 -0.435817 -0.243574 0.237136
47 1 3.98208 9.36457 8.52696 -0.553111 0.433222 0.133371
48 1 4.19425 1.94019 4.77364 1.33627 -0.00867911 0.991649
49 1 6.71448 8.37107 8.50065 -0.106187 -0.159716 -0.0685365
50 1 8.32032 9.31881 1.09494 -0.174613 0.512883 -0.116978
51 1 7.26886 6.93779 1.38662 0.515145 -0.275102 0.217383
52 1 7.81233 1.471 2.9191 0.0434694 0.699371 0.151701
53 1 7.53105 1.27384 8.49345 -1.55531 0.688466 -0.677065
54 1 3.9049 2.15154 0.877825 0.35219 0.0591744 -0.00815556
55 1 3.76246 9.32268 4.00494 0.377598 0.7157 0.555887
56 1 6.45143 0.993148 2.60229 0.106102 -0.449861 0.847587
57 1 8.26214 8.42031 0.66912 0.336059 1.52847 0.202674
58 1 6.63082 0.439495 6.04647 0.264506 0.770539 -0.459594
59 1 6.69114 7.03327 3.14038 0.633841 -0.0178219 0.163083
60 1 2.72804 4.587 2.15066 -1.07814 0.0451155 1.6658
61 1 1.54675 0.017029 -0.0107075 -1.07183 -1.79166 -0.864316
62 1 6.34409 7.84112 1.78821 -0.658968 0.549242 -0.280469
63 1 4.27179 8.94748 6.47513 -0.0347606 -0.973904 -0.768285
64 1 4.6318 4.32256 4.7473 0.173239 -0.451146 1.44327
65 1 8.35019 5.64649 5.43191 -0.268198 -0.521675 0.143275
66 1 7.22839 8.7854 0.924992 1.54814 0.302471 0.974384
67 1 8.3715 5.60365 9.19702 0.127564 0.987493 0.219916
68 1 6.95347 2.90886 4.95313 -0.338956 0.0720428 -0.74435
69 1 8.00512 1.22953 7.73584 -0.933438 0.815939 -0.102214
70 1 8.04903 6.10792 4.60659 -0.959024 0.444783 0.465438
71 1 4.39756 6.03665 6.38274 1.16184 -0.31122 -0.809276
72 1 6.99971 7.17816 6.92804 0.431111 -0.432395 0.395827
73 1 8.41468 4.02814 1.80612 0.271007 -0.427024 1.35097
74 1 5.40824 1.61515 9.13981 -0.288897 -0.287705 0.0410219
75 1 1.37829 5.2981 8.26656 -1.20609 -0.294489 -1.12001
76 1 4.17043 7.50429 4.28627 0.129805 -0.261271 -0.171002
77 1 3.88425 4.8057 0.0638769 0.894907 0.764845 0.632619
78 1 1.10439 7.07565 6.46232 0.313313 0.210109 -0.752761
79 1 0.998082 2.70457 2.2417 -0.85944 0.760721 1.15102
80 1 1.40481 3.79324 3.67185 2.01004 -0.909498 -1.01082
81 1 5.47968 1.83344 0.685035 1.24387 -0.403118 -0.219487
82 1 6.52868 3.80394 9.34736 -0.320641 -0.707901 1.9902
83 1 5.95173 4.32621 7.65958 0.421928 0.38249 -0.187962
84 1 2.55413 8.16688 9.17034 0.388995 0.504466 -0.0843135
85 1 6.13617 0.0473087 0.216166 0.74082 1.33829 -0.603938
86 1 1.88913 2.6647 2.19081 -1.08718 0.226596 -0.138541
87 1 7.839 8.11217 9.35316 0.191555 -1.25545 0.148758
88 1 8.44068 1.02244 8.62419 0.0397692 -1.13681 -0.484336
89 1 6.07124 3.10012 3.07433 1.04071 -0.499204 -0.361269
90 1 6.02785 3.11537 8.92994 1.26688 -0.514709 -0.367068
91 1 8.52196 2.10983 2.81926 -0.710482 -1.04939 0.0818497
92 1 6.13551 4.23319 1.4659 0.244072 0.35002 -0.969823
93 1 1.7466 0.785429 7.0352 1.13154 -0.713355 0.667502
94 1 2.29105 8.8215 5.78268 -0.105838 0.0769088 -0.392496
95 1 4.93099 9.27949 9.01418 -1.03956 -0.260527 -0.75991
96 1 1.54735 2.79876 9.13994 -0.156405 0.849446 -0.33953
97 1 3.16181 4.98873 6.66686 0.727643 0.182149 -0.874165
98 1 9.32144 1.68964 0.955345 -0.153811 -1.04216 -1.04076
99 1 4.78621 0.141843 0.677699 -0.518112 0.822604 0.75761
100 1 7.53762 8.39098 4.04933 -0.269633 0.885163 -0.108595
101 1 7.17704 7.6307 1.97707 0.324774 -0.261395 -0.101298
102 1 9.15485 7.37893 1.88061 0.356782 -0.945393 -0.1484
103 1 5.73404 1.84623 2.50109 -0.29697 -0.28659 -0.448959
104 1 4.01812 8.96691 1.68675 0.168393 0.169979 0.738082
105 1 8.82212 3.45121 2.3954 -1.30676 -0.522491 0.67631
106 1 7.23007 0.703603 2.89634 0.819462 -0.0103454 0.546926
107 1 1.09536 2.85999 3.92935 -0.961383 -0.312579 0.305964
108 1 8.91621 0.736792 4.73985 -0.583235 0.566488 -0.167889
109 1 2.67361 6.34457 6.82719 1.21615 -0.483245 -0.476585
110 1 1.01141 6.16851 8.99254 -0.73776 -0.822677 -0.33893
111 1 5.39592 5.73654 3.68673 0.486959 -0.137745 -1.01137
112 1 5.15775 7.10051 3.14643 -1.47297 1.53741 1.37047
113 1 5.04903 3.7207 5.59231 0.17074 0.324223 -0.724596
114 1 0.273332 3.26758 1.93065 -0.53906 -1.48961 -0.940161
115 1 2.24146 0.0345416 4.23434 -0.403802 -1.04165 -1.48249
116 1 4.32106 0.053151 2.5195 -1.25768 -0.5243 1.26224
117 1 2.00961 4.31272 5.14656 1.33694 1.00215 -0.036543
118 1 1.32312 8.07511 6.474 -0.465648 0.856254 -1.58381
119 1 7.9288 3.31071 6.99931 0.862475 0.445203 -0.674868
120 1 7.479 6.20062 8.57867 -1.04113 0.00908267 -0.433317
121 1 0.397776 4.04967 5.38509 -0.168996 0.210645 -0.397566
122 1 5.14674 8.91263 2.72309 0.917853 -1.07369 -0.114771
123 1 7.44901 0.923552 3.67688 1.20654 -0.252455 -0.999135
124 1 8.20639 2.97335 2.1473 -0.235302 -0.719805 1.11549
125 1 2.87003 4.54038 9.30785 -0.315181 0.728896 -0.205937
126 1 1.34561 6.98826 8.76781 -1.2731 0.679456 0.743433
127 1 3.36604 4.35677 5.14852 -0.832175 -0.174305 -0.693096
128 1 3.55588 1.2909 0.520574 -0.908385 -1.41655 -1.12996
129 1 5.33857 6.1398 0.208017 0.145041 1.02037 0.286414
130 1 1.57898 7.70511 0.276313 -1.25816 -0.415213 1.06949
131 1 7.18938 2.44923 3.71456 0.633877 -0.37342 -0.280662
132 1 6.59033 3.724 8.30124 -0.421191 1.07984 0.760591
133 1 4.57915 2.50355 8.0519 -0.573227 -0.0199621 0.772708
134 1 3.57225 1.35924 7.46572 0.294852 -0.870736 -0.566674
135 1 3.00832 9.06057 4.39607 0.0910396 0.114511 0.492819
136 1 1.90206 8.55114 4.87235 -0.134554 0.0982084 -0.479116
137 1 1.28243 3.81815 5.25869 0.701099 0.689538 -1.46598
138 1 7.66684 7.90221 6.56692 -0.730128 0.20018 -0.11799
139 1 1.24346 0.615101 3.15055 1.10353 -0.0293766 -1.44053
140 1 5.16028 0.759204 8.53079 0.960597 0.356937 -0.430119
141 1 0.338363 1.65376 0.0166366 -0.406385 1.5224 0.0697525
142 1 4.04009 8.07985 8.02417 -0.57426 -0.26085 0.844079
143 1 6.11851 9.11927 4.03729 0.811944 0.555315 0.302039
144 1 2.23526 7.99205 6.41013 -0.0411323 0.122394 1.44891
145 1 7.8601 1.76433 5.92228 0.968502 -0.631055 0.4111
146 1 5.15177 5.7875 8.50034 1.41284 -0.217252 -1.04673
147 1 2.64604 7.08675 0.906171 0.501443 0.0808516 0.671534
148 1 5.46068 0.425652 4.31524 1.27636 0.0663598 -0.0691016
149 1 4.14217 3.86172 9.25543 0.758558 0.788642 0.206066
150 1 5.75387 7.96479 3.37487 0.799535 -0.0987956 -0.331667
151 1 7.40014 7.84503 8.25618 0.941158 0.29433 -0.790217
152 1 7.08876 6.72743 4.15743 0.859086 0.352157 1.63241
153 1 1.68933 5.25304 3.73402 -0.963767 -0.438416 -0.0680561
154 1 1.97064 4.39343 4.12328 1.27315 0.561877 -0.266221
155 1 5.35452 5.09732 5.42711 -0.548866 1.28416 0.498261
156 1 7.08421 3.86679 7.16683 1.40326 -1.15242 -0.158877
157 1 4.60952 9.25744 3.60918 -1.62268 1.13651 0.113905
158 1 4.90648 5.21057 3.15296 -0.124377 0.477489 0.768034
159 1 2.87129 2.49956 7.36561 -0.413602 0.579862 0.559937
160 1 3.57437 0.991274 8.6669 0.480825 -0.50812 0.0219192
161 1 2.4045 1.33498 3.9192 0.701565 1.1067 -0.124632
162 1 6.56652 1.22249 5.19864 0.582961 0.787721 -0.504405
163 1 2.2649 4.65476 1.3234 0.735751 0.496007 0.224537
164 1 7.31706 7.6705 3.4214 0.255961 0.0103957 0.54702
165 1 3.18488 2.51078 0.508888 0.030762 0.21997 -0.501955
166 1 1.55857 6.892 5.7771 -0.686451 0.751794 0.916403
167 1 6.5895 8.82294 5.88662 -0.858171 0.541256 0.550973
168 1 6.64052 5.28935 2.48182 -0.41918 0.110799 0.687902
169 1 4.0416 4.43248 8.52081 0.0225297 1.29252 -0.674216
170 1 0.163476 1.78939 3.32109 -0.863785 -0.29181 0.59268
171 1 8.99974 3.79711 8.6287 -0.59135 0.0132919 -0.229058
172 1 0.570157 8.50403 0.00662761 0.690084 0.282402 -1.21049
173 1 6.01851 4.56951 0.219425 -0.477238 0.514004 0.658943
174 1 6.96872 7.98616 5.39465 0.988413 -0.422151 -0.0806794
175 1 3.44323 8.00468 0.623502 -0.380434 0.547686 0.775176
176 1 5.85545 3.02297 6.78104 0.760502 -0.294153 0.117757
177 1 0.0809268 3.18003 3.97915 -1.39069 1.27398 0.452634
178 1 1.69298 7.12156 3.05438 -0.138993 -0.640159 -0.663134
179 1 6.39918 3.03617 0.54576 0.562015 -0.0747445 -0.204093
180 1 8.15108 3.65731 8.65659 -1.13845 -1.34003 -0.204547
181 1 5.7374 5.31053 8.9564 0.179991 0.600958 -0.232192
182 1 9.11808 8.59293 5.73504 -0.870582 -0.401382 0.907735
183 1 7.78379 3.4336 4.83218 1.50835 -1.13726 -0.0746365
184 1 2.28784 2.71625 5.79005 -0.338292 1.27405 0.599585
185 1 6.86897 7.74316 6.28605 -1.25796 0.304038 -0.440802
186 1 1.32987 7.59686 8.06344 0.38406 -0.23962 -0.0260811
187 1 6.63401 7.92536 2.64872 -0.593881 0.439781 0.610601
188 1 1.09774 1.97116 3.95542 -0.0516751 0.280359 -0.0145703
189 1 7.42028 2.34682 6.46159 0.0119871 -1.19465 0.232037
190 1 0.868655 2.23738 5.02149 1.12121 -0.84955 0.299631
191 1 0.0391399 1.14781 8.71473 0.588789 -0.430617 0.586812
192 1 2.70535 0.617611 6.19931 1.75611 -0.744782 0.881569
193 1 3.12602 4.16098 4.07446 -1.38357 0.0155337 0.197258
194 1 3.66467 8.7977 7.38379 -0.145874 -0.507399 0.232818
195 1 5.70312 3.89856 3.61957 0.326419 0.346261 -0.182416
196 1 3.45995 1.73815 3.68796 -1.24057 -1.07088 -0.695436
197 1 9.13954 7.54193 4.15258 -0.718422 -0.341201 -0.732501
198 1 8.01476 5.29853 7.3573 -1.21321 -0.0653628 -1.3579
199 1 4.57698 3.09334 3.79453 -0.135648 0.774845 0.594957
200 1 6.8977 6.03987 0.68353 1.22843 -0.637597 1.0995
201 1 4.81918 1.76313 5.97175 -1.1647 -0.244928 2.10158
202 1 5.35645 7.43866 0.775456 0.416969 -0.59053 -0.455531
203 1 7.76765 0.492297 8.75343 0.535093 -1.17933 -1.03137
204 1 6.4629 8.64919 5.0438 0.875066 -0.499195 0.453384
205 1 7.36254 4.13284 2.77432 -1.91539 -0.139597 -0.512293
206 1 1.22377 1.14503 1.58483 1.1843 0.0457149 0.825002
207 1 7.1493 7.61014 4.43954 -0.720226 -1.38223 -0.69242
208 1 3.17373 0.87535 5.44533 0.475323 0.333168 -0.670185
209 1 5.67716 3.72099 2.49305 2.76253 -0.481439 0.299644
210 1 1.14981 0.734735 7.71885 0.98878 0.948989 -0.316242
211 1 4.26038 5.94853 7.86205 1.03294 -0.728533 -0.744636
212 1 7.57493 0.0838584 5.91849 0.339513 -1.18595 -0.0702898
213 1 0.238611 8.10687 1.7724 1.58176 0.677531 -1.02527
214 1 9.35827 1.19508 1.89086 -0.83092 0.66363 -0.150945
215 1 6.95355 5.48403 6.36898 -0.227587 -0.187344 0.385911
216 1 5.40275 8.3923 4.00745 -0.491092 0.211788 -0.0407387
217 1 8.32877 4.08319 7.68209 -0.645618 -0.207081 0.816707
218 1 3.29345 0.793043 3.68553 0.737982 0.590704 -0.0495278
219 1 0.121658 7.06948 4.9837 -0.461214 -0.152581 0.386995
220 1 2.05651 7.84894 3.06408 -1.15303 0.632051 0.189014
221 1 0.33312 1.13248 7.46293 -0.11529 0.0657865 1.06353
222 1 8.15119 2.03131 1.98238 -0.233514 -0.185303 0.152081
223 1 9.17424 7.99115 6.89583 -1.3271 0.0302436 0.651342
224 1 6.95156 5.85822 4.55374 -0.953518 1.06599 0.00263295
225 1 9.31002 0.5056 5.57059 -1.4929 0.190414 -0.680838
226 1 1.81114 8.81353 2.81456 0.0147824 0.620132 1.42274
227 1 2.72626 6.69966 2.4375 -0.435985 0.505383 -2.06976
228 1 1.84869 4.86747 7.57993 0.774556 0.0851126 -0.318789
229 1 9.21632 1.50033 5.20728 0.237228 0.583979 0.367071
230 1 6.06774 4.00458 6.76927 1.12557 -0.134021 0.551521
231 1 0.479811 8.05046 6.02054 0.564617 0.293702 -0.117185
232 1 5.87059 4.5175 8.54495 0.28013 0.813529 0.330044
233 1 5.73371 6.68939 8.35302 -0.0956289 0.236781 -1.10028
234 1 3.66568 6.04402 9.22142 -0.654474 -0.974674 0.999305
235 1 9.13968 2.91664 9.08995 1.28556 -0.0438548 1.03521
236 1 2.45262 6.31187 1.62977 0.428778 0.366133 -1.22158
237 1 7.71206 4.47416 3.50681 -1.75603 0.230166 1.04447
238 1 2.65423 6.8234 7.6808 -0.345402 -0.947357 0.823782
239 1 4.74515 6.3669 3.38363 -2.13358 -0.95821 -0.356256
240 1 9.29204 4.47616 7.72978 -0.799071 0.789956 0.931746
241 1 3.63488 4.62737 2.37954 0.157982 0.826749 0.0817337
242 1 7.68183 3.07861 1.19542 -0.0221317 -1.41417 -0.615468
243 1 4.57205 8.52054 2.21227 0.702782 -1.4985 0.295532
244 1 2.99204 9.31628 8.78253 0.178859 -0.81294 -0.779744
245 1 4.67016 6.66928 4.53324 0.797761 -0.267729 1.64373
246 1 8.27096 0.485797 2.85372 -0.782907 -0.42396 0.463091
247 1 4.97688 1.20397 2.11834 0.977881 0.526378 -1.02638
248 1 4.18979 8.03133 9.28924 1.07426 0.688233 -0.667231
249 1 3.58886 2.53171 5.62908 -0.262364 0.127646 0.969229
250 1 6.87209 1.96094 7.72149 0.250581 -0.392659 -0.108773
251 1 5.67756 2.48033 0.142003 0.378083 1.23037 0.561983
252 1 9.25546 1.41678 4.27607 0.648007 -0.433225 -0.132631
253 1 3.91905 5.00292 1.50211 0.737878 -0.467686 -0.824322
254 1 8.93447 8.64641 1.68023 -0.436444 0.87745 -0.755783
255 1 4.60723 4.97264 7.95719 0.68407 0.973155 0.250961
256 1 3.95729 2.34775 3.98303 0.887391 0.356305 1.74841
257 1 6.47787 2.26612 6.70689 0.310616 0.0285957 0.459467
258 1 6.27695 8.92366 7.65079 1.01096 0.877137 -0.915716
259 1 0.20642 2.01922 7.75568 -1.02766 1.37933 -0.524738
260 1 0.781335 2.61206 0.288521 -0.240147 -0.618875 0.2279
261 1 9.41019 7.64914 3.24747 0.391123 0.533738 0.833642
262 1 0.755974 0.389632 9.10616 0.691803 -0.475455 -0.254503
263 1 0.485307 8.82374 5.27888 0.766489 0.922432 -1.14126
264 1 8.97365 9.01256 0.163918 -0.412003 -0.643728 -0.115778
265 1 1.06272 1.89714 7.45726 0.264115 -1.13246 -0.507083
266 1 3.6907 2.79738 4.75927 0.140046 1.26641 -0.117799
267 1 0.345823 3.02149 8.2798 -0.0566191 -0.542339 -0.757687
268 1 3.34498 8.20201 4.37823 -0.469014 1.29634 0.621296
269 1 2.06761 3.06983 3.85378 0.938698 1.34653 -0.51008
270 1 8.41047 3.16724 3.96386 -0.030443 1.22585 0.251548
271 1 3.00412 7.36503 6.96347 0.774556 0.962342 0.00609101
272 1 5.39435 3.93444 4.5893 0.0985541 2.23195 0.917078
273 1 2.00829 3.2133 7.02894 -1.25045 -0.285929 0.875932
274 1 5.74737 4.48929 6.08433 -1.57651 -0.286213 0.173954
275 1 2.22002 5.56378 6.73429 -1.52989 -0.00635883 0.0257103
276 1 3.04202 1.7356 4.42527 -0.445149 -1.33545 -0.229554
277 1 7.21432 1.58217 7.01519 1.21757 0.679181 -1.34822
278 1 1.95094 5.49321 1.35349 -0.111678 0.502669 0.710186
279 1 3.61734 9.11721 5.0348 0.119263 -0.0727265 -0.241143
280 1 5.00205 0.127311 7.98708 -0.11321 -0.840849 -0.682011
281 1 0.63266 7.78816 8.591 -0.895571 -0.202248 1.17098
282 1 4.31429 6.24311 0.660021 -0.465671 0.523698 1.28981
283 1 1.14498 9.3324 7.11541 -0.437038 0.372299 -1.68812
284 1 7.76622 3.40926 0.317216 0.234291 0.151406 1.38234
285 1 7.65417 3.61129 1.98973 -0.0280086 -0.529455 0.770549
286 1 5.53259 1.96144 5.37923 0.384445 0.169366 -1.24322
287 1 7.52612 5.21702 1.257 -1.16631 -0.428082 0.156562
288 1 9.19955 8.04348 8.10515 -0.262989 -0.986573 0.489196
289 1 7.41054 0.671755 6.72155 0.627268 0.0433994 0.313865
290 1 8.51888 2.22275 1.0589 0.205077 -1.43855 0.622732
291 1 1.79539 3.88827 1.22779 0.889991 0.145491 0.0614353
292 1 7.65055 7.30459 8.8842 0.305856 -0.772598 -0.440823
293 1 7.0763 9.00833 6.66238 -0.181432 1.172 0.180347
294 1 2.84185 6.9755 3.4805 0.494015 -0.109022 0.0745637
295 1 0.243338 5.80329 8.83092 -0.209083 -0.177083 0.445519
296 1 2.13714 7.13109 3.96089 -0.2507 1.87404 1.07404
297 1 8.8649 5.76509 4.56495 0.452442 1.47441 -0.78158
298 1 2.31154 3.50096 5.1802 -0.310211 -1.64 -0.153888
299 1 4.0193 3.3326 5.9349 -1.5779 -0.858116 1.13579
300 1 4.65492 7.40053 5.26278 0.233335 -0.57579 -0.270174
301 1 1.65203 3.52616 4.51301 -0.352168 -0.136078 0.378517
302 1 8.8388 6.5351 1.63332 1.08247 -0.107243 0.919167
303 1 2.57447 9.15531 2.41198 -0.403137 -0.0580419 -0.182984
304 1 5.82388 6.34482 4.13922 0.79863 0.559124 -0.0650471
305 1 9.03875 7.424 8.71721 0.171145 -0.0890382 0.024263
306 1 8.49336 7.18666 3.41948 0.595515 -0.277398 -1.01575
307 1 8.93014 4.08599 3.40399 -0.0871255 -1.59641 -0.193937
308 1 0.858151 1.32132 8.36378 0.0834945 -1.56732 -0.223512
309 1 4.12442 7.2002 6.84106 0.312932 -0.314813 0.107809
310 1 7.76126 5.376 3.80623 -0.789905 0.797452 -0.75004
311 1 8.36909 7.39269 6.44796 0.681241 0.131278 0.250165
312 1 4.39745 0.786205 9.29037 -0.439436 0.0235377 -0.0054045
313 1 1.80918 0.13475 7.97105 0.205568 1.52384 -0.381986
314 1 2.59661 3.07524 0.924538 1.43516 1.00237 -0.316481
315 1 7.23067 9.21591 4.14416 1.6118 0.219716 -0.441105
316 1 5.52807 3.14108 4.22385 0.435867 0.532367 -1.62127
317 1 7.85207 1.77886 3.75189 0.36115 -0.169213 -1.69632
318 1 2.85667 6.10332 3.44212 -0.743888 -0.879688 0.519201
319 1 6.75616 6.99606 5.7508 0.279334 -1.01176 -0.754496
320 1 6.56118 3.83413 3.37806 -0.560585 0.207128 0.998121
321 1 1.14251 8.04844 1.60736 1.10526 0.0267419 1.74598
322 1 3.88751 5.51067 0.651242 -0.390728 0.463013 0.158429
323 1 6.13546 7.5725 5.73608 -0.372627 -0.0596354 -0.229666
324 1 4.60339 2.09525 2.40391 -0.322897 0.33914 0.573325
325 1 4.13449 5.01731 6.83562 -0.261457 1.13793 0.810271
326 1 0.296445 6.04298 2.86251 1.55186 0.380522 0.843458
327 1 9.02504 2.56037 6.97874 0.687506 0.0489969 0.889051
328 1 5.17537 8.08489 4.77887 0.122738 1.02322 -2.16307
329 1 7.2927 1.39333 4.4138 -2.19077 -1.0469 1.27503
330 1 4.40401 6.23508 1.69512 0.163025 0.556409 -0.542201
331 1 8.9074 1.98303 9.32473 1.74307 1.4433 1.31513
332 1 0.904543 6.75022 2.53285 -0.0312481 -0.545075 1.02922
333 1 7.07001 8.44589 7.5052 -1.37229 -0.966025 -0.752359
334 1 5.56406 3.79497 9.2898 -0.899794 0.118733 1.22698
335 1 2.45267 8.10362 0.818412 -0.287757 0.599587 0.341975
336 1 6.03069 5.33438 6.10067 0.55676 1.26846 -0.34738
337 1 2.10817 9.26181 6.8344 -1.70668 0.433978 -0.236635
338 1 5.24865 2.71799 2.13591 -0.210654 -0.783982 -1.15604
339 1 6.89997 3.69445 5.53934 0.132791 0.625241 1.19349
340 1 2.0226 6.49676 0.610082 -0.530682 -0.368204 -0.32809
341 1 5.06242 5.30339 6.22759 0.817142 -0.468361 -0.837409
342 1 3.50853 8.82884 5.89888 -0.749729 -0.5996 0.988902
343 1 0.895985 7.90995 7.26489 -0.446974 0.806122 1.1337
344 1 7.51236 8.5514 5.97162 0.390969 -0.975949 -0.749971
345 1 3.41557 1.06675 6.56621 -0.571236 -0.28615 0.19378
346 1 7.38285 1.15329 1.9742 -0.830757 0.465392 0.84729
347 1 2.79984 9.09458 7.68459 0.32204 1.39006 0.632659
348 1 6.49543 7.18267 1.06696 0.343781 0.587436 0.0093222
349 1 1.57404 0.571792 2.17086 1.60593 1.17175 -0.585893
350 1 6.66571 4.73737 7.09974 1.42376 -1.78261 0.674804
351 1 2.28034 7.17952 9.28189 -0.364086 -0.138802 -0.263955
352 1 1.09819 6.51854 3.4375 -0.211321 0.351783 -1.11615
353 1 3.16985 7.25607 0.0841891 -0.118972 0.773566 0.630905
354 1 2.08725 8.99374 8.80412 -0.632782 -0.767209 -0.12524
355 1 3.44249 9.04471 3.0041 -0.966391 0.407521 0.746902
356 1 8.45575 2.94553 7.92012 0.0243621 -2.09932 0.110463
357 1 2.19061 1.54239 0.546132 -0.270421 -0.0354735 -0.281578
358 1 7.56632 6.10139 3.35366 -0.0720466 -1.03362 -0.433627
359 1 2.31328 8.15709 2.19848 0.46699 -0.133696 -0.888953
360 1 2.86103 2.70855 4.18453 0.79711 0.290528 -0.834006
361 1 6.26459 8.74905 3.17834 -0.31716 -0.791907 1.15405
362 1 0.396233 8.70466 6.65444 0.699306 -0.434918 -0.575185
363 1 6.06418 6.39033 9.22225 0.657096 0.792563 -0.503613
364 1 2.74592 2.39142 2.44999 -0.998039 0.59057 -1.50941
365 1 0.715721 7.53464 2.35353 -0.170836 -0.243632 1.13452
366 1 3.50756 2.30358 1.82002 -0.876806 0.372225 -0.288038
367 1 2.3806 2.95182 8.02497 -0.468661 -0.469047 0.173539
368 1 6.23135 4.47755 4.44928 -0.0463077 -0.783909 0.221789
369 1 0.215801 3.4885 2.89918 -0.164408 0.365346 -0.0400121
370 1 4.35497 1.44635 1.46418 -0.257363 0.155126 -0.677062
371 1 2.87503 2.44178 5.0665 1.35458 0.280166 2.18565
372 1 5.65793 2.20484 6.2256 0.247755 0.433636 1.80814
373 1 5.15921 1.72715 8.1519 -1.04277 0.282223 -0.365045
374 1 3.43187 5.18609 8.63567 -0.8397 -0.00557902 0.0248189
375 1 0.440476 2.2035 6.71898 0.251039 0.0291751 -0.0951088
376 1 3.17467 2.84742 6.40348 -1.31584 -0.105839 -0.749783
377 1 5.20055 8.09843 1.66716 -0.175217 -1.64445 1.36783
378 1 5.5914 7.63256 2.44314 0.23689 -0.602931 -0.897648
379 1 6.38427 3.37854 7.48033 -0.518638 0.28542 1.32188
380 1 5.09209 0.840795 1.16645 0.00590756 -0.475094 0.326756
381 1 4.37022 5.19704 5.17652 -0.150662 1.05872 0.347786
382 1 1.37651 3.45 0.54542 -0.305548 0.741503 0.319489
383 1 0.219678 6.73367 7.15458 0.547725 0.511001 0.0214663
384 1 2.06258 5.17531 0.262511 0.511864 0.432995 -0.24497
385 1 0.386069 5.11686 1.26751 0.451643 0.0555324 -0.222691
386 1 8.24635 6.826 5.75247 0.690947 0.577627 -0.0715917
387 1 6.06707 0.498516 7.59779 0.350014 1.37289 0.641738
388 1 5.24369 1.87255 1.61906 -0.52489 -0.0578856 0.131937
389 1 7.75682 5.17828 4.79339 0.823492 -0.128471 -0.186378
390 1 6.95885 1.79569 2.85034 -1.07533 0.603556 0.655991
391 1 3.63948 6.61952 3.42006 0.298794 0.260858 0.176144
392 1 8.13244 0.445611 7.35749 -0.124009 -0.670238 0.365253
393 1 3.29593 3.78142 8.525 -1.18399 0.205829 -0.323155
394 1 1.31004 0.681576 4.64414 0.500786 0.0859177 0.46434
395 1 5.23616 7.33733 3.9849 -0.58098 -0.542759 -0.267336
396 1 4.12613 6.90281 5.99244 -2.06177 -0.941777 -0.235079
397 1 0.608556 5.66697 7.9864 1.18005 1.09869 0.767991
398 1 7.89323 8.24106 2.80091 -1.05155 -0.611725 -1.01702
399 1 9.10178 5.53471 7.98817 -0.39462 0.163183 0.423512
400 1 4.29572 7.04946 1.3326 0.229611 -0.171631 0.31328
401 1 1.45704 6.04756 5.3132 0.210185 -1.02803 -1.13001
402 1 8.78149 0.28117 1.82901 -1.73295 0.918012 0.391327
403 1 6.01378 8.2078 6.48239 0.949414 -0.0511652 1.07699
404 1 5.70349 5.13904 6.98453 0.77866 -0.978887 -0.70412
405 1 8.55843 6.40022 6.5446 -0.969495 0.510659 -0.0489423
406 1 2.40708 1.60611 2.64831 0.597045 1.28427 -0.168648
407 1 0.326771 6.84943 3.99127 0.379793 0.702546 1.06421
408 1 3.74893 2.32021 7.8726 0.204972 -0.766724 -0.290527
409 1 4.6095 7.36155 8.59288 -0.458678 0.193534 -0.341263
410 1 3.46104 1.7463 5.27848 -0.283475 0.14894 1.37104
411 1 5.25141 8.62061 7.92566 0.931348 0.116336 -0.51203
412 1 5.65989 5.10006 7.94783 -1.58923 0.586804 0.400093
413 1 5.18051 0.961153 0.354556 -0.0351145 0.0513724 -0.869805
414 1 6.72088 3.63216 2.28757 -0.22215 0.200996 0.380141
415 1 4.3691 2.80071 1.34965 0.607043 -0.268369 0.645679
416 1 3.70076 7.36813 5.20272 0.14136 -1.33668 -0.414478
417 1 1.47527 8.73451 0.62944 -0.140837 -0.0358974 0.266628
418 1 9.34241 5.56364 0.247338 0.40683 -0.711016 -1.01574
419 1 4.81595 5.5974 7.12469 0.518566 1.0715 -0.236606
420 1 6.89351 6.79971 0.308954 0.584057 -1.21421 0.0866298
421 1 5.72148 6.26095 2.99899 1.28156 -0.544809 0.617315
422 1 5.79958 5.34829 2.92421 0.0396959 -0.761967 0.632096
423 1 8.26442 2.8268 5.23693 0.429522 1.20452 -0.21642
424 1 8.24865 8.96202 9.14448 -0.745762 0.103406 -0.884263
425 1 4.51743 0.412665 1.73214 0.855336 0.60617 -1.09411
426 1 6.70302 4.83349 8.07132 -1.48279 -0.562226 -0.0503279
427 1 4.66738 8.45991 8.58868 1.00345 0.574872 -0.512107
428 1 8.31109 3.80743 6.25424 0.644252 1.03957 -1.21652
429 1 6.60774 6.88228 2.20252 0.900812 -0.534684 0.0216566
430 1 8.93995 0.258802 6.74137 -0.688775 0.429225 -0.674213
431 1 5.39309 2.48153 8.57329 -0.425422 -0.20097 -0.0185057
432 1 8.61925 7.33959 4.99424 -0.581789 -1.15391 0.0715704
433 1 8.77715 3.29681 5.74685 -1.97584 -0.125551 -1.40061
434 1 8.58094 6.25631 0.630977 0.0944008 0.11054 1.13794
435 1 3.36092 1.68619 2.5083 0.402862 -0.00679114 0.0144977
436 1 8.80986 3.94333 4.3578 -1.85672 -1.30685 -0.683988
437 1 7.36776 6.94839 7.86608 0.23123 0.340214 0.671244
438 1 5.87461 7.10445 7.41603 1.1088 0.0185706 1.94434
439 1 1.59083 1.6584 2.30012 -0.363749 -1.48063 1.28879
440 1 3.76733 6.69033 4.36819 -0.760465 0.459549 -0.601377
441 1 2.73988 0.919694 2.06042 -0.552032 -0.158986 -0.0954486
442 1 1.44808 7.35618 4.99485 -1.53483 -0.43184 -0.545137
443 1 4.37314 1.04933 6.80655 -2.00044 -0.9358 -0.257245
444 1 4.37156 1.47067 0.446387 0.445444 0.159429 -0.385853
445 1 1.91231 6.25033 4.13553 -0.388454 -0.64215 1.24134
446 1 4.23073 5.3997 8.66411 0.515839 0.85897 0.642582
447 1 0.541567 9.10005 3.28865 -0.850371 -0.241037 0.526667
448 1 0.12235 2.41982 4.57343 -0.660837 0.83826 -0.259058
449 1 1.35819 4.45621 0.476721 0.29825 0.0613282 1.511
450 1 0.423206 0.270684 4.73152 0.0719226 0.616321 -0.71698
451 1 5.52654 8.92806 4.74466 -0.473138 0.604047 0.353701
452 1 2.31217 5.08999 3.18332 -1.13953 -0.152076 -0.153122
453 1 8.37909 5.67918 1.28735 0.738428 0.970017 1.45292
454 1 7.81173 2.58667 4.41557 -1.00044 0.560485 -1.1988
455 1 5.90821 6.2172 4.96749 -0.0564878 -0.348792 -1.10124
456 1 1.72129 3.61268 5.97838 -0.619112 -0.342981 -0.55937
457 1 8.81765 3.53789 6.99951 0.845834 -0.577706 -0.92586
458 1 8.40418 6.03685 3.71023 -0.750986 -0.259292 -0.976987
459 1 0.130113 4.85459 3.99523 -0.0746689 0.93762 0.00593649
460 1 7.63377 5.42553 2.71785 0.848439 -0.0789994 0.698659
461 1 8.27948 8.35807 5.53139 0.733794 -0.203844 -0.114089
462 1 7.07274 2.72207 7.30575 -1.0956 -0.157254 -1.42448
463 1 8.62248 7.78692 1.27583 0.850908 0.78563 0.762964
464 1 3.69225 3.10329 2.08237 1.28914 -0.787467 0.766082
465 1 0.636027 5.46434 4.55987 -0.868355 0.806884 0.502966
466 1 2.84111 3.02514 1.7577 0.456819 -0.363375 0.0584836
467 1 9.3356 6.44673 8.05695 1.84539 1.6895 0.238801
468 1 7.07377 2.53738 9.22054 -1.17204 -0.594122 2.44564
469 1 1.33559 0.205964 1.30574 0.589182 -0.672344 -0.110056
470 1 8.58992 4.56848 6.9478 0.7792 0.0259703 -0.222246
471 1 0.757023 2.83028 1.40038 -1.68461 0.122012 0.032404
472 1 1.7791 8.77742 3.77785 1.24265 0.879869 -0.335018
473 1 4.02211 8.10616 6.07623 0.939978 0.162037 0.96998
474 1 1.696 1.47526 3.30136 -0.815384 0.638437 -0.520565
475 1 4.01706 3.94564 1.69781 -0.196687 -0.801674 0.361509
476 1 9.25949 5.17234 3.15734 -0.651097 0.793541 -0.118127
477 1 8.00405 2.6001 3.36759 -0.464119 0.842558 -0.41545
478 1 5.82317 0.179491 1.18447 0.376583 -0.570105 0.0545676
479 1 5.55759 9.34464 3.4023 -1.58729 1.80324 0.423821
480 1 4.23485 7.07059 0.211657 0.508119 0.0383511 -0.475434
481 1 2.22603 7.63607 8.49411 -0.0258885 -0.069303 -0.476457
482 1 1.13079 6.9664 7.39074 0.123458 -1.86911 0.805909
483 1 3.99736 1.31651 4.26727 -0.559043 -0.148542 -0.846815
484 1 3.69323 5.04322 7.78764 -0.495462 -0.486205 -0.432904
485 1 4.34381 0.97359 8.22528 -0.0959263 0.147628 -0.464706
486 1 7.1628 3.42778 8.89687 -0.208537 -0.392971 -0.988871
487 1 7.29678 2.42046 0.687413 1.75858 0.485675 0.809659
488 1 2.19294 1.86193 7.68939 -0.422569 -0.0998981 1.39428
489 1 0.00802613 2.042 8.59035 -1.55268 0.420743 0.70157
490 1 1.11545 9.02944 6.07039 1.26373 -0.07503 -1.61037
491 1 5.49125 1.44345 4.42299 -0.0607976 -0.949488 1.28179
492 1 3.27485 8.95051 0.90656 -1.41682 0.653526 0.196822
493 1 0.978578 6.60017 4.50258 1.13126 0.340086 0.0174799
494 1 4.38058 3.76573 7.4837 -0.270369 -0.122108 -0.270327
495 1 6.90109 0.243605 8.61954 -0.0564231 0.983039 1.68066
496 1 0.0432518 1.18902 6.35812 1.0053 -0.634929 0.61893
497 1 8.32492 7.07041 8.00116 0.275704 0.893697 -0.648404
498 1 0.881417 1.50473 0.66738 2.09542 0.167585 0.465578
499 1 9.34399 6.88073 2.54079 -0.508749 0.0958822 0.694396
500 1 2.12269 1.19503 6.30646 0.841912 -0.920259 -0.270841
501 1 8.8007 4.91179 1.33606 0.7828 1.02091 -0.176527
502 1 8.00975 1.21029 5.16083 -1.06623 1.52487 -0.640962
503 1 3.59535 3.22569 1.12048 -0.882669 0.806529 1.19875
504 1 6.06231 2.33295 7.89128 -0.237551 -0.56089 -0.28245
505 1 9.39292 7.24607 7.83035 0.72913 -0.151515 -0.310248
506 1 2.61814 9.0404 3.41908 0.276563 -0.154095 0.453936
507 1 0.193636 4.32503 2.83547 0.127512 0.0187308 0.948999
508 1 7.45561 6.61155 5.06184 -0.0758502 -0.523955 0.642537
509 1 1.38342 5.14213 9.17664 -0.494922 -0.161827 -0.0419646
510 1 0.81652 5.60737 5.9082 0.797068 -0.0883028 -0.146713
511 1 8.80994 4.19275 5.48284 1.16697 0.254093 -0.612034
512 1 3.16643 1.80701 8.28787 -1.28415 0.941526 -0.579462
513 1 5.83169 5.70388 1.24281 -0.245684 -0.291068 0.182072
514 1 5.30096 4.94363 4.57282 -0.239575 -1.00695 -0.438701
515 1 1.2865 8.2803 8.94533 0.072754 -0.887178 0.268075
516 1 6.05321 1.13106 0.309014 -0.835104 0.583906 0.165496