ITEM: TIMESTEP
31800000
ITEM: NUMBER OF ATOMS
1000
ITEM: BOX BOUNDS pp pp pp
0.0000000000000000e+00 9.4000000000000004e+00
0.0000000000000000e+00 9.4000000000000004e+00
0.0000000000000000e+00 9.4000000000000004e+00
ITEM: ATOMS id type x y z vx vy vz
1 1 3.70433 6.93261 4.2455 -1.33041 -0.11579 -1.03332
2 1 1.03437 8.84641 0.152662 1.69668 -0.658109 0.00432889
3 1 9.12629 3.51586 0.359261 -1.4947 -0.287548 0.082489
4 1 2.63415 7.13127 8.90169 0.0624652 -0.732509 -1.0612
5 1 8.86292 1.79423 7.60452 0.376133 0.191784 -0.574931
6 1 3.81097 6.33543 9.29475 1.22422 -0.698268 -0.63231
7 1 0.0300548 3.10383 1.40944 -1.11039 -0.519812 -0.467327
8 1 8.64737 1.1133 3.19266 0.558648 0.460048 0.119567
9 1 8.51771 8.83637 5.53206 -0.42045 -0.262266 0.0154353
10 1 2.62741 9.21871 2.00819 0.807906 -1.46789 -0.359312
11 1 4.63359 3.28026 1.56725 0.717278 -0.230859 -0.942584
12 1 3.78148 0.335407 8.14199 0.742329 -0.860414 0.186168
13 1 5.26365 6.35117 8.40467 -0.91002 -0.689478 -0.177742
14 1 2.07532 2.49789 3.52404 1.17845 0.483709 -0.164214
15 1 8.79103 2.98385 8.94605 0.199331 0.584904 0.667423
16 1 7.23327 0.561494 7.82948 -0.268012 0.618325 1.45055
17 1 0.0588762 3.38751 8.44862 -0.146269 -0.132888 -0.168034
18 1 1.63257 4.95853 4.55619 -0.278682 -1.93482 -0.34677
19 1 0.547029 2.70726 9.14269 -0.338127 0.37362 0.456733
20 1 5.28788 0.521938 8.3242 -0.178732 -1.7184 -0.677728
21 1 8.61196 7.88832 5.07386 -0.994744 0.0533256 0.364094
22 1 0.598288 8.94211 3.64242 0.782181 -1.12894 -0.1591
23 1 7.59553 2.19053 0.71069 0.451131 -0.0959697 0.269709
24 1 9.29472 2.32528 3.48641 -0.736682 -0.453013 0.178847
25 1 2.81285 3.95442 8.00622 -0.197581 1.49497 0.10174
26 1 0.826057 0.699197 1.80465 1.74756 1.52619 0.726516
27 1 6.51245 4.27234 3.47273 0.755166 -0.672581 -0.741404
28 1 2.51057 4.34185 4.55425 -1.26359 1.12185 -0.188427
29 1 4.91239 0.941141 0.335605 1.867 0.553685 0.922249
30 1 3.49263 7.27527 8.57105 -0.912328 -0.863757 0.819652
31 1 1.11663 5.323 3.42357 0.778635 0.262847 -0.758568
32 1 2.43944 3.39504 5.07462 0.31512 0.596414 -1.15198
33 1 2.80317 8.41955 4.8113 -0.474333 0.808954 -0.567985
34 1 1.81775 6.96377 2.47985 -0.530277 -0.697422 -0.836999
35 1 0.429705 7.90887 5.56737 -1.26252 -0.909927 0.741049
36 1 1.23817 0.185001 3.2349 1.05402 -0.573846 -0.405875
37 1 4.9177 4.004 4.02302 0.165997 -0.452992 -0.122375
38 1 0.956419 2.17014 5.12717 -0.397862 -1.85919 -0.710534
39 1 3.05556 0.874722 2.00498 -0.43265 0.0168431 0.156591
40 1 0.504264 1.18346 5.58069 0.281711 -0.452588 0.386214
41 1 1.28619 7.66884 5.5856 -0.590987 -0.722565 -1.02637
42 1 4.03745 0.0578529 2.17752 -1.15031 0.591894 -0.398345
43 1 1.61573 1.81786 5.73677 -1.03756 -0.233022 -0.763896
44 1 5.7133 1.49779 0.0256934 -0.804567 0.471969 -0.171622
45 1 6.05352 3.067 6.79385 -0.727445 -0.369894 -0.578053
46 1 8.06994 1.68059 1.4634 0.818103 -0.00204931 0.685328
47 1 1.41645 0.292101 2.23613 -0.740775 -0.196052 -0.66589
48 1 8.92753 4.93213 8.67944 0.252937 -0.565353 0.57157
49 1 0.883164 1.30236 8.44052 -0.438309 -0.572393 -0.756048
50 1 5.52682 1.12758 3.72033 -0.0718816 -0.0872644 -0.675372
51 1 1.19475 7.95705 2.54998 0.324859 -0.552181 0.579499
52 1 7.70156 1.39908 3.08351 -0.450808 1.20463 0.424451
53 1 2.22834 6.32369 7.77771 -0.333522 -0.118655 0.47744
54 1 1.60635 5.49955 1.30095 -0.231072 0.173501 0.242461
55 1 4.6367 2.11119 6.03636 0.235611 0.5082 -0.314169
56 1 8.70666 0.56196 1.8913 2.78084 -0.924297 -0.603433
57 1 4.55327 6.43417 6.78697 -0.542183 -0.115881 0.00266739
58 1 2.6995 8.98849 5.38263 -0.971065 -0.567677 -0.033231
59 1 5.24796 5.56296 7.19558 0.892705 0.603346 0.0278656
60 1 5.6033 8.73547 6.90825 -0.159454 -0.96442 0.119335
61 1 0.457522 3.34254 5.69314 0.166487 0.638984 0.0431938
62 1 5.77204 0.742168 5.58579 1.02809 -1.79785 -0.595911
63 1 8.62039 5.29623 6.69308 0.139354 1.42877 -0.167512
64 1 6.0415 5.83403 2.07386 -0.765649 -0.597864 -0.562664
65 1 5.84626 6.71541 2.78928 1.78585 0.840631 1.07818
66 1 9.1705 8.24876 1.42189 0.306571 0.373687 0.0480081
67 1 2.43838 4.74418 1.38679 0.0874387 -0.624174 -0.149945
68 1 2.26851 7.66399 3.927 0.859899 0.968875 1.02101
69 1 3.2363 3.04516 8.705 0.633696 0.490489 -1.04513
70 1 5.07094 6.87611 3.16648 0.681803 0.323659 0.0534831
71 1 2.96899 9.2208 7.90685 -0.172475 0.0622257 0.465849
72 1 6.21769 4.66407 9.29524 -1.23536 0.185708 -0.0968631
73 1 3.17511 4.13716 1.70036 0.732732 0.584778 0.900992
74 1 3.04439 8.89188 9.02022 0.283811 1.02065 1.08073
75 1 1.78073 7.81431 8.10589 -0.261293 -0.637624 0.484373
76 1 1.73026 7.74215 1.28387 0.190082 -0.3015 0.0744159
77 1 0.937146 2.21461 8.20075 0.195948 0.511832 0.238197
78 1 1.32299 6.77768 9.18347 0.0868995 -0.236877 -1.54142
79 1 0.263271 6.79173 7.04379 0.171769 -0.41247 -1.28535
80 1 1.91829 8.94316 6.84433 -0.161544 -1.00463 -0.0989178
81 1 8.38108 8.94497 9.11158 -0.807939 0.59864 -1.18847
82 1 1.66115 1.51648 9.05755 0.458083 -1.29904 0.240927
83 1 6.31738 4.97737 7.7078 -1.39557 0.732002 1.22674
84 1 5.22554 0.0214692 0.532929 -0.104747 0.456096 0.878007
85 1 9.2293 5.94447 8.40016 0.540718 0.109436 -0.072793
86 1 3.1999 7.44461 6.39252 -0.272178 -0.276624 -1.04041
87 1 4.55757 1.98052 6.92719 -0.460786 -1.46311 0.709445
88 1 0.329298 8.85911 1.72257 -0.640114 1.25347 -0.561225
89 1 4.92491 7.49607 3.77706 1.07716 1.76609 -1.53625
90 1 7.7789 8.98228 1.55314 -0.542723 0.101796 0.0143974
91 1 0.668061 1.99668 2.35025 0.573864 0.0676284 0.15341
92 1 4.1994 2.6794 7.39616 0.142498 0.484182 -1.70977
93 1 1.29348 4.13409 4.67978 0.107148 0.436325 -0.139239
94 1 5.00131 0.278143 3.91735 0.332494 0.0966451 -1.01752
95 1 4.59528 9.08425 1.25419 0.730118 -0.664431 -0.321562
96 1 3.10013 6.16697 0.417036 0.456878 -0.965379 0.400521
97 1 8.86895 4.29207 2.76509 -0.075249 -0.475491 0.355981
98 1 0.814934 4.85551 2.49359 0.825912 0.100994 -1.04349
99 1 7.08019 5.00442 9.16508 -0.149516 -1.11333 0.701681
100 1 4.08605 7.7721 3.80711 0.231412 -0.470402 -0.344669
101 1 5.04553 5.17024 3.48815 0.526561 0.416288 1.57926
102 1 9.37052 4.96988 2.14467 0.696137 1.19722 -0.528304
103 1 6.35334 1.82504 2.7468 -3.01643 -0.466414 -0.173032
104 1 0.167379 5.28735 9.10165 1.01295 -0.862909 0.817942
105 1 3.094 4.82176 7.58694 -0.916756 0.585845 0.390453
106 1 3.29614 4.08515 8.77382 -1.81435 1.18053 -0.489888
107 1 6.82864 3.97041 5.63724 0.172332 0.119837 -0.575756
108 1 8.32811 9.34626 0.938698 -0.566771 0.748822 -0.927072
109 1 7.24701 9.00428 0.52036 0.360249 0.42972 -0.385165
110 1 2.62962 8.01739 -0.0233653 1.04096 0.293197 -1.51522
111 1 1.5444 6.93083 0.79961 2.15118 -0.342564 0.743891
112 1 8.62323 1.82319 3.80022 1.52754 1.49389 1.97481
113 1 0.0211274 1.76077 4.26178 -0.244872 -0.609922 0.0248769
114 1 2.70846 2.8286 3.07923 1.03701 1.06905 1.53863
115 1 8.35963 6.7472 3.65769 -2.41091 -0.0926437 -0.803339
116 1 2.02834 7.71912 3.02322 1.6458 0.43698 1.12849
117 1 0.856427 7.92268 7.06048 0.627693 1.09216 -0.576697
118 1 0.299932 2.64414 4.27102 0.610205 -0.748306 0.655419
119 1 0.222955 6.84654 0.312949 -1.22961 -0.210159 0.404683
120 1 0.902879 1.5222 3.81267 -0.983566 0.654461 -0.299415
121 1 0.614075 7.81803 1.77201 1.46741 -0.228475 0.904658
122 1 6.37959 5.45755 5.73123 1.28135 0.397811 -0.580808
123 1 4.21868 3.72082 9.04604 1.11071 0.770573 0.38301
124 1 7.8873 5.94012 4.82679 -0.720594 0.808688 -2.05873
125 1 9.23159 0.0977426 4.36806 1.51481 -1.40468 -0.15925
126 1 8.7067 0.62807 8.92976 0.0281663 -1.67041 -0.400742
127 1 9.12109 3.99611 5.72861 0.797567 0.24541 1.20087
128 1 4.49698 3.01495 5.34541 0.970736 0.417067 0.447655
129 1 6.68045 9.09957 9.12811 -1.0302 -0.628797 -0.468747
130 1 3.94436 3.26216 0.944502 0.695521 -0.00422264 -0.179117
131 1 6.11023 1.11367 8.61583 -1.08143 0.56429 -0.0496218
132 1 1.70746 5.17832 8.86088 1.85186 0.469063 -0.299182
133 1 7.87569 6.75477 4.33735 0.807147 0.191914 0.418105
134 1 3.35183 0.604134 6.32352 -0.0981579 -0.375005 0.872376
135 1 4.60836 5.12162 0.412043 0.4416 1.31562 0.176115
136 1 2.4983 8.23732 8.5021 1.58437 -0.349734 -0.767012
137 1 1.57918 5.24855 7.77151 -2.05263 0.600864 0.203581
138 1 2.59606 5.99592 2.65052 -0.167879 -0.768805 -0.117885
139 1 4.14012 0.0824681 3.82291 0.465344 1.32103 1.14539
140 1 3.43102 1.10838 0.64717 0.217351 -0.140799 -0.477347
141 1 9.20832 6.86515 8.58923 -0.63877 -0.141287 -0.957792
142 1 0.225618 7.80967 6.4769 0.458272 -0.177641 0.564778
143 1 4.96173 6.75912 5.86871 -0.855556 -1.9515 -1.47107
144 1 2.22763 4.58195 7.6586 0.0157857 0.84303 -0.464014
145 1 7.14631 0.647718 2.55475 -0.104629 -0.185158 -0.0410305
146 1 6.69982 6.95221 3.28242 1.07646 0.428259 -0.154676
147 1 2.73204 2.18983 7.07808 0.274164 0.245659 -0.816699
148 1 8.63061 7.08852 0.482118 0.57437 0.359022 -0.101674
149 1 4.55392 4.18854 6.29835 0.0750181 -0.290912 -0.722841
150 1 5.47836 5.30186 0.758989 0.0108503 -0.870249 -0.519132
151 1 4.06295 3.21126 8.14341 1.28975 0.525846 -0.0752113
152 1 1.65235 3.89698 7.98421 0.813849 0.205613 -1.26275
153 1 5.44748 3.87604 7.73528 -1.43374 1.03918 1.34285
154 1 6.43897 6.03157 2.90104 0.0699173 0.847529 -1.41142
155 1 0.608982 2.94673 6.52644 0.649675 -0.493789 0.106842
156 1 4.74082 9.31193 2.97677 -0.322215 0.585319 -0.666377
157 1 6.86015 7.24917 5.20723 0.675283 0.317408 -1.56867
158 1 0.397989 5.64875 2.8897 0.593939 -0.261879 -1.58329
159 1 1.31323 3.46298 6.27836 0.2937 -0.209029 -1.03728
160 1 8.92987 8.20036 2.58388 1.90955 -0.876491 0.93122
161 1 3.48166 8.73283 4.24157 -0.641745 -0.270433 0.0398677
162 1 6.51342 1.01337 4.90365 -1.35887 0.30818 -0.498053
163 1 8.09457 5.94065 9.07315 0.246093 0.232822 -0.336858
164 1 8.50409 3.48433 4.37316 -0.889137 0.73275 0.331725
165 1 0.0752415 4.84308 6.94087 -0.282952 -0.0226146 -0.904005
166 1 1.53646 4.2364 0.805821 1.61907 0.662941 -1.37454
167 1 6.81518 8.7792 1.26495 0.449967 -0.0318843 0.972571
168 1 2.52809 2.77918 9.42572 1.1468 -0.55617 2.31643
169 1 5.1346 6.91728 0.324823 -0.578584 1.88528 1.5779
170 1 3.04274 7.62699 4.57703 0.308065 -0.115076 -0.272676
171 1 3.75547 6.44357 2.23338 -1.7079 -0.976399 -0.315317
172 1 5.45851 1.37448 1.20429 1.12953 0.76048 -1.52637
173 1 0.767474 6.46447 3.56539 0.396592 0.391701 0.276708
174 1 2.29749 5.69077 1.77749 -0.141515 0.407223 0.148393
175 1 8.55129 0.312514 5.41639 -0.183303 -0.536915 -0.30333
176 1 3.55391 2.4618 6.50422 -1.80836 -0.262273 -0.382998
177 1 6.56662 9.09233 2.05996 0.0385225 -0.183493 0.124842
178 1 0.820743 8.50329 4.44511 -1.07563 -0.0296754 0.765266
179 1 6.56829 7.54997 3.951 0.18292 0.456509 -1.28773
180 1 1.14215 7.09779 6.66644 -0.279863 0.380538 0.333181
181 1 8.95651 6.34061 0.889286 0.792659 0.475668 -0.12148
182 1 8.39312 6.65427 2.732 -0.645651 -0.431828 -0.983199
183 1 2.96216 2.42088 5.23397 0.281074 -0.644496 0.011893
184 1 3.34522 8.94016 6.27399 0.733966 -0.140673 0.508281
185 1 0.673545 1.88173 9.1742 0.132338 -1.9144 0.0518126
186 1 8.55466 3.25206 1.91427 -0.632268 -0.0612535 0.944372
187 1 1.68001 5.90163 5.2157 -0.989616 -0.663509 0.579591
188 1 8.40952 4.06143 9.00708 -0.844014 1.66642 -1.1783
189 1 2.36127 8.55975 3.05455 0.565008 0.0722567 -0.60699
190 1 6.07666 9.28021 0.809799 0.407996 -0.58815 -0.794079
191 1 3.64346 2.62949 2.876 0.315499 -0.991077 -0.754011
192 1 0.80482 5.5758 7.26742 0.0370591 0.396719 0.0131782
193 1 0.290954 1.98965 6.04699 0.493061 -2.25274 0.413654
194 1 0.681461 6.21643 1.55014 0.0970175 -1.65263 -1.22844
195 1 2.5877 5.55276 0.913948 1.68523 -0.772154 0.269433
196 1 0.734081 6.29773 6.47818 -0.822343 -0.620629 -0.555147
197 1 9.2155 0.964368 4.80539 1.9505 0.118441 -0.719777
198 1 0.332737 6.49244 4.43803 0.653731 -0.414574 -2.59164
199 1 7.11094 9.20644 7.37389 -0.434895 0.887138 0.937181
200 1 1.28086 9.29503 1.2129 1.83537 1.17421 -0.632742
201 1 5.1505 0.901466 5.00602 0.538499 -0.748389 1.11254
202 1 6.72789 4.6741 4.20456 0.263957 0.312921 0.814538
203 1 6.8291 3.15215 5.92259 -0.907281 0.0914714 1.68307
204 1 4.77636 4.0274 8.18289 -0.460017 -1.07962 0.899993
205 1 2.41338 2.06533 6.06619 -0.23647 -0.927213 -1.02821
206 1 0.76221 0.997649 0.0786733 -0.211464 1.04102 -0.508689
207 1 3.63378 4.60163 2.37669 -1.20324 0.325555 0.57083
208 1 5.80676 2.72825 8.22109 0.156837 -0.0855482 -0.302586
209 1 0.20843 1.7315 6.9757 -0.602296 -0.399577 0.57931
210 1 1.32692 2.37996 4.03617 -0.0853467 -0.701714 -0.840017
211 1 7.34613 8.09864 3.02505 -0.0953961 1.18042 -0.780521
212 1 1.57024 3.72105 5.40782 -0.431251 -1.23541 -0.0482627
213 1 0.18178 5.67182 3.95717 0.173764 0.235412 -0.263554
214 1 0.449436 7.56977 3.80129 -0.322745 0.476436 0.519084
215 1 6.33446 2.09051 8.68974 -0.522019 1.63332 1.17036
216 1 8.78134 0.231308 3.58293 -0.157784 0.242309 -0.496983
217 1 6.93443 0.574986 5.61909 0.968626 -0.0222811 -0.138779
218 1 2.85313 1.87512 2.40819 0.0525908 0.0906114 -0.697109
219 1 0.585059 5.18889 5.30834 0.359625 1.21485 -0.0585243
220 1 2.21259 5.87061 4.54489 -1.39839 -0.883518 1.14728
221 1 7.54662 7.03833 7.79028 -0.641923 1.07564 0.177887
222 1 5.03874 4.19974 9.33199 1.62577 0.695044 0.262377
223 1 4.36152 0.931054 4.12586 0.659173 0.120259 1.0301
224 1 6.7586 8.11006 4.76246 -0.539889 -0.0329265 1.22465
225 1 1.38322 8.30982 8.90032 -0.744095 1.05763 0.292937
226 1 7.40487 4.55751 7.56682 0.0449531 0.679557 -1.37944
227 1 7.26894 3.71726 8.16261 0.246975 -0.257246 0.0269716
228 1 2.79331 9.24248 6.94436 0.30712 1.18308 0.32685
229 1 3.99604 3.52527 6.94493 -0.353817 -1.06294 -0.512911
230 1 0.280054 1.51103 7.77854 0.60135 0.13569 0.183759
231 1 8.72428 2.79033 7.66038 1.56709 -0.0969438 0.828565
232 1 6.54367 3.73155 2.65161 -1.49338 0.10619 0.0514914
233 1 9.12712 7.30237 5.847 0.605001 0.414667 0.552246
234 1 5.47331 0.415004 2.46207 -1.50441 0.500645 -0.80213
235 1 7.51309 3.69157 9.07539 -0.914423 -0.725685 -0.243202
236 1 4.55048 6.01688 2.98155 -0.522269 -1.01696 -0.329666
237 1 8.10663 1.34212 4.40009 -0.610896 0.338983 1.41455
238 1 8.01088 4.44037 8.29781 -1.42424 -0.870068 -0.673781
239 1 6.90592 2.5858 2.47911 0.056037 0.0198278 0.884031
240 1 8.90108 8.18689 8.12929 0.174619 -2.07438 -0.00478237
241 1 5.30097 7.6032 2.64355 0.215477 -0.85909 -0.326781
242 1 4.97794 7.28235 1.27988 0.636061 0.814188 0.490177
243 1 4.43463 2.45322 8.46379 0.151164 0.423314 0.273588
244 1 4.39977 1.5369 5.37933 -0.145653 -0.152246 0.584651
245 1 0.362552 4.30355 8.82357 0.104359 0.501859 0.644312
246 1 4.80476 0.952829 3.11895 0.440299 0.229467 0.680041
247 1 3.44739 3.56773 0.171411 0.974099 -0.0760911 0.313697
248 1 7.05268 8.2572 2.15128 0.547399 -0.272136 -0.800161
249 1 1.6678 8.69602 2.53827 -0.525312 -0.174791 0.591483
250 1 8.36857 2.01415 5.12884 0.345932 -1.13077 0.803001
251 1 3.28563 3.45529 4.52882 -1.16473 0.815831 0.357813
252 1 7.71969 4.32269 5.62636 1.0907 0.971273 -0.69962
253 1 7.09048 7.9631 8.5528 -1.10339 0.533256 0.541081
254 1 6.1844 0.0210871 7.19636 0.218112 0.398739 -0.67415
255 1 0.949131 5.34403 0.846467 -0.536151 1.4883 1.55802
256 1 5.54324 4.65124 7.31461 -0.137969 0.216333 -0.0569803
257 1 7.17699 4.99418 5.95851 0.733476 1.0045 -0.206027
258 1 4.77933 6.44913 1.45086 -0.0861241 0.0884494 -1.09484
259 1 6.50589 3.55949 1.69591 -0.847114 0.223378 -1.33485
260 1 7.59311 1.33506 0.0705083 -0.1717 1.08757 -0.837939
261 1 6.37548 3.78252 0.165911 -1.57822 -0.414869 0.330263
262 1 7.24852 7.98333 7.68736 0.949954 1.03553 -0.94864
263 1 9.14638 4.55325 0.279281 0.129673 -0.374253 -0.723212
264 1 4.2878 7.07056 8.97265 1.60641 -0.14734 1.01621
265 1 4.63841 8.73555 5.03807 0.98483 -0.313274 0.732759
266 1 0.0356015 6.00769 5.2343 0.731087 1.28793 -0.417065
267 1 4.57487 7.46798 7.05506 -0.00725725 1.00836 -0.175186
268 1 0.0135276 1.28174 8.81691 -1.05364 -0.487613 -0.0197513
269 1 1.27984 7.20003 3.18081 0.202701 -0.585944 -0.230316
270 1 0.964356 3.06514 4.78445 0.0947449 -0.479224 0.097224
271 1 5.04341 2.23386 9.18883 -0.732275 0.0341289 0.606504
272 1 7.23612 8.24162 3.85031 -0.859503 1.06526 -0.433844
273 1 1.9766 1.70628 4.093 0.773432 0.658542 -0.212657
274 1 2.3864 3.92894 9.3274 -0.41181 0.178656 0.194407
275 1 7.74104 7.04802 0.557651 0.326076 0.942803 0.403019
276 1 2.89692 6.47384 2.03838 -0.518069 -0.253931 -0.00438924
277 1 2.13417 2.87217 6.55667 -0.489658 0.167285 -0.315771
278 1 7.58639 1.9721 8.29563 -0.149823 0.351306 1.19632
279 1 2.98518 3.63483 0.915773 -2.02549 1.00556 -0.751106
280 1 4.87264 7.21491 8.19318 -0.891358 0.502667 1.40426
281 1 4.89785 7.85152 9.18942 -0.463389 -0.536284 -0.10945
282 1 3.62981 7.44234 7.35602 -1.24843 -0.0692043 -0.695229
283 1 6.23348 1.01142 1.07238 0.013794 -0.521742 0.272887
284 1 4.70843 4.71449 8.7567 0.169657 -0.840388 0.448429
285 1 5.49419 1.81007 3.14891 -0.594746 -0.734325 0.237408
286 1 7.82279 0.608367 3.74547 0.376172 -0.243972 0.842558
287 1 5.56326 6.08174 0.269814 0.172129 -0.0683285 0.806908
288 1 0.695526 8.36021 7.89752 0.610532 0.470098 -0.594722
289 1 1.75575 4.32464 3.89364 -2.05984 -1.40809 1.40646
290 1 3.41891 5.72998 7.01909 -0.477056 -0.32001 -0.441761
291 1 6.49299 6.78025 4.31425 -0.544215 -0.021023 -0.275056
292 1 2.45809 3.24798 7.39385 -0.912994 -0.11046 1.05854
293 1 2.17269 3.71727 6.15375 0.0151313 -0.683655 1.4507
294 1 4.09465 5.18967 2.99239 -0.326574 0.845305 -0.1601
295 1 5.3015 3.03656 6.06267 -0.137166 1.33113 -1.13805
296 1 4.8968 8.24705 6.62787 -1.04529 -1.20638 -0.504667
297 1 6.14214 5.87154 7.33474 -0.235399 -1.14647 -1.00298
298 1 2.75951 1.58999 1.42529 -0.763224 0.0697594 -0.379879
299 1 0.872331 2.492 1.56329 -0.943579 -0.466704 -0.280712
300 1 2.51814 1.50611 4.96949 -0.226515 1.1545 -0.283221
301 1 0.296388 7.23765 4.99456 -1.59803 0.0226235 -0.625107
302 1 0.12804 0.212995 5.48019 0.193418 -1.33029 -0.186692
303 1 7.8841 5.80483 3.82461 0.891605 -0.487484 0.0116717
304 1 4.05585 5.06769 7.51797 0.785939 -0.423124 0.983855
305 1 3.01052 9.18059 3.51673 -1.21042 -0.212701 1.99617e-05
306 1 5.62571 1.45496 6.51804 0.368567 -0.45393 0.553667
307 1 3.3195 8.86799 1.32479 1.64502 1.22972 0.0384238
308 1 1.16422 9.22731 7.62612 0.373418 0.0789688 0.051913
309 1 1.23318 8.59747 1.7645 0.325599 1.05549 -0.348934
310 1 7.94628 8.34167 8.29666 0.115698 -1.20053 -0.349156
311 1 2.54175 3.30549 3.85136 -0.884704 -0.559896 0.725113
312 1 5.58498 8.87797 2.62631 -0.210354 -1.09257 -0.832066
313 1 6.5958 4.98251 0.623958 1.47788 0.43037 -0.587124
314 1 8.36522 8.45955 3.4285 1.92421 -0.0533232 -0.62325
315 1 7.69691 2.09049 3.97153 -0.478443 0.385935 -0.0267271
316 1 3.32562 0.536345 4.40491 0.272659 0.637677 -1.44541
317 1 5.77251 6.93258 5.43438 1.97206 0.0991702 0.123787
318 1 6.98326 2.34334 5.78355 -0.601326 0.235296 2.06513
319 1 5.91647 3.67362 5.97111 -0.272377 0.877208 2.39801
320 1 0.354821 4.9267 7.83593 0.336311 2.12866 -0.133811
321 1 3.93926 8.70603 0.506359 -1.8744 -0.222937 0.144447
322 1 6.87403 5.52282 2.23282 -0.559044 -0.814576 1.9334
323 1 8.72681 5.56098 4.92116 -0.261084 0.665851 -0.744843
324 1 4.83538 8.70926 0.145712 -1.02652 0.664752 -0.0864355
325 1 6.27428 0.414922 2.67864 0.495329 -0.870966 0.290136
326 1 1.65213 1.69228 0.584754 -2.32407 -0.114496 0.283002
327 1 4.06181 8.3217 7.29871 0.192028 -0.3074 -0.452081
328 1 6.17482 0.0044331 5.95768 -0.49274 -0.344986 0.939991
329 1 2.83812 1.08937 9.25225 -0.413783 0.376981 1.65147
330 1 3.40917 6.09425 1.39157 0.213121 -1.08779 -0.394429
331 1 7.9418 5.97665 1.46716 0.498664 -1.53331 0.0759256
332 1 2.5202 6.11974 8.68895 -1.6441 -0.527802 0.194741
333 1 1.84918 4.8613 1.9431 -0.128334 -0.749652 -0.602951
334 1 5.15606 4.73381 5.96837 0.434818 -0.363859 0.803936
335 1 4.15261 4.24622 3.15181 0.028328 0.641145 1.27374
336 1 7.81378 2.76798 5.6963 -0.469438 -0.572273 -0.0896894
337 1 1.83983 8.70943 7.99241 0.401732 0.889282 0.0967713
338 1 6.05516 7.15691 0.759333 1.00889 0.493963 -0.0762371
339 1 0.585489 0.511122 7.1732 -0.635207 0.486357 1.33724
340 1 5.17739 3.55 3.09522 0.408719 -0.469035 0.377414
341 1 8.38395 4.59377 1.66689 -0.468475 -0.773994 -0.130592
342 1 8.3002 3.51081 8.28729 -1.01252 -0.236536 0.421019
343 1 9.27537 2.63431 6.94173 0.701661 -0.771885 0.365678
344 1 5.30248 1.44528 2.2653 -0.136242 0.787838 0.935712
345 1 9.27294 6.6752 3.5675 1.2287 -0.2328 1.11335
346 1 1.85041 3.00005 2.45955 -0.113789 0.333788 0.483736
347 1 7.74489 0.0313565 8.26844 -0.733006 -0.0476717 -0.316445
348 1 7.71517 3.09833 7.75201 0.0369673 -0.0880444 0.432012
349 1 8.29887 7.47286 8.33567 1.10825 -0.018332 0.39947
350 1 3.0003 4.00461 7.00309 -0.623302 0.388566 -0.0715059
351 1 5.58284 8.8852 1.62785 -1.26945 -0.706196 -0.314813
352 1 5.0161 5.73399 6.1572 -0.111237 -0.844729 0.417685
353 1 1.76993 2.10591 4.89648 -1.06048 -0.309877 0.39919
354 1 3.58499 7.95005 2.53191 0.722015 0.678078 -0.398209
355 1 5.85517 6.04711 6.26376 0.425081 1.27315 0.0204353
356 1 4.69756 5.03551 6.68879 -0.937372 0.55936 -0.981482
357 1 6.20704 8.01135 3.23906 -1.10729 0.26012 -1.78173
358 1 5.19479 9.43021 5.67453 0.7812 0.91258 0.583881
359 1 5.17696 5.60693 1.51344 -0.487223 -0.269419 -0.165404
360 1 5.45941 5.95844 5.40489 0.289587 -1.10583 0.241017
361 1 5.41845 2.38386 6.82476 0.0600361 0.391015 0.0340884
362 1 7.11252 2.1442 9.12472 -0.274723 0.906451 0.589003
363 1 2.24665 8.59934 4.14868 0.468484 0.828957 -0.485496
364 1 3.86993 0.73929 5.60851 -0.397642 -0.619046 -0.534082
365 1 4.02222 6.34897 8.41919 0.0361004 -0.394188 0.227434
366 1 2.84319 8.70661 0.446554 -0.0819896 0.0334307 0.157507
367 1 3.28164 4.57564 5.07434 -0.203437 0.801687 -0.504631
368 1 8.76595 5.51397 0.250904 0.253112 0.988154 -0.884322
369 1 7.64108 3.20622 3.10812 -0.936631 0.193755 -0.946142
370 1 7.46835 4.20268 3.04413 -0.0933354 1.14959 -0.0504694
371 1 5.48602 5.90131 4.26225 -0.00273286 0.939877 0.585486
372 1 3.51045 3.74176 3.13338 -1.18464 1.39391 -3.25538
373 1 6.60867 6.43519 6.77817 0.0763638 -0.170045 -0.186085
374 1 0.0917634 1.39254 3.2401 -1.11253 -1.22836 -0.728195
375 1 0.318552 0.594087 8.14241 0.750531 -0.27698 -2.0589
376 1 1.56119 4.12211 9.01335 -0.246392 -1.03308 0.819626
377 1 5.10665 6.04585 2.30894 -0.260684 0.178543 0.105202
378 1 2.78639 4.85262 2.3513 1.1613 -0.464959 1.46572
379 1 0.791383 4.32506 6.91301 -0.210681 0.360966 -0.902043
380 1 5.6247 8.57661 5.82956 0.997765 0.045994 0.593634
381 1 7.30535 5.46055 4.4743 1.35892 0.571033 0.18012
382 1 5.37862 7.88072 0.634034 -0.660722 0.89455 -1.46455
383 1 7.04135 1.71545 7.41284 -0.839667 1.23121 0.189666
384 1 5.31378 3.16871 4.07417 -0.749838 0.891136 -0.509026
385 1 9.02225 1.84964 2.52269 -0.481839 0.398677 -0.678049
386 1 9.07988 1.02352 7.24609 0.603044 0.779108 0.260819
387 1 8.36467 1.88372 0.538293 -0.45428 -0.00131821 -0.0334246
388 1 5.73398 5.56221 8.14922 -0.972452 -0.936088 0.178965
389 1 1.34339 0.643311 8.94532 0.604781 -0.225464 0.736202
390 1 7.16293 1.47794 5.33096 0.27444 0.810467 0.47815
391 1 7.38699 0.648435 4.51265 -0.0819762 1.25213 0.766299
392 1 8.75871 5.93517 3.31929 0.814843 -1.32935 0.279422
393 1 7.07232 0.558579 6.78563 1.02093 -1.58674 -0.213669
394 1 3.87469 9.13693 9.10572 -0.712299 -0.21684 0.853521
395 1 2.83635 1.18723 6.89914 0.266298 -0.955656 0.0669026
396 1 6.37214 6.12979 0.684837 -0.800227 0.502335 -0.318362
397 1 4.59995 8.19815 1.2155 -0.986072 -1.13039 0.674944
398 1 0.303222 0.328345 9.16715 -0.414481 -0.907204 0.588608
399 1 8.14388 2.91237 3.71968 0.913066 -0.354216 0.862273
400 1 9.22493 1.17223 0.280502 -1.09188 -0.121635 -1.12578
401 1 6.42597 0.976951 6.26368 1.03865 -0.72059 -1.11167
402 1 9.07132 7.35264 2.20864 -1.07422 0.172546 0.988004
403 1 5.59023 4.375 8.74784 -1.16206 -0.988441 0.568005
404 1 6.95711 5.48016 7.41473 0.288268 0.6811 -0.215482
405 1 5.38828 7.96813 8.39011 -0.884096 -0.063051 -0.802499
406 1 0.797906 4.66519 4.15574 -0.70337 0.425929 0.173825
407 1 4.57579 2.9083 6.55584 1.13587 1.62778 -0.0397352
408 1 3.16148 4.4729 3.60565 0.378148 -1.29663 -0.469345
409 1 5.67785 2.25103 4.70909 -0.0301177 0.0448469 0.162347
410 1 7.88173 2.15908 7.46064 -1.04782 0.481971 0.402669
411 1 2.18873 1.0275 2.47021 1.04872 0.459561 -0.113834
412 1 5.76454 4.65706 4.11062 1.21086 0.342712 -0.121238
413 1 7.89015 3.4882 5.13381 0.693579 -0.793787 0.247161
414 1 2.08514 1.0476 5.81933 -0.351399 0.684961 -1.35146
415 1 2.58574 2.50251 7.9253 0.486522 -0.862705 -0.613876
416 1 4.74607 3.11525 0.51905 -0.640775 0.540029 0.759253
417 1 4.69536 1.56794 1.64564 0.670655 0.7991 1.24059
418 1 3.18236 1.16551 2.96673 -0.541667 0.0485723 -2.37569
419 1 1.67973 6.16227 2.86752 0.173595 -0.724641 0.107178
420 1 3.07763 5.32082 3.0541 0.971121 -0.439275 -0.0296574
421 1 0.768184 4.62146 0.156135 -0.218831 -0.601199 0.231402
422 1 8.00296 0.861622 8.564 1.7073 -0.260529 0.115469
423 1 8.3586 0.994495 0.574113 -0.160311 0.319263 0.45442
424 1 1.62115 6.27188 1.91199 0.566428 0.0604698 -1.17846
425 1 1.66612 3.96598 2.27388 -1.54806 0.66011 0.221062
426 1 3.97051 0.447624 3.0414 -0.589239 1.55769 -0.478958
427 1 3.89431 7.45298 1.76473 -0.387922 -0.203815 0.468012
428 1 5.12213 2.64364 3.34494 -1.05307 -0.476893 1.0562
429 1 0.847683 6.53508 2.43301 0.987772 0.641174 -0.862557
430 1 9.37506 8.54753 5.97924 0.125983 1.09854 1.57742
431 1 4.78386 8.08833 7.59514 0.35933 -0.178669 1.04564
432 1 0.903708 6.31189 5.22326 0.436201 -0.00916988 -0.51064
433 1 1.70135 4.41661 6.28326 -0.771752 0.415284 0.317396
434 1 4.03244 3.48195 6.02725 -0.0608714 0.610221 0.203136
435 1 1.85827 3.17519 4.34473 0.259843 -0.0993321 0.618226
436 1 6.46678 7.40205 2.61829 -0.504499 0.27267 -0.176595
437 1 5.9772 7.84133 5.34465 0.114183 -0.308706 -0.389819
438 1 3.12406 7.16857 3.45597 0.312759 -0.0595289 -0.397736
439 1 8.38268 1.60698 6.88691 -0.465901 0.148689 0.500208
440 1 7.6082 5.34644 6.77871 1.0609 -0.207301 1.05449
441 1 7.37005 9.03858 2.67045 0.193336 -1.12904 1.71427
442 1 2.994 0.752379 7.85214 1.23004 -0.225168 -0.612555
443 1 7.73888 3.72786 3.98619 0.789858 0.197505 0.687849
444 1 7.48416 2.25491 5.04943 0.599297 -0.0827152 -0.512533
445 1 4.99909 6.5605 4.97284 -1.44524 1.26985 -0.393928
446 1 0.793667 7.47707 0.975551 -0.274988 -0.679502 0.0126936
447 1 4.06318 0.395637 0.255234 0.463196 0.225258 -0.231651
448 1 6.11979 8.13122 1.11506 -0.150912 -0.37976 0.300892
449 1 8.17137 4.87597 9.26205 1.66418 -0.946198 -0.0434175
450 1 8.20988 2.65268 6.56899 0.230846 1.6222 -0.169597
451 1 3.85869 1.51355 6.26009 0.712908 -0.496462 -0.772042
452 1 7.60245 7.29579 3.62767 2.32486 -0.418849 0.215285
453 1 0.439475 3.89595 0.912629 0.897313 -0.899344 0.645902
454 1 3.51906 2.05653 9.25151 -0.524682 -0.164233 0.966405
455 1 4.99185 3.11814 8.13835 0.343817 0.974467 0.315224
456 1 0.983206 1.61977 1.26763 -0.563045 0.329147 0.834105
457 1 8.84149 5.0125 7.53816 0.0317916 1.96881 0.64141
458 1 1.06917 1.8223 7.37536 0.579748 -1.51616 -0.348642
459 1 6.38058 7.48447 7.21641 0.103274 0.83094 -0.0850491
460 1 1.20871 3.38502 0.921871 -0.388794 -0.545772 1.99696
461 1 4.00781 8.18974 4.73244 -0.541613 -0.442126 2.02699
462 1 4.61806 7.2496 4.62712 -0.634365 1.30806 0.159244
463 1 8.31114 8.48695 0.629844 -0.0882343 -0.228409 -0.79822
464 1 2.78651 6.02246 6.38378 0.561133 -0.578751 -0.223712
465 1 6.32341 2.64243 4.14616 -0.119899 0.48015 -1.85978
466 1 6.39039 8.96178 2.9547 -0.435061 -1.19192 -0.1913
467 1 5.97195 6.82433 7.71721 0.606239 0.521688 0.104733
468 1 3.68379 4.48649 6.82273 -0.499932 0.510898 0.04457
469 1 6.60018 1.37457 0.138351 -0.299917 0.0464625 0.276479
470 1 7.60935 4.50275 4.35643 -1.14254 0.156684 -0.685003
471 1 3.48375 5.62125 2.35874 -0.896336 0.106992 -0.747608
472 1 1.74897 2.42283 1.62039 -0.366847 -0.0873384 0.126094
473 1 4.34243 0.563657 6.553 -1.04576 0.827554 0.488081
474 1 8.68171 6.16854 5.59411 0.316804 -0.998374 0.310451
475 1 0.213433 4.92018 1.11136 0.749932 0.0285144 -0.276021
476 1 1.38218 0.745778 0.601032 0.283765 0.72426 -0.258324
477 1 4.70806 4.74869 1.25522 -0.30077 1.2242 -0.0885663
478 1 8.22623 8.78421 7.38672 0.567895 1.57716 -0.265096
479 1 3.09913 3.13739 6.65118 0.694066 -0.0559698 -0.16251
480 1 4.75784 5.99951 0.691165 0.0445293 -0.675694 0.553914
481 1 3.86358 4.56543 8.30986 -0.183808 -0.280079 0.412621
482 1 3.08664 1.84625 4.36666 1.35656 0.371076 0.267033
483 1 0.0772166 6.40835 2.77218 0.577888 -1.01446 0.0727623
484 1 1.98614 1.65863 6.83797 0.702667 0.339776 0.194829
485 1 6.51075 2.99267 5.08591 -0.351136 0.0283358 -0.361401
486 1 8.92211 4.15149 8.17797 -0.883037 -0.340049 -1.4134
487 1 1.56368 2.37147 8.97727 -0.887285 -0.712793 -1.32334
488 1 2.40257 2.05815 8.91137 0.292036 0.0833351 -0.0435302
489 1 7.25668 3.0228 4.22261 1.28324 -1.28787 -1.72419
490 1 0.454771 7.35832 2.828 -0.67813 0.0927507 -0.263595
491 1 7.72661 0.834451 1.84356 -0.611426 -0.433388 1.00141
492 1 6.05955 0.297789 1.69778 -0.329888 -0.441006 -0.885818
493 1 9.21729 3.16021 3.68453 -0.246896 -1.39601 0.656928
494 1 4.66439 1.87758 0.622786 -0.204343 -2.16072 -0.22418
495 1 4.34627 1.72763 9.02482 -0.456347 0.463421 0.469491
496 1 5.47323 5.9177 3.21439 -1.86933 -0.964999 0.306827
497 1 0.0437749 8.5302 4.9355 -0.170984 2.17603 0.278741
498 1 1.60339 7.53997 0.0761166 -0.797837 -0.798542 0.438047
499 1 7.17939 2.70613 6.79498 0.536434 -0.569398 1.00553
500 1 2.83206 7.36585 2.62499 0.235453 -0.956835 -0.335348
501 1 3.63898 3.99554 7.65587 0.117226 -0.00785137 -1.25707
502 1 2.19716 0.0505048 3.44657 0.846389 -0.331087 0.975691
503 1 4.47663 7.59164 3.00834 -0.0127102 0.375979 -1.13065
504 1 8.78448 8.95815 1.95929 0.54078 0.488444 -0.338473
505 1 6.90403 4.84266 5.0813 0.298709 1.4918 0.242825
506 1 2.18752 0.899664 0.773823 -0.790667 0.570738 0.492984
507 1 6.66228 1.91788 6.53597 0.716144 -0.462469 -0.209063
508 1 8.5764 3.54891 3.25643 1.03297 0.500411 -0.172668
509 1 9.34646 3.54586 7.35542 -0.200308 -1.58425 -0.853433
510 1 8.31471 0.13222 4.44195 0.72354 -0.569147 -0.894575
511 1 8.16866 7.91115 7.55663 -0.243496 0.0462433 -1.27039
512 1 0.153422 0.890946 1.28962 0.270544 0.0681181 -0.3354
513 1 6.12923 2.80345 3.10263 1.15227 0.959528 -1.25538
514 1 8.33135 1.33429 2.28578 0.61513 -0.230197 1.3026
515 1 3.08614 5.88432 4.09751 1.10408 -0.0873613 0.450664