ITEM: TIMESTEP
168150000
ITEM: NUMBER OF ATOMS
1000
ITEM: BOX BOUNDS pp pp pp
0.0000000000000000e+00 9.4000000000000004e+00
0.0000000000000000e+00 9.4000000000000004e+00
0.0000000000000000e+00 9.4000000000000004e+00
ITEM: ATOMS id type x y z vx vy vz
1 1 5.82762 1.09678 1.72388 -0.461867 -0.28464 -0.240855
2 1 1.91336 9.17591 5.2591 -1.53061 0.730975 1.2725
3 1 3.16227 8.41598 6.0256 0.21013 1.53059 0.670977
4 1 1.21512 2.14348 9.3311 -1.15898 -0.582395 -0.525147
5 1 0.854329 4.14597 4.03477 -0.232834 0.0626019 0.333926
6 1 3.73074 3.77315 7.8568 0.134378 0.262366 0.132434
7 1 1.57375 1.09763 2.50744 0.182837 -0.114867 -0.0391853
8 1 8.35487 2.5093 3.98526 -0.029454 0.600329 0.0569356
9 1 6.42482 5.54424 5.73842 0.623999 0.882878 0.195312
10 1 4.13194 3.27499 3.12255 1.00316 -0.644293 1.07922
11 1 1.74099 3.85924 4.68303 -0.30022 -0.0401604 -0.0210342
12 1 7.8202 4.82568 5.04413 -0.105645 0.221928 -1.37909
13 1 0.372213 5.25318 5.52187 -1.09583 -0.0847025 1.11326
14 1 4.1369 0.481541 0.256955 0.651431 -0.740664 0.210028
15 1 8.9928 5.56513 5.13059 0.685158 0.687819 1.05361
16 1 4.26458 3.69254 8.74352 0.054236 0.0947143 0.980062
17 1 1.33966 9.29965 8.15621 0.0187817 0.150179 0.836621
18 1 3.23216 8.57135 3.43752 0.278525 0.68505 -0.622669
19 1 2.70319 2.16728 1.34009 -0.586097 -0.198337 -0.362724
20 1 2.70273 6.00911 9.23691 0.685216 -0.742892 0.516212
21 1 7.48354 3.86266 7.40821 0.0238755 0.0405274 0.669652
22 1 5.13332 3.11088 5.00059 -0.106465 0.567824 1.00444
23 1 7.82464 6.27059 6.55396 0.33787 0.398244 0.74662
24 1 2.56935 7.87632 8.33784 -2.45414 0.534666 -0.363808
25 1 8.64724 5.56027 1.40732 -0.907878 -2.07677 -0.330851
26 1 8.80025 0.389184 0.125946 0.838373 0.571095 -1.03558
27 1 2.33836 8.76186 0.54834 -0.280055 -0.71463 1.07657
28 1 8.186 1.42195 5.86338 -0.0122401 0.0125896 -1.18028
29 1 2.05169 6.32063 2.88973 0.729581 0.486977 -1.08299
30 1 3.03409 2.44593 7.35007 -0.143455 -0.689434 0.0696302
31 1 3.9017 2.10655 7.59214 -0.487834 -0.257798 -1.21854
32 1 4.54553 4.49263 0.846747 -0.631899 -0.49446 0.715927
33 1 1.96049 5.45811 2.9614 -0.0544702 -0.914729 0.647593
34 1 1.68665 3.76188 2.0296 0.719062 -0.213579 -1.0484
35 1 0.555167 9.39891 5.36157 0.975578 0.101293 -0.377043
36 1 8.56998 5.37852 7.90781 0.332269 0.023691 0.439518
37 1 7.43371 3.15392 2.01154 0.288623 -0.195995 -0.49282
38 1 4.14168 6.72079 2.39317 -0.467479 -0.263745 -0.270028
39 1 5.70655 1.42972 9.19106 0.584083 -0.0462003 0.557713
40 1 2.29879 8.03584 7.33402 0.318954 -0.650102 0.79636
41 1 9.05848 5.4954 2.34851 0.268378 0.178804 -0.538986
42 1 7.48781 9.1702 5.29614 2.27339 1.40156 0.489569
43 1 0.173179 6.84543 0.454319 0.160019 0.490247 -0.019509
44 1 8.43568 1.0807 4.03072 -0.503751 0.293914 -1.25657
45 1 7.14722 7.15736 9.29354 0.0520752 -0.544353 -0.0740783
46 1 2.50326 4.37554 3.36299 -0.433449 0.0623241 -0.793613
47 1 4.27131 5.50848 7.73243 0.360649 -0.122205 -0.17119
48 1 2.34747 7.62147 0.536543 1.1009 0.927468 0.34703
49 1 1.18917 0.670603 6.69457 -0.487397 0.200062 0.655714
50 1 1.7042 6.8297 4.89088 0.362653 0.709417 0.489161
51 1 0.739006 5.3804 7.79144 -0.145135 -0.633235 1.20962
52 1 1.03305 0.233389 0.116765 -0.869795 0.395371 1.10956
53 1 3.32482 3.6393 8.68097 1.1919 0.123637 0.0246179
54 1 0.30102 8.22427 4.72646 0.811365 -1.01378 0.111164
55 1 2.47887 9.02975 6.08805 0.57551 0.9759 0.0306108
56 1 8.0409 7.78792 2.21591 -0.527379 -0.96173 -0.0286425
57 1 5.71782 4.3149 0.221767 -0.60465 1.16733 0.497118
58 1 4.97716 5.59905 0.471694 -0.522285 -0.0698813 1.16844
59 1 9.32387 4.29367 5.00261 0.137302 -0.128112 -0.849327
60 1 4.65963 2.13774 6.58394 1.71298 0.599158 -0.483457
61 1 2.84675 5.08659 5.67006 2.31599 0.299249 0.630655
62 1 8.64386 8.26933 4.23564 0.605139 0.560457 0.588617
63 1 4.58812 7.60946 0.594258 0.735659 0.592508 0.266845
64 1 1.45902 8.02796 4.49005 -0.949343 0.503319 0.354625
65 1 4.43323 4.46402 7.74523 1.54737 0.406758 -0.292084
66 1 7.33802 6.4942 8.73588 1.37778 1.49548 1.09757
67 1 5.67474 7.62275 2.80996 0.699286 -1.10779 -0.921056
68 1 0.168816 2.51632 5.88366 -0.47551 -0.0856086 1.34593
69 1 0.560488 6.09331 4.33656 -0.284944 0.0664244 0.660931
70 1 7.71411 8.33615 8.16171 -0.515283 0.297866 -0.966393
71 1 4.09026 2.42312 8.46842 0.966759 0.211188 0.462504
72 1 6.21337 6.88227 2.73112 0.447576 1.40738 -1.27865
73 1 3.65961 6.92953 1.13511 0.218556 0.278362 0.207895
74 1 3.4167 0.251551 4.41717 -0.825734 -0.132972 -0.291896
75 1 7.29256 6.49794 1.21959 -0.0817886 0.995486 -0.824685
76 1 3.00173 7.86292 3.84205 -0.0331556 2.7643 1.54512
77 1 8.60475 3.85077 5.36116 -0.807161 -0.130091 0.254576
78 1 2.43417 2.78848 5.1074 1.71664 -2.07688 1.50508
79 1 1.03671 1.14942 4.92149 1.14302 0.0481899 -1.1845
80 1 1.34593 8.18449 7.04608 0.301173 0.801528 -0.0526818
81 1 8.78272 3.45242 3.6009 -0.189835 0.802039 -0.0407863
82 1 1.57132 4.18598 6.59102 -1.63117 0.508312 -0.670646
83 1 5.89896 5.686 0.263451 -0.693645 -0.402586 -0.354425
84 1 0.101673 1.75904 0.150905 1.33349 -0.464233 -1.19364
85 1 0.574922 7.52031 6.1668 1.11619 -0.0725386 -0.954593
86 1 6.78076 3.35675 0.105652 -0.79324 -0.0384237 -0.406859
87 1 4.41151 4.97334 9.37451 0.114631 -0.405101 -0.0695081
88 1 3.52914 3.34221 4.79015 -0.598945 -0.714538 1.48515
89 1 3.25995 1.94148 0.714066 0.124319 0.956878 -0.567659
90 1 5.82391 3.47316 5.55122 -1.55243 -0.394822 0.901937
91 1 2.67477 4.97095 7.34377 0.649328 0.678599 -0.817794
92 1 1.63446 9.08658 6.74205 0.67064 0.348782 0.260971
93 1 1.98091 6.35871 3.81045 -1.22268 0.176924 -0.994025
94 1 3.34294 6.06653 1.94438 -1.22159 0.28315 0.194179
95 1 8.94347 3.18506 7.70644 -0.695967 0.999189 0.844306
96 1 1.14889 3.07534 8.89016 -0.586749 -0.200144 -1.11581
97 1 8.79737 0.282163 8.51203 0.193697 0.171382 -0.493467
98 1 7.69678 0.0308029 4.09372 0.302371 -0.509858 0.452764
99 1 0.734013 6.21878 0.700861 -0.141672 -0.949807 0.207815
100 1 2.16148 1.10115 5.32556 -0.22336 1.83652 -1.45492
101 1 8.8536 8.94208 2.76433 -1.05893 -0.518265 1.63144
102 1 6.72796 0.389544 4.09145 0.800077 -0.491479 -0.700629
103 1 6.4577 1.15329 8.77885 -0.212694 0.311706 -0.0530222
104 1 5.60609 0.675417 4.01579 0.598283 0.949828 0.014371
105 1 2.35679 4.15721 6.13634 -1.16798 -1.37464 -0.330812
106 1 3.57978 5.44065 7.18733 1.74189 -0.753177 0.388417
107 1 4.30505 6.09123 1.41567 0.0517608 0.190827 -0.0569421
108 1 5.73496 3.32727 0.158844 0.800515 -0.789069 0.353894
109 1 0.973833 0.347173 3.48765 0.254465 0.575565 1.21929
110 1 3.42836 2.93464 8.19062 0.447455 0.403566 -1.59644
111 1 1.43734 2.95473 1.52424 -0.0661915 -0.0136107 0.990869
112 1 6.86342 2.019 6.13574 0.0367456 -0.319645 -0.368275
113 1 5.29258 8.55701 1.14038 -0.216242 -0.769896 0.239783
114 1 5.18735 5.73125 3.53021 -0.20196 -0.203135 1.72405
115 1 5.67961 4.95223 2.86952 0.785345 0.671552 1.43396
116 1 7.43692 1.67533 0.982326 -0.821702 0.442315 -0.339816
117 1 7.93146 3.99065 2.46118 0.818983 0.30989 0.133402
118 1 5.13158 1.30214 3.53742 0.0130141 -0.397615 -1.11106
119 1 4.16499 0.946066 3.95554 -0.25107 0.0771384 -0.191388
120 1 7.94177 0.860952 6.56621 0.974709 -1.08306 0.0602055
121 1 6.21185 5.47794 2.00519 1.56082 -0.00350028 0.139343
122 1 1.71177 0.314452 7.43179 -1.72846 -0.586966 -1.03335
123 1 4.72947 8.08347 4.04616 0.586 1.1568 0.721888
124 1 0.804192 2.55092 5.15497 -0.413694 -0.52077 -0.151981
125 1 8.5986 4.49727 4.59436 0.0208344 -0.159088 -1.88608
126 1 4.66915 6.46618 5.64984 0.872361 -0.485137 -0.661952
127 1 8.85277 6.49268 3.43411 0.878165 -1.897 -0.145
128 1 1.83606 0.216571 2.91738 0.0127132 0.611842 -1.12265
129 1 0.760593 0.708881 2.60038 0.488281 -1.50484 -0.0936845
130 1 4.77718 2.33916 1.84096 -0.726252 -0.502086 -0.0631449
131 1 9.00856 1.84321 3.54783 -0.447513 1.38328 0.76998
132 1 6.92321 3.87246 2.24379 0.211719 -1.08653 -0.869808
133 1 8.36379 1.64209 7.1957 -0.205339 0.332992 -0.574122
134 1 1.58631 7.09904 7.35671 -0.320434 -0.495036 1.55827
135 1 3.9306 8.84473 6.02162 0.0185137 1.01834 -1.04443
136 1 1.15629 8.15627 2.64254 1.52027 0.344592 -0.543307
137 1 6.56123 1.42369 0.265452 -1.03706 0.505079 -0.361338
138 1 3.5082 0.392114 9.00588 -0.674977 -0.394252 0.617078
139 1 5.6235 4.3758 6.4768 1.17775 0.102712 -0.278488
140 1 1.81614 8.5248 6.05464 -0.141522 0.604375 -0.422863
141 1 6.10262 3.33518 6.96506 0.454777 -0.175791 -0.77698
142 1 3.44059 7.72701 0.658462 -0.591714 -1.18883 0.0190623
143 1 8.36242 2.2876 2.36824 0.4365 0.647861 -0.387407
144 1 9.16911 4.83869 3.30871 0.384012 0.0328022 0.0242692
145 1 2.57631 0.538592 5.86288 0.323087 -0.183928 0.105225
146 1 6.61544 6.1927 3.42927 1.63835 0.313188 1.57645
147 1 5.42912 7.96981 6.55638 -0.321994 0.490975 -0.738563
148 1 6.6631 6.48687 7.23301 -1.61445 -0.642159 0.450108
149 1 2.89543 2.83621 4.23664 0.259457 0.110388 1.09486
150 1 9.37628 0.89386 8.93437 0.0288441 -1.26274 0.396665
151 1 2.57539 7.64684 5.68599 0.551752 -0.997149 -0.108361
152 1 4.51044 4.0404 6.33384 0.19954 -1.70025 0.379601
153 1 6.30113 1.58045 1.17292 -0.652074 0.277063 0.22343
154 1 2.18745 8.93051 3.26627 0.130873 -0.148957 0.0975142
155 1 4.44532 2.72835 5.73371 -0.123791 -0.0553727 0.0116289
156 1 3.0308 5.24468 3.27285 1.14307 -0.294411 -0.891929
157 1 8.67828 7.33794 0.886736 -1.23616 -0.196746 -0.406619
158 1 5.1791 8.1945 1.95807 -0.0878134 0.297639 0.431524
159 1 4.55017 8.98771 1.58486 0.64329 -0.514848 -0.258802
160 1 7.73376 5.34895 8.38653 0.109944 1.25517 -0.141846
161 1 8.9262 8.65883 6.92341 0.0622847 0.826914 0.966552
162 1 8.76465 7.52547 4.65888 0.529528 -1.15907 -1.47829
163 1 0.410931 6.74697 3.59081 -1.43527 -0.653861 0.746555
164 1 3.1446 2.22829 5.8304 0.612104 -0.334149 0.841656
165 1 4.79506 4.11713 1.62259 -0.35391 -0.377787 0.219415
166 1 3.6876 8.55805 9.34033 1.51951 0.103323 -0.607499
167 1 7.63817 2.57638 0.489166 -1.32632 -0.38294 0.592814
168 1 9.26008 0.457672 4.67847 0.3143 0.165292 0.625908
169 1 3.76759 8.00627 8.47883 -0.8394 -0.182379 0.474884
170 1 6.76211 7.06601 0.666444 0.127878 -0.640645 0.605238
171 1 1.47867 1.98962 8.00988 0.562156 -0.686836 0.739858
172 1 6.13854 2.21155 3.46201 -0.434434 0.798091 -0.169778
173 1 3.86718 4.04413 1.48105 1.19543 0.307807 0.164497
174 1 4.06152 5.71602 5.44694 -0.108817 -0.763895 -0.510327
175 1 5.73288 3.35052 3.16275 0.406305 1.67667 -0.00757245
176 1 3.27834 6.11454 2.90001 -0.822662 -0.692477 -1.29943
177 1 7.94911 7.97107 6.39115 -0.0482432 -0.0703108 -0.188896
178 1 8.1235 3.0728 2.93433 -0.363302 0.487753 -0.571044
179 1 3.26828 0.0615614 6.22644 0.729877 -1.19399 -0.918563
180 1 3.53887 2.76217 3.62039 2.48716 0.0997349 -0.141692
181 1 8.98925 3.12587 6.59153 0.655787 -1.19014 -0.235871
182 1 8.32397 0.00429873 4.89789 0.954722 0.2613 -0.120233
183 1 0.267763 3.22246 3.61131 1.31827 0.0404924 -0.412268
184 1 4.47176 0.784943 3.01195 -0.197523 1.00908 0.396167
185 1 2.60802 1.04087 4.35248 -0.291239 0.224124 -0.134126
186 1 9.22942 6.66395 6.49685 -0.134998 -0.110167 0.0536336
187 1 8.63162 2.25315 6.35465 0.946652 0.359071 0.157136
188 1 8.06872 8.79635 2.30462 -0.394319 0.0442028 -0.869233
189 1 5.74236 8.6563 3.56329 -1.00971 0.261405 -0.28624
190 1 6.64193 8.97882 6.97756 0.857889 0.833382 0.3918
191 1 8.16883 1.16954 1.30549 1.12213 0.70791 0.647622
192 1 5.19324 6.82174 6.74151 0.135698 0.643492 -0.174857
193 1 0.79721 3.48168 1.04038 0.00093238 -0.30209 -0.640438
194 1 8.75348 5.87918 7.02999 -0.113556 -0.0289267 1.40318
195 1 4.67036 9.1741 2.66516 0.496166 -0.603981 -1.57441
196 1 7.15255 9.2399 0.338486 -0.343067 1.15536 -0.532846
197 1 6.01171 5.96732 5.01892 1.39306 0.292275 -0.981696
198 1 1.65077 0.409611 1.68886 0.347456 0.0731854 0.00529949
199 1 2.46857 2.30708 2.45443 1.00685 -0.260556 0.0545854
200 1 0.556367 7.75677 7.02445 -0.631449 0.621761 -0.2774
201 1 2.51104 1.15535 3.43615 -0.0836952 0.514017 1.56961
202 1 4.6528 2.0577 4.97771 -0.390163 -0.673352 0.0321471
203 1 2.3307 3.85355 2.72462 -0.781394 -0.942568 1.15208
204 1 2.52777 6.52111 2.09656 -1.52042 0.0819362 0.688871
205 1 8.30601 3.01567 9.1534 -0.0104445 0.284195 0.526483
206 1 7.20922 8.53013 2.61957 -0.314836 0.708025 -0.298466
207 1 2.37112 1.21963 0.955824 0.779513 1.49914 -1.42148
208 1 6.2169 7.84275 7.90208 1.37167 0.342974 0.0134964
209 1 5.97995 2.97809 4.18557 0.563823 0.06425 -0.0712127
210 1 4.94667 1.21144 4.58451 0.479541 -1.42212 -0.0428523
211 1 4.90496 1.25665 6.85261 0.252001 -0.307627 1.4771
212 1 6.05316 7.05184 0.0911807 -0.576339 0.308118 -0.0201948
213 1 6.4209 4.88929 1.23442 0.967314 -0.152489 -0.470911
214 1 0.433439 2.76871 2.06876 0.996965 0.130804 -0.924539
215 1 0.427682 5.9783 6.95189 -0.699208 0.729532 0.223712
216 1 6.937 7.48022 7.44495 0.499888 -0.407072 0.0577222
217 1 9.23217 2.1531 2.42442 0.0880258 -0.105605 1.05861
218 1 8.37324 6.98139 4.04459 -0.588195 0.901159 -0.778777
219 1 2.3661 5.89195 4.53142 -0.061743 1.25932 -0.39911
220 1 1.64048 2.19085 1.76212 1.92308 1.10589 -0.455231
221 1 1.31114 1.81329 5.37891 -0.925133 0.366253 -0.34555
222 1 0.534637 2.58207 2.94986 0.864051 -0.338693 0.937987
223 1 2.60705 1.95602 4.66811 -0.816008 1.17169 1.43423
224 1 0.474189 1.5055 3.01483 0.181275 -0.758366 -1.52839
225 1 8.45333 7.83643 5.4281 0.454576 -0.225246 -1.01108
226 1 2.91064 8.28021 2.06671 0.472737 -0.210507 -0.73605
227 1 2.38268 5.8997 6.03842 0.34813 -1.01634 0.508712
228 1 0.0181906 5.88404 7.79589 0.49979 0.361966 -0.465484
229 1 0.982811 9.29158 7.30615 0.411514 0.341372 0.71449
230 1 8.59889 4.71513 2.25753 -0.285679 0.0203462 1.73437
231 1 1.55178 9.13352 4.07525 0.0575823 0.696981 -0.448876
232 1 7.30846 2.64914 5.40205 -0.858852 0.0136463 0.738676
233 1 1.78833 8.07158 3.26935 -0.185824 -0.152354 -1.27212
234 1 4.74942 4.83585 4.96009 -0.0135967 0.323286 0.583897
235 1 8.49224 5.33644 2.98101 -0.618522 -0.256272 0.907528
236 1 7.5015 8.63338 9.17643 -0.937338 0.021308 -0.0494686
237 1 8.30845 0.519909 7.66457 -0.637709 0.0919105 0.840457
238 1 7.9745 8.50475 3.66507 -0.669003 -0.481075 -0.251045
239 1 6.3815 4.45761 2.02652 0.362135 -0.747954 -0.244516
240 1 6.5082 4.79962 3.67183 0.304719 -1.17123 0.185597
241 1 2.51229 8.48841 5.33128 -0.159979 0.385405 0.430728
242 1 4.84221 8.02587 8.57042 0.0522182 -0.542672 -0.408028
243 1 5.93971 7.84139 3.95306 -0.476994 -0.359037 -0.582309
244 1 3.08306 1.88455 9.25696 0.627684 -0.249238 0.27832
245 1 6.7326 1.88381 4.98189 -0.838107 -0.660292 -0.867575
246 1 4.92761 6.49268 9.12873 -1.35072 0.537727 -1.43845
247 1 8.93378 7.86859 6.43929 0.582711 0.601784 0.612509
248 1 6.48895 4.05021 9.08196 -0.112204 -0.853931 -0.875361
249 1 3.34947 9.07867 1.73543 -0.557367 -0.233859 0.756056
250 1 5.3456 8.26967 0.0849271 -0.498463 0.247028 0.533614
251 1 6.44188 2.00744 7.03574 0.977018 -0.370615 0.835843
252 1 3.89694 1.76169 5.54846 -0.371769 -0.833674 -1.74256
253 1 2.06335 5.52817 0.502513 0.772569 1.2039 -2.08797
254 1 0.315062 0.714025 7.02755 -0.038352 -0.142579 0.699014
255 1 1.06714 1.83515 2.41318 -0.0291552 1.04864 0.118209
256 1 0.190556 3.46741 4.38788 0.0317302 0.53062 0.0485975
257 1 7.13007 8.37395 5.24191 0.132595 -0.684117 0.87612
258 1 2.64735 0.975151 2.50179 0.00577073 0.0778243 1.07138
259 1 6.51697 3.64108 7.76424 -0.247101 -0.907264 -0.361926
260 1 6.24906 4.2605 7.16177 0.402821 1.09886 0.306506
261 1 5.94231 5.99229 2.89248 0.289676 1.27291 -0.602441
262 1 1.99964 5.56308 7.10319 1.57634 -0.389256 2.19862
263 1 3.34565 3.68266 3.85949 -0.979936 -0.17081 -1.10613
264 1 4.73976 9.02802 5.21909 0.849661 0.655241 -0.379396
265 1 3.66714 7.31625 7.7024 -0.0674991 -0.803479 -0.821648
266 1 0.377031 3.2047 9.38302 -0.00397673 0.587482 0.0525311
267 1 7.72356 3.75756 5.06045 -1.34764 0.355126 -0.993448
268 1 2.74111 8.09031 9.31834 0.347801 -0.540287 0.0361996
269 1 9.15462 2.91164 0.612085 0.314131 0.332784 0.0672552
270 1 0.370634 6.77563 8.89406 0.534748 -0.0972754 1.25481
271 1 4.95965 8.60115 7.21248 -0.205752 0.0121319 -1.06914
272 1 6.71793 7.64286 4.58851 -0.948191 0.0959606 0.386606
273 1 1.60059 3.85182 7.51505 1.02244 0.809123 -1.94586
274 1 4.06754 6.30666 0.396859 1.12878 0.0106927 0.974046
275 1 4.97105 3.14087 3.4718 0.734599 -0.855515 0.233863
276 1 1.48639 6.39438 6.87068 0.137254 0.842814 -0.31265
277 1 7.21677 5.53957 4.14977 0.303623 -0.833432 -1.06816
278 1 6.85811 1.07484 2.85869 -0.0504129 0.480118 -1.03997
279 1 7.29313 8.48562 1.74664 1.3014 -0.0466268 0.377843
280 1 2.72603 4.78004 0.366201 -0.126688 -0.593043 -1.82054
281 1 8.07057 4.48618 8.3481 0.194976 -0.145754 0.972165
282 1 6.56537 0.886873 5.55176 0.410105 0.802968 -0.0393019
283 1 0.334733 5.10442 8.68596 0.836168 -0.943428 -0.39597
284 1 1.81041 8.26832 0.0513066 0.241204 0.296385 0.529511
285 1 6.74781 6.78844 6.38968 0.517602 -0.825381 1.35066
286 1 0.789998 7.71676 5.34866 -0.202237 -0.264975 -0.237795
287 1 8.04016 8.56585 4.74811 -0.33727 -0.891548 0.821336
288 1 3.31504 1.90836 8.35128 -0.0909405 -0.211069 0.820515
289 1 4.35829 3.7789 4.01588 -0.702018 0.647619 1.1881
290 1 1.97183 6.18269 7.78226 -0.308193 0.453892 -0.769853
291 1 6.83089 5.87976 6.4061 0.00879919 0.62619 0.897758
292 1 0.278908 2.61159 6.91075 -1.17359 0.0370095 0.931972
293 1 5.52649 1.01189 2.73753 -0.329853 0.0371786 -1.35245
294 1 0.867553 3.44279 2.72822 -0.192856 0.436162 -0.5455
295 1 6.78484 3.28446 4.53826 -0.840988 0.621558 -0.173294
296 1 3.82209 6.20433 3.69537 -0.466471 0.127259 -0.649341
297 1 6.15332 0.353599 3.32623 -0.0801859 0.686763 0.211187
298 1 2.01882 3.24066 9.2722 2.0204 1.05522 1.0931
299 1 5.61471 0.357919 1.20762 0.201415 0.691682 1.10726
300 1 1.39568 5.69101 4.29701 -1.08176 1.02679 -0.737873
301 1 9.34048 5.00676 7.33812 -0.675784 0.00692535 -0.518888
302 1 0.305957 5.16576 6.38994 0.192847 0.171194 0.283356
303 1 6.82731 1.2159 1.80867 -0.406918 -0.581795 -0.198866
304 1 8.18209 1.84662 8.06803 -0.0748989 -0.321157 0.392953
305 1 6.37058 5.18736 7.59565 -1.25761 -0.41492 -0.289553
306 1 2.12048 3.20505 4.2442 0.58115 -0.276559 -0.748791
307 1 3.17597 2.8052 2.74973 -0.567877 0.0431924 1.42095
308 1 2.1474 0.514165 6.53017 -0.54376 -1.03073 0.886563
309 1 6.95238 3.73828 5.48939 -0.600025 0.0543513 1.95219
310 1 5.00624 4.52979 8.46238 -1.70561 -0.621383 -0.0918071
311 1 7.37178 4.41762 8.86996 1.18711 -0.149813 0.118316
312 1 7.08383 4.54476 5.87045 -1.21399 0.651942 0.794034
313 1 5.78526 4.21017 4.69064 -1.42604 -0.2627 0.755384
314 1 3.57708 5.61147 8.40286 -0.488047 0.301848 0.141732
315 1 6.36701 0.31057 0.233475 1.09077 -0.868086 -0.505596
316 1 6.22683 2.63885 9.25039 1.27771 0.0214833 -0.136303
317 1 5.20859 3.06108 6.14159 -0.849631 0.226206 -0.547905
318 1 1.25888 6.91114 5.77933 -0.249441 0.285913 0.0753052
319 1 6.18886 4.19462 5.7822 -0.760098 -0.414365 -0.874071
320 1 9.23759 3.11204 2.58569 0.668797 -0.3525 -0.691625
321 1 3.26405 1.40331 7.36597 0.225934 -0.561727 -0.441028
322 1 5.91736 2.02706 8.55189 0.238878 0.0384347 -0.513164
323 1 3.34254 7.13852 5.49425 -0.6792 0.853641 0.125512
324 1 6.15531 2.34029 1.55325 0.936364 0.149696 1.1877
325 1 3.83598 0.594748 1.94756 0.214451 0.296071 0.541861
326 1 3.33972 1.04422 1.06471 1.22155 -1.12344 -0.0241856
327 1 7.74077 1.59677 2.08386 -0.299714 0.693111 -0.0838473
328 1 6.21013 0.138401 7.69371 -1.07372 0.672458 0.994326
329 1 3.27263 4.52652 9.10877 -0.0609051 0.301739 0.675156
330 1 7.09175 2.09035 9.25685 -0.865278 -0.326296 -0.075356
331 1 3.06229 0.142879 0.831639 -0.110676 -0.0755323 0.477596
332 1 7.87559 7.62168 7.66832 0.570586 -0.510493 -1.32878
333 1 6.68924 5.00643 8.70356 -0.284538 -0.156983 -0.823644
334 1 6.59462 0.381818 6.39568 -0.210098 1.07328 0.480445
335 1 5.19772 4.1428 2.96569 -0.141553 -0.0985456 0.624967
336 1 2.86024 6.27677 8.39227 -0.302402 -0.603277 -1.60988
337 1 5.79517 4.86677 8.41787 1.66477 0.574691 -0.0467191
338 1 0.622482 8.47263 0.392616 1.00822 -0.346382 0.425535
339 1 1.35263 3.87818 8.448 0.172662 -0.0105216 1.49779
340 1 3.07338 1.89661 3.10403 -0.293642 -0.286425 -0.05508
341 1 9.01967 7.64713 7.4704 0.559405 1.03456 1.03469
342 1 0.805094 8.71753 4.02665 -0.0222979 -0.0791045 0.433951
343 1 1.01279 6.98173 0.982346 -0.190809 0.0884047 -0.496186
344 1 7.90097 9.05038 7.22503 0.460474 -0.530329 0.242995
345 1 8.66001 3.04963 5.77365 0.441535 -1.29448 -0.778089
346 1 1.86732 7.36539 3.90814 0.8532 0.185713 -0.0224895
347 1 8.29221 3.3228 1.85529 -0.93891 0.515286 0.00471046
348 1 5.87948 6.26413 1.95982 -1.07016 -1.84683 0.0195068
349 1 9.00734 7.3852 3.46399 0.262132 1.30504 -1.03887
350 1 8.09924 2.05639 3.21616 -0.599221 1.01996 0.967878
351 1 8.71741 7.10235 2.38053 -0.677395 0.594408 0.452669
352 1 0.683612 1.69045 5.97781 -0.822536 0.737513 0.570503
353 1 5.911 2.42027 6.41589 0.22107 -0.546974 -1.01124
354 1 0.760938 3.50203 7.28995 -0.468193 -0.75283 0.755747
355 1 1.06887 3.40466 5.1874 -0.510063 -0.386208 -0.230818
356 1 1.17941 4.86094 0.553123 -0.266802 -0.0437232 -1.91876
357 1 5.37428 2.39256 5.62597 -0.614685 0.355045 -1.2769
358 1 0.240099 7.59819 8.64362 -0.57131 -0.8889 -1.30255
359 1 3.33017 5.5913 6.23486 0.399139 0.634287 -0.436574
360 1 2.14105 5.1944 3.83428 1.69284 -1.06179 0.0601803
361 1 0.507016 2.76859 8.02667 0.054842 0.343789 1.68224
362 1 7.29634 5.58579 1.84975 0.219174 0.837625 0.686877
363 1 3.43828 7.16873 4.40278 0.777815 1.2444 1.41512
364 1 8.20725 0.976566 8.60743 0.44848 -0.767243 -0.598684
365 1 6.68994 4.9253 0.223092 -0.631479 -0.134632 -1.2816
366 1 7.02388 1.15052 6.47411 -0.330047 0.516105 -0.239545
367 1 1.79668 6.13383 9.12841 0.384496 -0.778357 0.563306
368 1 3.97893 2.29655 2.84855 0.288029 0.433876 -1.22466
369 1 9.16089 0.91765 3.39618 0.87072 1.33518 -0.846074
370 1 7.03911 2.30275 1.58918 -0.12533 -0.612717 -0.379364
371 1 0.648511 8.90641 1.40352 0.850645 0.619163 -0.650792
372 1 7.30966 1.37267 8.72107 -0.361319 1.04106 -0.705832
373 1 9.14931 6.31347 1.99258 0.586112 -0.822395 -0.749053
374 1 9.12932 0.656392 2.4854 -0.926807 -0.245641 0.18316
375 1 6.0792 1.21239 6.48982 -0.947534 -0.38721 0.853608
376 1 4.11478 1.48384 0.545176 0.952965 0.943791 0.569291
377 1 3.91805 6.3879 4.59878 0.432898 0.332389 0.441347
378 1 7.51773 4.61528 4.13365 -0.390172 -0.194963 -1.43604
379 1 9.09754 6.41591 5.14616 -0.146302 -0.200407 1.50187
380 1 9.13569 9.02923 4.92499 -0.411821 -0.11622 -0.691899
381 1 0.541605 5.07652 4.55116 0.0524268 -0.0239081 -0.0544757
382 1 5.61123 0.359731 4.91627 -0.230786 1.02299 -0.0933602
383 1 4.63065 8.7396 0.440376 0.165796 -0.856293 -0.752039
384 1 3.44678 4.70459 0.91245 -0.958346 0.524693 0.543975
385 1 3.90767 3.20011 0.147372 0.0855017 0.212845 -0.256795
386 1 5.36398 1.81636 1.34826 -1.39495 0.486735 -0.00470479
387 1 6.90889 7.70214 1.31422 -0.785898 -0.801735 0.127112
388 1 4.29711 7.93859 7.72404 -0.966043 0.527203 -0.526201
389 1 1.33986 5.38862 1.28119 -0.336209 -1.13215 1.7704
390 1 2.96789 2.92643 9.02803 0.80706 -0.680762 0.982041
391 1 0.114751 0.0964664 3.34866 0.909581 1.20405 0.119812
392 1 4.22424 0.356959 1.08507 1.30125 1.20896 1.52467
393 1 2.53015 5.52175 1.25846 0.0339628 -1.25491 0.188403
394 1 1.59894 4.79224 4.45133 0.6859 -0.50272 0.386193
395 1 8.82649 5.40695 8.80129 0.0272655 -0.330926 -0.124664
396 1 3.84497 4.28892 4.7595 -0.287502 0.439886 0.301917
397 1 0.355562 9.10557 2.5755 0.467141 0.866087 -0.613917
398 1 3.82236 9.08048 0.847615 0.457422 -1.85909 -0.0972965
399 1 4.2009 0.635606 7.30536 0.150296 0.337212 0.722355
400 1 3.84259 2.52079 1.97031 -0.460983 0.793482 -0.294301
401 1 9.02641 8.63698 0.771677 0.548332 -1.94538 -0.232742
402 1 6.01441 6.923 7.64867 -0.438621 -1.12329 -1.53233
403 1 7.03858 1.96886 3.30014 -0.191539 -0.752258 -1.04371
404 1 0.114958 6.75308 7.34206 0.434215 -1.78179 -1.37934
405 1 2.9883 1.08947 8.51352 0.299938 -0.155216 0.145409
406 1 3.63052 3.11344 7.257 -2.04646 -0.756527 -0.133433
407 1 5.06668 6.43631 4.72221 -0.591219 -0.0613509 0.239467
408 1 1.94394 2.38928 8.74334 0.254975 0.250061 -0.412994
409 1 8.60349 3.75399 8.25837 -0.227147 -0.808742 -0.801101
410 1 7.47031 2.69469 3.49454 0.305451 0.587052 -0.104423
411 1 3.25112 4.08142 2.15593 0.442311 0.626134 1.04253
412 1 7.20992 0.751821 0.0831343 0.507979 0.179486 1.20921
413 1 2.3994 9.33309 8.12775 -0.823835 -0.658454 0.267063
414 1 8.31524 6.74258 5.13939 0.344488 -0.201983 -0.882922
415 1 8.35676 6.67426 1.57202 -0.700496 0.450621 -0.338468
416 1 8.35002 9.06064 0.429848 0.227522 0.0732599 -0.614125
417 1 6.08949 6.36559 5.8074 -0.0191874 -1.29794 -1.70146
418 1 3.23841 1.6193 1.99656 1.04671 0.554837 -0.671558
419 1 0.00470864 8.3638 3.86795 -0.272511 -0.874808 -1.33202
420 1 1.72092 1.37012 6.1645 0.652601 0.406422 -1.47219
421 1 1.41083 8.80133 1.04801 0.713809 -0.771299 0.0348772
422 1 6.82898 2.66733 8.60081 0.0889211 -0.366334 -0.425812
423 1 4.65471 1.37801 5.5876 -0.964262 1.67421 -0.289078
424 1 2.22683 8.50637 4.11262 0.585726 0.303395 1.37248
425 1 1.93942 8.50524 8.58374 0.0174656 -0.504326 -1.12014
426 1 1.27147 6.06515 5.9829 -0.191335 -0.841461 -0.151894
427 1 1.48146 0.453739 5.73497 0.571502 -0.157286 -0.614221
428 1 3.86255 1.06892 8.0234 0.808248 -0.897734 0.71331
429 1 0.191771 5.61194 0.105218 -0.443775 0.223375 0.269569
430 1 8.43597 8.70993 5.64119 -0.697301 2.25831 -0.137376
431 1 6.07665 1.35708 3.63826 0.713576 -0.267664 -1.02477
432 1 5.40419 5.4858 4.51325 1.23339 0.734901 0.112757
433 1 2.52891 3.13599 3.4581 0.0587538 1.55169 0.186353
434 1 7.67172 3.64363 9.14702 -0.245491 1.67415 0.832134
435 1 1.59869 4.74106 8.2875 -1.10545 -1.57602 0.388708
436 1 8.19164 6.20814 8.23444 0.836349 -0.79703 0.45797
437 1 0.540755 6.67676 4.99933 0.374163 -1.03355 1.03485
438 1 4.53043 7.25138 5.10887 -0.0548017 0.571311 -0.0391815
439 1 1.28769 7.78004 1.69427 0.308203 -0.0767609 0.284478
440 1 6.31197 0.684359 2.30317 -0.878176 -0.344662 -0.161606
441 1 1.09592 8.73018 5.07077 -1.2385 2.07282 0.745557
442 1 8.30882 8.05316 0.317486 -1.20062 -0.217869 -0.424522
443 1 1.94324 1.73843 2.96155 -0.293408 1.09471 -0.0879884
444 1 6.48121 4.87924 6.46157 1.54149 0.418648 -0.427203
445 1 1.13304 2.04671 3.34271 0.427115 -0.793734 0.983194
446 1 0.983209 5.84335 5.16607 -1.24354 -0.767606 -0.278137
447 1 8.84309 2.62301 3.24868 -0.750728 0.39521 -0.239679
448 1 2.31827 4.07217 8.79518 0.683275 -0.195217 0.472183
449 1 3.09652 5.90135 0.623096 -0.92982 -0.0606813 0.38149
450 1 0.088143 1.68745 6.94427 -0.00220012 0.9051 -0.130202
451 1 4.8875 6.02005 7.1646 -0.491709 1.85092 -1.9347
452 1 9.15361 7.6837 1.96939 0.686908 0.741187 0.628019
453 1 5.9057 0.342389 5.81873 -0.34678 -0.594127 -1.13295
454 1 8.83766 9.17833 7.76761 -0.717483 -0.195083 -0.488549
455 1 8.5468 8.32767 7.83328 0.662802 0.650308 -0.0225492
456 1 0.626954 5.9796 8.61257 0.706062 0.282768 -0.0807054
457 1 7.5187 3.87914 0.542101 0.418069 -0.901599 -0.772124
458 1 0.266322 0.17284 7.86826 -0.853016 -1.08055 0.721806
459 1 1.34774 6.97855 0.0464485 -0.279416 1.77478 -0.318285
460 1 0.0548431 1.25094 4.25891 -0.584234 -0.525038 0.768483
461 1 2.5533 0.297235 9.01465 -1.08056 0.0410204 -1.23519
462 1 8.71351 0.0784951 4.07932 1.71579 0.016827 -2.31437
463 1 0.93416 1.35435 3.95251 -0.436927 0.410681 1.07419
464 1 6.95515 5.16138 5.12387 -0.181429 0.410468 -1.11823
465 1 7.95797 2.62271 1.21988 -1.02025 -0.14188 -0.425503
466 1 8.79672 5.55697 0.467698 -0.507789 -0.71402 0.457191
467 1 7.80512 7.666 8.78648 -0.823155 0.0518011 0.12234
468 1 7.16177 0.825405 8.02927 0.715839 0.576588 0.662124
469 1 4.26837 7.7138 3.11329 -0.90736 0.95884 -0.0932629
470 1 1.2187 2.95183 3.52453 -0.191562 -1.27586 1.80487
471 1 2.47717 6.82467 5.38708 1.20771 -0.0144592 0.124038
472 1 4.71064 4.62999 4.07196 0.519166 0.516903 1.2847
473 1 0.563946 7.40799 2.15383 -0.22877 -1.61431 1.3535
474 1 8.88495 1.00509 6.58753 0.657066 -1.04877 -0.572049
475 1 2.55768 4.2066 7.9061 0.287367 1.09097 -0.12387
476 1 0.909909 8.39325 8.12054 -0.328437 1.3185 1.14827
477 1 5.28902 3.9325 3.9104 0.115717 -0.999753 0.150761
478 1 7.41132 4.69702 2.25979 1.43967 0.960782 0.271879
479 1 7.15962 9.06589 3.38671 -1.6208 0.603979 0.382706
480 1 5.51379 8.44636 4.47657 -0.0593686 0.0807583 0.894117
481 1 8.57353 7.92936 8.82427 0.201949 1.06608 0.146881
482 1 4.58325 1.5663 2.52451 0.188288 0.00589095 1.38396
483 1 4.68972 8.30128 5.82651 -0.424899 -1.56898 0.329358
484 1 5.47191 5.85608 8.74592 -0.772243 -0.190312 -0.390219
485 1 5.92987 7.17227 6.2576 1.71513 -0.389839 -0.457667
486 1 9.1799 2.47034 9.04121 0.193062 0.0576877 0.521513
487 1 3.1588 1.35709 5.03726 -0.849697 -1.75908 -0.481431
488 1 5.79914 7.7966 8.83583 0.123767 0.164243 0.369037
489 1 3.58632 9.18804 2.64761 -0.383299 -0.308442 1.26752
490 1 8.46179 1.20202 2.82429 0.0992827 -1.08344 -0.622633
491 1 5.34767 6.588 2.73911 -0.32146 0.183341 0.485449
492 1 5.62469 6.66959 8.50042 0.423849 -0.382789 1.38119
493 1 0.23739 1.90146 4.88742 1.864 0.203874 -0.672408
494 1 0.218994 5.78972 3.41415 0.646557 0.844328 -0.387038
495 1 0.875584 8.79281 8.93178 0.640156 -0.96296 -1.25283
496 1 6.89482 1.78784 8.10192 0.0687557 -0.15831 -0.960937
497 1 1.67148 3.85543 3.68728 -0.532411 0.286579 -0.821316
498 1 8.27386 4.4496 9.17468 0.204607 -1.04076 -0.267392
499 1 1.34179 5.92202 3.41013 1.18498 -0.496002 -0.0122423
500 1 0.690132 0.209766 4.33188 -0.668993 0.0925423 0.283118
501 1 1.28214 5.45479 6.64279 -0.779383 -0.823535 -0.269492
502 1 0.123916 3.23045 5.27467 -0.122961 -0.731323 0.520683
503 1 1.65656 7.71879 5.40243 1.82146 0.259438 -1.17045
504 1 2.957 4.91339 8.23012 -1.05796 0.968399 0.887924
505 1 8.35914 6.75553 7.00306 1.67903 1.70833 -1.1185
506 1 5.89774 7.27199 4.96061 -0.572104 -1.32635 0.586899
507 1 3.24991 0.258653 7.66747 0.0771179 0.228622 -0.376317
508 1 7.46476 0.274406 2.47326 -1.3176 0.633051 0.707273
509 1 8.61236 1.89806 1.27134 1.25062 -0.760561 0.839158
510 1 3.30861 3.18861 1.39243 -0.052267 0.740395 -0.306331
511 1 3.36325 1.90186 6.63274 0.511019 0.964061 -0.467757
512 1 8.487 4.20765 7.33052 1.65275 -0.384861 0.592311
513 1 0.372255 9.39358 0.59133 0.659347 0.510677 -0.025809
514 1 7.67967 3.01105 4.31114 0.475612 -0.7491 0.383476