ITEM: TIMESTEP
460700000
ITEM: NUMBER OF ATOMS
1000
ITEM: BOX BOUNDS pp pp pp
0.0000000000000000e+00 9.4000000000000004e+00
0.0000000000000000e+00 9.4000000000000004e+00
0.0000000000000000e+00 9.4000000000000004e+00
ITEM: ATOMS id type x y z vx vy vz
1 1 7.21591 1.36837 5.35862 0.221643 -1.3678 -0.677085
2 1 2.76518 1.512 5.90546 -0.137727 1.01284 -0.987919
3 1 2.08714 2.69942 4.22887 -0.262929 0.303107 -0.234005
4 1 1.70345 1.80843 0.681761 -1.65368 0.179711 -0.429526
5 1 0.600835 5.43248 7.8392 -1.49224 -1.05124 -0.238835
6 1 2.34984 5.65046 8.05901 0.0974336 0.528129 -0.46519
7 1 1.73883 2.81848 5.94136 0.447385 0.0320446 -0.0582346
8 1 6.00305 8.65097 0.451996 -0.547036 0.937334 -0.441445
9 1 3.90501 8.7323 6.06144 0.941631 0.56571 -1.12776
10 1 7.44087 2.00014 3.42237 -1.05434 0.233413 0.0700273
11 1 5.35151 3.31859 6.20171 -1.50994 0.159925 -0.823586
12 1 6.18712 4.22628 2.0034 -0.200295 0.921376 0.652271
13 1 7.94465 4.35007 6.45105 0.9793 -0.549456 -0.919882
14 1 7.55848 4.22598 4.00007 0.726429 -0.0828318 0.23562
15 1 1.50688 8.16693 1.46854 1.92718 0.506351 -0.459883
16 1 3.89422 2.85583 2.33616 -0.837503 -0.0516911 -0.800413
17 1 4.10082 5.99037 3.21086 1.28679 0.0532359 -0.835248
18 1 6.59343 3.25983 0.652951 0.296069 -0.809269 1.04624
19 1 2.70232 1.24024 5.0333 -0.831239 -0.160457 -0.169237
20 1 2.35332 1.78274 1.41623 0.14876 -0.270401 0.353419
21 1 7.8554 9.24934 8.20876 -0.786283 -0.170917 -0.56763
22 1 8.71994 3.94691 8.70165 -0.127115 0.319757 0.0482786
23 1 4.08182 1.99035 2.3475 1.4864 1.1032 1.12839
24 1 9.09654 4.13052 3.44192 -0.589031 0.0334194 0.419318
25 1 9.04175 1.84301 8.96869 0.200705 0.863646 -0.100329
26 1 6.03057 2.90971 5.26538 0.423755 1.28291 -0.223179
27 1 5.89825 5.60276 9.10821 0.715061 -1.82575 -1.12545
28 1 2.90075 3.58624 3.74421 0.444338 1.14803 0.0847796
29 1 3.76721 4.50656 5.97109 0.172932 0.552079 0.19629
30 1 3.63646 8.20308 0.00264125 0.280915 0.497366 -0.774111
31 1 3.04786 7.7837 4.96045 0.742644 -0.223465 -0.167953
32 1 5.5598 5.43065 4.26544 1.09722 0.323495 -0.446402
33 1 6.84547 6.42931 6.61512 -1.26575 0.410843 0.519603
34 1 4.36117 7.02081 1.15603 -0.438441 0.933949 0.276674
35 1 0.705877 4.07156 3.88695 -0.407126 -0.21136 0.838776
36 1 5.38268 0.301563 3.72041 -0.232146 -0.528053 0.259479
37 1 9.15439 8.50994 6.01336 -0.389771 -0.154432 -0.74122
38 1 5.43447 1.58667 6.94372 0.267512 -1.33208 1.30881
39 1 7.16813 2.61323 3.97038 0.160768 0.438243 -0.213327
40 1 7.74546 2.05013 0.732043 1.02559 1.01488 0.000580261
41 1 8.00248 7.33509 3.11483 -0.245871 -0.813769 -1.3311
42 1 7.36332 2.98532 8.38687 -0.529581 1.21876 -1.24518
43 1 8.63203 8.23314 9.37759 -0.478262 0.367336 0.924803
44 1 0.531814 3.46776 6.87046 0.564863 -0.468246 -1.07847
45 1 0.254311 5.63358 9.05178 -0.974728 1.30515 0.0155247
46 1 8.26729 2.36317 8.98772 -0.738317 -0.353154 -0.408719
47 1 1.93405 9.01588 8.1111 -1.43352 0.623297 1.20476
48 1 4.14104 2.67678 3.28462 -0.562193 0.152111 -0.445788
49 1 5.73795 9.32504 2.12828 -0.372768 1.71232 1.1082
50 1 4.06974 2.54353 8.18884 -0.992624 -0.80575 -1.71573
51 1 6.67308 2.17282 0.483506 0.578535 0.00802881 -0.845346
52 1 6.65987 3.28963 5.94352 0.349717 -1.12115 -0.980982
53 1 9.07133 2.78822 5.70829 1.1289 -0.212724 -0.364468
54 1 8.11006 5.53924 2.49236 0.920482 0.54475 -0.0104923
55 1 5.9991 8.5035 6.30279 0.988545 0.785117 0.191877
56 1 4.90015 4.1653 0.0301334 0.720514 0.441951 -0.136775
57 1 4.17178 0.0213236 5.03847 -0.253055 -0.667482 -0.648863
58 1 8.1939 2.71902 6.12875 -0.180041 0.139828 -0.161323
59 1 3.97729 8.26347 2.49209 -0.0751894 0.0451224 -0.319254
60 1 5.90543 1.41039 2.57665 0.189375 0.460414 0.208104
61 1 2.97008 2.31958 5.80374 0.70042 -0.631668 -1.3431
62 1 4.75673 2.00392 6.35101 0.157668 -0.9924 -0.293624
63 1 5.8625 6.51438 7.67228 0.485484 0.588353 0.0151678
64 1 2.24479 7.69378 2.90721 -0.75981 -0.198985 -0.0723064
65 1 8.96712 6.8644 2.44989 -1.34846 -0.0010971 0.337511
66 1 6.98069 0.344364 4.39978 -0.231411 0.234108 -1.82848
67 1 7.11422 1.96466 8.39383 -0.127692 0.224352 -0.807015
68 1 6.97444 9.23501 8.44619 0.645084 0.483812 0.514873
69 1 3.63637 0.271084 0.187713 -0.968686 1.03113 -0.20217
70 1 4.03266 6.1651 0.581538 0.886388 0.297482 1.22575
71 1 7.69568 6.96471 9.27671 -1.10532 0.293442 1.35886
72 1 7.48893 5.72482 1.24167 -0.31436 0.407647 0.853576
73 1 1.32404 4.41136 8.51159 -1.84389 0.0042678 -0.146591
74 1 3.70429 5.47195 0.190875 1.76729 2.08102 0.113095
75 1 0.536435 4.98225 4.65004 0.534511 1.27218 -0.489333
76 1 3.01273 3.44491 1.07228 0.884144 -0.403727 -0.0522223
77 1 7.11462 6.26943 5.78659 0.141838 -0.534622 -0.144827
78 1 0.590786 1.9708 8.86351 -0.551189 -0.306152 0.344881
79 1 4.49374 9.01905 0.779112 0.163265 -2.08994 0.346198
80 1 6.21552 6.87497 3.08621 -0.781774 -1.18753 1.6326
81 1 5.02935 5.33343 3.17456 -0.0397936 -0.0114306 -0.137879
82 1 8.66682 4.42874 1.30927 0.189188 -1.07316 0.240364
83 1 0.734276 2.61289 7.59461 1.64356 1.16743 -1.12063
84 1 9.31635 3.61529 7.71489 0.682458 0.284853 -1.79833
85 1 1.80375 3.53439 0.433936 -0.779822 -0.378498 0.355583
86 1 7.87008 4.99692 7.94155 -0.302285 -1.27735 1.64246
87 1 0.807671 7.33443 9.36695 -0.137968 0.861987 0.0319489
88 1 9.23287 0.218338 5.54597 -0.189117 -0.500245 0.528903
89 1 8.37365 1.41938 0.103786 -0.0129414 -0.770901 1.11991
90 1 6.98349 6.3335 2.54043 -0.11509 0.220789 -0.420489
91 1 2.86638 4.41806 3.27835 0.445482 0.591104 -0.300052
92 1 6.09517 3.62741 6.49512 -0.616984 -1.54179 -0.38748
93 1 0.597775 8.51832 2.07983 0.110343 -0.851276 1.33162
94 1 8.81731 4.95874 6.33784 0.473314 0.321049 0.922033
95 1 1.56011 2.42582 1.28943 1.1286 -0.305427 0.696569
96 1 2.44064 8.23449 8.33534 -0.515792 -0.361658 -0.695635
97 1 6.45254 1.2857 9.02089 -0.721935 0.770013 -0.395953
98 1 0.0369436 4.17811 1.80743 -0.142552 0.758903 0.445412
99 1 1.43665 7.7033 5.84338 -1.87055 -0.592195 0.0718945
100 1 4.56123 7.42673 9.3585 -1.36301 -0.37281 0.389812
101 1 9.39622 2.39287 3.8436 0.850476 0.451331 -0.427876
102 1 5.57615 0.390878 1.35153 0.99893 0.603587 0.521161
103 1 7.82236 8.09657 2.50863 -1.41815 0.499953 0.315967
104 1 3.17053 0.514461 5.5322 0.590084 -0.61687 0.575738
105 1 3.52093 5.30265 3.28569 0.248046 -0.861235 -0.407657
106 1 0.582124 6.09928 7.12736 -0.0476645 -0.195715 0.673519
107 1 1.10547 4.06771 2.98291 -0.181102 1.67344 -1.57457
108 1 2.52827 5.38391 1.55113 -0.118921 -0.376832 0.186469
109 1 1.48674 7.40281 3.33791 1.79596 1.99844 0.248942
110 1 8.69647 3.19816 3.97137 0.521427 -1.63667 1.02892
111 1 2.40418 1.0514 2.06886 -0.482283 0.394742 -0.0259973
112 1 8.41154 8.91127 2.91066 -1.10873 -0.306131 0.559373
113 1 2.93676 4.44092 7.97667 -0.512523 0.079049 -0.0751728
114 1 5.05417 0.255929 4.58851 -0.896397 -0.936647 0.752762
115 1 7.75626 0.991258 2.89184 -0.340675 -0.436938 -1.03956
116 1 6.77591 3.52877 2.4947 -0.357825 1.26431 0.136532
117 1 1.6019 5.72171 2.68872 -1.14055 -0.366005 0.683592
118 1 3.48876 1.86275 0.876891 -1.00381 -0.727394 0.0865853
119 1 6.21254 1.54907 6.24575 -1.13236 -1.51302 0.484616
120 1 6.06388 0.645139 3.28853 -0.384288 2.2805 0.586739
121 1 9.14821 4.57066 5.36531 0.777496 1.30363 0.20562
122 1 2.29172 3.80486 2.77932 0.103384 1.59844 -0.20778
123 1 4.90436 6.65301 8.60287 -1.06961 -0.192036 0.0697037
124 1 4.92791 4.42394 2.94795 1.43386 -0.737379 0.133579
125 1 9.14812 4.02376 4.30492 0.501503 0.110709 1.14344
126 1 5.37115 3.6475 3.79396 0.847778 0.0841147 0.628181
127 1 0.23744 3.53441 5.77211 -0.496596 -0.145542 1.02601
128 1 6.7397 5.91061 9.27907 -0.217142 -0.553039 -1.119
129 1 0.258403 3.4063 4.9021 -0.133599 -0.826176 -0.96376
130 1 8.77171 2.53082 2.33031 0.174123 0.0828686 -0.594711
131 1 7.6674 8.44243 8.85538 0.305084 0.953642 0.57845
132 1 7.77892 3.54805 6.13741 1.34834 0.0574623 -1.28064
133 1 6.22333 8.57081 4.32519 1.06077 -0.339202 0.641702
134 1 1.40389 6.64761 0.574055 -1.09315 0.83987 0.888044
135 1 6.01987 8.28494 3.51443 -0.144342 -1.1437 -0.00173416
136 1 7.86263 6.77099 0.835471 -0.400274 2.08046 0.524514
137 1 7.56531 8.8499 4.58604 -0.431433 0.927219 -0.328753
138 1 0.893567 0.389766 5.73309 -0.0715007 0.261125 1.52957
139 1 6.82952 2.21024 6.09411 -0.00286525 0.428638 1.4481
140 1 3.72684 0.243099 6.20783 0.515969 -0.00448795 0.402436
141 1 7.34508 1.69599 9.25153 0.358362 0.178248 0.137107
142 1 6.55884 8.07266 5.22303 1.02672 0.382553 0.285278
143 1 3.38157 3.74973 6.08899 -0.990883 0.0299413 -0.217149
144 1 4.11067 3.44373 8.69608 -0.788932 -0.474581 -0.850771
145 1 8.19352 4.20145 0.0177289 0.532989 0.539999 0.0766113
146 1 8.59048 7.32805 1.18285 1.14614 -1.19838 0.515701
147 1 6.3796 0.784335 2.03781 -0.186187 0.135649 -0.211992
148 1 5.88025 4.67355 0.124341 0.681585 -1.82701 -0.46061
149 1 4.58488 1.23832 7.15447 -0.414398 -1.12383 0.121449
150 1 4.80269 2.25163 2.9775 0.0725178 -0.622285 -0.579708
151 1 3.2621 3.63324 2.0343 -1.19968 0.0539726 -0.984016
152 1 5.35054 1.83801 5.56803 0.640584 -1.66298 0.611504
153 1 6.67325 1.79045 4.47825 -1.2406 0.482287 1.32447
154 1 6.03757 7.59812 0.907344 1.20803 -0.871589 -0.983725
155 1 6.39111 1.96403 7.11574 0.660567 -0.0213161 0.242871
156 1 3.29403 1.20735 7.62681 -1.37435 0.961267 -0.770718
157 1 7.93262 1.83167 2.58096 -0.247531 -0.753798 0.647134
158 1 8.53286 3.65077 4.85347 -0.0338913 0.0468047 -0.393565
159 1 7.21967 6.30235 8.60451 0.769946 -0.380608 1.03017
160 1 2.12755 5.92727 3.6223 -1.02724 0.716876 0.466636
161 1 7.99669 1.58595 8.41679 0.652906 0.181396 -0.438892
162 1 1.53679 6.95665 2.27247 -1.62137 -0.478035 0.270173
163 1 4.24903 0.132803 8.55626 -0.120516 -0.0448505 0.91461
164 1 0.023232 6.08779 2.26991 1.6068 -0.592271 1.01322
165 1 1.59955 7.36636 4.93899 -0.200968 -0.426322 0.57815
166 1 6.75574 9.0614 0.387612 -0.375902 0.336041 -0.567289
167 1 3.71574 0.642722 7.02935 0.789941 0.163272 1.8308
168 1 4.79187 0.0698233 2.64797 0.331528 0.284215 0.0763209
169 1 3.39101 7.31251 4.07209 0.375594 1.23898 -0.859273
170 1 5.1019 2.73215 5.44287 0.32628 0.567461 -1.12107
171 1 7.92854 2.4363 7.56239 -1.19192 0.712602 -0.177417
172 1 8.28946 1.26153 3.87919 -0.682142 0.518871 0.288133
173 1 8.45113 8.98501 0.383879 0.476144 -0.446552 -0.340853
174 1 0.779994 1.22806 0.30218 -0.954447 -0.56095 1.2946
175 1 6.42446 7.75713 8.17119 0.462177 -0.17249 1.09589
176 1 0.095506 7.74105 2.36656 1.04638 -0.310776 1.14348
177 1 6.18621 6.30915 4.98446 -0.887704 -0.0049511 0.648577
178 1 7.38711 2.80103 6.42351 -0.11992 0.217817 -0.0554555
179 1 3.11757 4.34597 6.73055 0.899602 -0.052001 0.801038
180 1 2.98735 5.34316 6.39036 -0.347223 -0.556776 -0.723432
181 1 7.45849 9.05304 2.73932 -0.814286 1.52555 0.397404
182 1 2.79853 5.79637 2.78867 -0.503854 -0.465939 0.190731
183 1 5.41574 0.663677 2.48074 -0.8694 -0.332833 1.44411
184 1 5.97727 2.70359 8.5784 -0.722269 0.0429753 0.240994
185 1 3.01121 5.12936 7.41552 1.62596 0.258894 0.840747
186 1 9.17471 8.11896 4.53 -0.396613 0.0377224 -0.380843
187 1 5.86547 1.06117 5.47202 0.134405 -0.43337 1.08149
188 1 6.05347 7.0534 6.77779 -0.683152 -0.00739213 -0.0317295
189 1 8.55456 7.82947 3.80342 0.0132392 -1.34532 0.37951
190 1 1.25605 2.06988 2.09617 1.5034 -1.38821 0.156586
191 1 3.33897 6.98672 7.95416 0.672714 0.383638 -1.43968
192 1 7.12236 5.85704 7.60353 0.569992 1.51971 1.49555
193 1 6.80135 9.36615 3.49591 -0.721451 -0.373154 -0.331087
194 1 7.80296 8.59708 6.67296 0.240111 0.194123 0.201921
195 1 8.78271 2.04381 5.93547 0.516385 -2.37007 -0.739278
196 1 4.35951 7.70938 3.99932 0.796056 0.118105 0.93424
197 1 2.73842 1.53551 0.499185 -0.815674 0.862947 -0.81218
198 1 8.31974 0.382997 3.2588 0.0371727 -0.594423 0.243352
199 1 2.84787 0.678688 0.121078 1.20236 0.811754 -0.783469
200 1 2.70641 1.94066 7.66557 -0.552404 -0.0165555 0.0679768
201 1 5.33718 7.3028 3.71239 -0.710378 -0.229198 0.477232
202 1 7.85716 3.71342 8.73866 0.745971 -0.439557 -0.0553348
203 1 6.40585 2.02143 5.34182 0.317911 0.226715 -0.0960968
204 1 8.82216 0.564143 1.57854 -0.475222 -0.183525 -0.722023
205 1 6.17001 4.31337 5.58061 -1.21756 -0.0937542 0.197817
206 1 5.27525 3.06342 1.16028 -0.229886 0.153349 -0.955032
207 1 1.30156 5.87996 3.9418 -0.294773 1.81578 0.384319
208 1 8.69067 4.11726 2.61452 -0.515164 0.602424 -0.279311
209 1 7.65287 2.99785 1.15275 0.968394 0.162662 -0.882275
210 1 3.54868 2.89052 6.38546 -1.66511 0.324893 -0.914687
211 1 2.18541 0.736814 1.18439 1.01037 0.069826 -0.273152
212 1 2.38582 5.77778 9.11443 -0.151861 0.187597 0.030669
213 1 3.72223 2.0014 5.99529 -1.43516 1.12953 -0.61532
214 1 8.72801 1.31298 2.85215 -1.21954 -0.997541 0.379434
215 1 7.66718 2.81993 0.251966 -1.23236 0.476919 -0.497537
216 1 2.67901 8.08428 3.51028 -0.464698 -0.1763 0.0121317
217 1 0.660215 3.04417 8.49687 -1.19569 0.631594 -0.736946
218 1 0.71214 0.190169 2.25606 0.431093 -0.621256 -0.376999
219 1 4.95559 6.69588 7.50212 0.572954 -1.54229 -0.787686
220 1 6.22068 7.66211 6.13402 1.11687 -1.32388 -0.17744
221 1 8.28773 6.1739 1.49823 -0.83314 0.0385676 -1.19997
222 1 4.77565 1.02276 3.56428 -0.7868 0.569521 -0.501119
223 1 2.52146 6.32997 6.00042 1.13929 -0.658377 0.099395
224 1 7.25919 5.30121 2.2012 -0.534649 -0.203964 -0.302991
225 1 5.59498 2.35546 0.433492 -0.308697 0.211123 0.177518
226 1 4.74334 3.97922 4.39114 1.11673 -0.151174 0.471607
227 1 6.44524 5.61138 1.86407 -0.896543 0.0610174 0.292048
228 1 8.5675 2.38993 1.47674 -0.933505 -0.720529 0.2868
229 1 8.46379 2.26472 3.87833 1.02091 -0.7985 -0.641541
230 1 7.24541 2.57701 2.59326 0.144981 0.919066 0.107935
231 1 0.627188 6.23815 8.37353 2.21206 -0.200436 0.605388
232 1 3.79731 8.31419 4.97685 0.669974 -0.116892 0.138645
233 1 0.683436 1.80549 2.90976 -1.30952 -0.36278 0.374539
234 1 3.71436 4.3147 2.99993 -0.164207 0.399386 -0.233039
235 1 1.33223 5.56836 8.40449 0.557281 -0.746424 -0.554648
236 1 3.87026 9.13627 2.5396 -2.38705 -0.756712 -0.34473
237 1 1.24063 5.77612 4.86793 0.0588496 1.83676 0.178709
238 1 0.827006 0.130487 6.56543 -1.02424 0.166755 -0.167942
239 1 6.7079 8.45734 8.91617 -0.747951 0.30871 0.616641
240 1 6.43541 5.82349 4.31519 -0.557743 0.564099 -0.459385
241 1 5.73474 6.07283 3.38598 -2.83526 -0.422889 -0.202399
242 1 8.06993 8.35589 5.85339 0.499007 -0.447932 0.152299
243 1 7.08182 2.75372 5.28375 -0.356687 0.280991 -0.489558
244 1 3.0696 1.07882 1.39245 -0.279378 0.562446 0.698612
245 1 1.71458 0.463654 6.9442 -0.317888 0.167717 -0.136928
246 1 8.74038 6.0789 2.80301 -0.953154 -1.29767 -1.75298
247 1 4.73778 5.04662 4.62772 1.37532 1.42057 -0.632609
248 1 3.76597 6.40951 2.40656 -0.507519 0.481642 0.0742982
249 1 4.71594 5.69445 1.04517 -0.369933 -0.699266 1.39835
250 1 8.80255 2.0293 8.09639 0.196308 0.642778 0.292026
251 1 5.2624 2.82754 4.35479 -0.345682 1.3256 0.0440055
252 1 3.0638 9.04291 6.39744 -0.0787024 -0.497222 -0.257798
253 1 3.12724 9.06984 4.70671 0.692053 -0.68675 0.593233
254 1 1.06939 7.62145 0.863527 -0.222639 -0.251727 0.187627
255 1 2.75365 2.98584 2.78429 1.03472 -0.795876 -0.79992
256 1 0.330132 4.4765 8.07326 -0.586831 0.321971 -0.334697
257 1 8.27152 5.39504 0.72113 -1.07753 -1.01613 -0.47618
258 1 0.825662 7.76177 6.56682 0.475522 0.131898 -1.27678
259 1 4.79349 4.95505 1.86637 -0.325419 0.463326 0.643605
260 1 0.695372 8.15721 3.6317 0.612522 -0.331566 0.0296382
261 1 2.69258 7.98925 6.98984 0.788382 -0.81665 -0.55867
262 1 3.26238 6.04978 4.05091 0.223204 1.59794 0.317076
263 1 8.70973 2.78784 4.85409 0.394763 -0.190229 -0.52107
264 1 4.55814 3.33867 7.83404 -1.04109 -0.505044 -1.05093
265 1 3.9917 1.35328 1.57261 -1.53507 0.223526 1.62721
266 1 1.07045 0.125214 4.1917 0.107836 2.20449 -0.731814
267 1 4.94348 5.76865 2.43148 1.66754 0.445825 0.329931
268 1 7.2445 9.04736 5.73193 0.0170109 0.791962 1.62263
269 1 9.15348 8.37518 3.3739 0.54853 1.30623 -0.77695
270 1 2.84724 5.50996 5.51068 -0.339055 0.166487 1.46404
271 1 0.72096 8.56213 1.178 -0.426471 -0.0831138 -0.14466
272 1 6.91036 3.69831 4.52954 0.716872 0.501486 -0.598368
273 1 6.32786 8.82681 7.95289 1.64042 0.886087 0.254108
274 1 1.63157 7.88503 8.9757 0.0301724 0.116587 -1.22155
275 1 2.3681 7.95181 1.19922 -0.392817 -0.694628 0.721679
276 1 6.60685 4.13079 7.23521 -0.273104 0.423639 0.902868
277 1 6.87666 8.12713 0.961731 1.12665 -0.278458 0.310225
278 1 4.26548 6.22533 7.69775 -0.949268 -0.0785771 0.0665107
279 1 2.19099 4.81045 0.488872 -0.311968 0.891844 -0.0852024
280 1 4.82052 1.91182 4.01835 0.382294 -0.527156 0.698461
281 1 3.24724 6.55791 0.205184 -0.151246 0.811515 -0.0272464
282 1 2.13182 7.96218 4.3548 1.48162 0.307695 -0.704199
283 1 1.54841 1.03709 4.21578 -0.312872 -0.916094 -0.0681185
284 1 1.19907 3.64767 4.58204 1.06901 1.2876 -0.353961
285 1 7.23356 5.31058 0.407618 -1.14444 -0.59573 0.366911
286 1 9.1945 2.06976 3.02872 -0.429399 0.166231 -0.838765
287 1 1.69045 0.889038 7.84785 -1.31745 -0.602656 -0.859627
288 1 6.13349 7.59824 4.42337 0.633365 0.985355 -0.360651
289 1 0.313327 4.79855 6.05436 0.542641 -0.108947 -1.36348
290 1 3.43229 1.81854 5.12403 0.275285 -0.535605 -0.101483
291 1 7.54668 0.575811 5.16055 -0.207752 0.495522 -1.12401
292 1 7.43461 4.52122 3.05236 0.217807 0.918358 -0.387436
293 1 4.3171 2.70848 5.92402 1.06101 -1.99823 1.0759
294 1 2.01167 3.49256 4.39685 -0.231862 1.13422 0.409304
295 1 0.281505 3.25098 1.34437 -0.247319 1.14107 0.337103
296 1 0.610828 6.37096 0.32299 0.237777 -1.202 0.365043
297 1 2.31397 6.39611 2.29057 -0.731799 -0.272403 0.942238
298 1 5.14955 6.66545 0.790773 0.0962707 -1.07089 0.145723
299 1 2.72295 1.60545 2.86333 -0.341443 1.13107 1.36266
300 1 5.69066 2.15443 4.82218 0.873038 -0.227561 0.500038
301 1 5.88391 3.24785 9.25365 0.408616 -0.487379 -0.375446
302 1 5.4284 1.00265 6.19539 0.47984 0.424938 -0.402134
303 1 0.687547 2.40519 0.47379 0.533101 -1.15767 0.842166
304 1 4.04832 2.33064 1.48647 0.44413 0.629871 0.500175
305 1 7.02303 7.32773 4.80351 -0.387943 0.246332 0.222645
306 1 5.63983 5.65048 0.658725 1.10754 -0.0113079 -1.65518
307 1 2.65127 0.544582 6.56351 -0.472831 -0.00341762 -1.06183
308 1 1.64604 0.861717 5.13984 1.23639 -0.237052 0.605298
309 1 2.6353 4.57027 5.9765 0.26659 -0.187447 -0.367845
310 1 0.455666 7.06034 8.03728 -0.616944 -0.0933498 0.942908
311 1 3.0363 8.96977 0.13451 -1.039 -0.105518 -0.89526
312 1 0.395002 5.58893 5.33542 -0.141836 1.322 -0.273625
313 1 6.18845 0.569046 8.29191 -0.533628 -0.125744 0.410486
314 1 1.36311 4.55383 4.62915 0.352849 0.84962 -0.0899616
315 1 4.69467 3.42464 2.90284 0.934873 -0.661786 -0.344523
316 1 3.12433 0.0170609 7.22602 0.270044 0.258211 0.907322
317 1 8.8907 3.06359 6.62467 -0.403661 1.54248 -0.531224
318 1 9.22974 5.71283 1.45996 0.455244 -0.0825258 0.453395
319 1 8.531 3.24136 0.943068 -0.361753 -0.0730716 0.623483
320 1 2.48159 7.24965 2.05549 0.7265 0.943079 -0.171463
321 1 0.984992 3.16953 5.38493 0.733852 -1.33517 -0.445649
322 1 4.17913 6.44932 4.16194 0.310836 -0.00258686 -0.754368
323 1 1.72499 1.96129 3.69978 0.220851 1.0784 0.448631
324 1 4.29649 4.9412 3.59472 -1.56048 0.775819 -0.931923
325 1 8.91462 3.09495 2.98753 0.28564 -0.146591 0.00661249
326 1 9.16705 0.988938 7.14455 0.304846 0.497877 -0.0405608
327 1 1.92609 5.78297 5.67544 -0.281968 0.403067 0.131187
328 1 0.808434 4.06462 6.20892 -0.996065 1.34746 -0.898183
329 1 6.77344 0.338201 7.55248 -2.12307 0.158794 -0.606619
330 1 9.37413 7.80627 7.757 0.185602 -0.126289 -2.00563
331 1 8.04363 5.13608 5.86478 1.17749 -0.661515 0.399949
332 1 0.916181 5.14409 0.480821 -1.42605 -0.0751578 -1.49042
333 1 2.22986 4.53647 1.95593 -1.28311 -0.534127 -1.01185
334 1 6.99111 1.56085 2.56104 -1.15176 -0.490895 0.42741
335 1 1.06851 1.18118 3.48578 1.14536 0.156577 0.920247
336 1 8.85196 4.69045 7.51415 -0.0126408 0.74357 -0.753589
337 1 7.27584 7.47475 3.74379 2.26231 0.696194 -0.462243
338 1 8.6617 5.36808 3.79536 0.721783 0.840574 0.489567
339 1 0.175047 3.82976 0.524824 0.649108 -0.33542 0.477834
340 1 5.30044 7.86143 4.83638 -0.794721 0.833607 0.0786104
341 1 1.13976 3.30848 6.27781 0.278682 0.441485 -1.06712
342 1 1.47947 8.96182 2.05659 -0.448175 1.62975 -0.0722292
343 1 4.63658 6.4325 1.687 -0.66529 0.892441 0.0596325
344 1 2.63946 6.95183 3.89206 0.00982294 -0.711818 -0.286579
345 1 2.65842 5.95029 0.589034 -0.0980209 -0.569137 1.15485
346 1 7.82093 3.26954 4.4494 -1.05173 -2.42218 0.130105
347 1 7.34514 1.89154 6.92969 -0.640165 -0.218599 -1.49273
348 1 8.88402 1.20067 8.40472 -0.135698 2.08384 0.732493
349 1 5.56402 0.205242 5.5983 0.00769388 -0.469906 -0.305511
350 1 4.40734 7.15385 4.77721 -0.0711964 -0.594214 0.726075
351 1 0.518022 7.77981 5.74077 -0.434307 0.287823 -1.15785
352 1 6.23029 6.6275 0.89625 0.915841 -0.705084 -1.1178
353 1 0.893993 6.09108 2.0812 -0.783735 -1.59549 0.211186
354 1 6.85161 5.04876 3.80436 0.0691779 0.838108 1.04589
355 1 5.92582 4.06715 8.85249 -0.0933437 1.16562 0.202451
356 1 0.191749 6.49001 3.14039 0.290359 -1.02524 0.0987184
357 1 4.00088 0.617192 2.05398 0.715951 -0.166488 -0.341075
358 1 0.853263 8.72124 5.98321 1.47288 -1.09714 -1.11892
359 1 0.927861 3.30062 0.121216 0.835421 -0.530141 -0.328187
360 1 1.53504 4.78834 1.23707 1.30542 -0.800714 0.789154
361 1 0.0168873 1.36739 1.13235 -0.732391 -1.03388 -2.05189
362 1 1.80154 8.53172 0.631399 2.09525 1.87476 0.461272
363 1 6.3109 1.20209 7.59625 -1.02055 -0.369872 -0.775917
364 1 4.0027 4.65472 0.7095 -0.174942 0.395422 -0.0202314
365 1 0.126084 0.140882 7.29978 0.390345 1.40276 -0.481135
366 1 7.5433 4.36263 7.30489 1.82015 0.501278 0.101101
367 1 4.69483 1.22165 2.55812 -0.77841 -0.813973 -0.495568
368 1 7.0398 4.27919 6.09336 0.535016 0.523028 1.25066
369 1 4.27306 3.29465 1.31326 1.22659 0.195355 -0.740093
370 1 0.162531 8.63461 5.16526 -0.549485 -1.2491 0.411305
371 1 4.73907 0.356743 7.68894 -1.58886 -0.610055 -0.931384
372 1 5.77707 4.89271 7.32267 0.330554 0.650845 -1.1618
373 1 5.49395 7.15266 0.0612585 0.604001 -0.548007 -0.762191
374 1 7.29758 8.01842 7.15152 0.655531 0.957693 0.682277
375 1 7.49826 8.0023 5.25878 -0.0385491 -1.08817 0.399523
376 1 1.12214 5.38761 7.06452 -0.576877 -0.229707 0.310152
377 1 3.49474 2.81065 5.32619 0.238793 0.756844 -0.214038
378 1 6.54493 1.57701 1.35568 1.0608 -0.585615 0.677575
379 1 1.81668 5.66271 0.703552 0.217317 0.156418 0.65273
380 1 2.78025 8.78207 1.00528 0.0354686 -0.726435 0.485476
381 1 3.47051 0.13188 3.68282 0.808059 1.17359 0.196162
382 1 0.625789 0.361591 9.34662 -0.214411 0.226197 0.79297
383 1 0.680687 0.251085 3.3913 0.791897 0.815577 1.28054
384 1 0.10035 5.27076 7.14983 -1.18546 -0.693675 0.14695
385 1 2.97012 3.97332 0.306368 -0.661566 0.683974 1.06454
386 1 8.38152 4.45724 4.34985 -0.329638 -0.00791955 0.451265
387 1 1.66441 5.25455 1.98516 0.436562 0.132711 0.330181
388 1 8.81039 6.93806 3.37168 1.34629 -0.3648 0.264219
389 1 7.97452 7.64839 6.40777 0.663789 -1.08398 -1.91063
390 1 7.44559 9.28962 1.58574 -1.59303 -0.0270881 1.18696
391 1 3.45992 8.49102 7.17604 0.558565 0.22738 -0.262064
392 1 3.45371 6.06886 6.81242 -0.579455 -0.334122 -0.3817
393 1 1.79447 2.07176 7.7142 -0.286621 -0.952356 1.62946
394 1 9.12319 1.26437 5.64922 -1.17418 0.0420643 0.488368
395 1 5.41431 7.17646 1.57911 -0.305004 1.62226 0.251261
396 1 4.7656 5.11648 5.63261 0.14314 -0.835759 0.830261
397 1 1.20564 2.11638 6.25026 -0.493555 -0.526019 0.12602
398 1 4.72613 4.96049 7.21711 0.446915 0.968329 -0.539589
399 1 2.18796 8.36068 2.00069 0.690469 -1.42085 -0.0140134
400 1 9.21157 2.75213 8.51189 -0.380633 0.756559 -0.439095
401 1 7.03318 4.06683 8.15581 1.24398 0.332189 -0.852176
402 1 4.38481 1.97992 5.32912 -0.38144 -0.852472 -0.28736
403 1 6.86953 2.62506 9.04473 -0.365084 -0.842035 0.535681
404 1 5.12739 4.0545 2.0782 0.686599 0.397336 0.294684
405 1 4.29312 0.967181 6.24032 1.12731 0.51645 -0.51021
406 1 2.7829 6.67621 5.20635 0.0456746 1.04368 0.423254
407 1 2.26918 7.60042 6.12962 -0.590332 -0.158782 -0.977546
408 1 5.1074 0.0605797 8.50687 -0.423847 0.726005 0.265023
409 1 2.66634 0.513401 8.52587 0.475536 0.219047 0.273599
410 1 3.51106 6.84053 4.79512 0.132745 0.5067 -0.290126
411 1 7.68426 1.87182 6.06362 0.803335 -0.888462 -0.0744727
412 1 7.99373 3.94238 0.886388 0.0970843 -0.761666 0.319363
413 1 6.74364 9.11106 2.26317 -1.09795 -1.15415 1.54208
414 1 1.61949 2.68317 7.11918 0.61891 -1.03855 0.258539
415 1 9.11254 7.36652 5.17359 0.221327 0.81494 0.58024
416 1 0.32625 5.78401 3.95614 1.13374 0.0775778 -0.701364
417 1 6.49258 7.86184 0.145758 -0.132034 -0.370652 0.0186799
418 1 3.0376 5.00319 4.84381 0.661647 0.222216 0.440541
419 1 2.53475 4.33675 4.35061 0.990024 0.300882 0.121701
420 1 0.593318 6.90712 2.33189 0.556545 -0.323201 0.0239648
421 1 7.32456 8.97854 7.48116 0.544561 0.731026 0.994069
422 1 6.9043 7.28799 1.29408 0.0271588 -1.30487 0.816888
423 1 6.33125 2.81771 1.39007 -0.18419 0.475327 2.69736
424 1 7.69098 4.8047 1.28479 -0.210684 -0.312178 0.502963
425 1 0.557101 4.42916 7.04247 0.96206 -0.554383 -0.39909
426 1 1.93465 4.07377 1.1884 -1.98443 0.957147 0.849878
427 1 2.37999 7.41493 9.12495 -0.97458 1.31924 0.442121
428 1 5.32803 8.74183 7.21408 0.122319 0.851258 0.641696
429 1 6.67999 5.01575 2.84416 -0.242622 -0.73835 -1.23509
430 1 3.78845 4.19451 7.40558 -0.298294 -0.785687 0.31182
431 1 0.910591 4.18698 1.03383 0.284863 0.60854 0.765476
432 1 2.40244 3.82466 7.29703 -0.535871 -0.358513 0.684569
433 1 6.10978 8.16831 7.29578 1.28711 0.239228 -0.319603
434 1 1.87268 1.59998 2.69515 0.306392 -0.53494 0.358841
435 1 8.31927 0.545528 8.80212 -2.02956 0.66466 -0.0043181
436 1 1.78295 7.34239 1.41624 -0.677492 0.508443 0.735979
437 1 4.96424 2.19939 8.38419 -0.775595 0.0557368 -0.0599506
438 1 4.14368 7.0377 8.48846 0.328876 -0.170774 0.693246
439 1 4.28062 8.96821 9.32898 -0.126551 0.3878 0.0179647
440 1 1.2954 4.68128 7.56894 -0.9746 0.47847 -1.33425
441 1 4.86142 2.15166 7.37097 -0.824017 -0.343366 -1.12397
442 1 1.61787 9.24315 3.28818 0.608601 1.15725 0.582663
443 1 5.39884 7.78138 6.53044 -1.4054 -0.286941 -0.558538
444 1 1.45998 2.40934 2.93046 0.681665 0.156168 -0.113324
445 1 8.12613 8.77736 2.02605 -0.20051 0.676482 -0.593917
446 1 3.05322 4.99604 0.808648 -0.453649 -1.53604 1.69048
447 1 6.04876 6.71011 8.75952 -0.321996 -0.433226 0.956477
448 1 8.97811 6.98227 8.31248 1.20266 0.48485 0.779131
449 1 2.97977 2.36542 4.55838 1.24005 -0.297808 -0.417299
450 1 6.62584 3.78404 3.5745 -0.734337 -0.0195092 1.02353
451 1 7.14418 4.33886 2.0697 0.140966 0.65456 -0.856151
452 1 3.13293 0.522287 2.16152 -0.945598 -0.195022 0.961858
453 1 9.25013 6.79859 0.502027 0.307571 2.1366 -0.45848
454 1 5.65903 3.73038 1.50986 0.198307 -0.605312 0.657033
455 1 8.09539 6.77638 2.15258 -0.659337 -0.602525 -0.410799
456 1 0.988034 5.38421 6.0815 -0.344982 -0.508637 -0.183383
457 1 0.025719 7.48542 3.86563 -0.656613 -0.823761 -1.09689
458 1 3.1652 2.46156 8.30129 -1.73735 1.08479 0.84514
459 1 5.08855 3.63885 5.21498 0.0516045 -0.080968 0.894182
460 1 0.394173 1.09112 8.57076 0.010119 0.988896 0.256791
461 1 7.03914 6.41394 4.91512 -0.345719 0.188201 0.764786
462 1 2.11563 2.55305 5.05733 -0.728146 -0.287536 -0.686799
463 1 8.20566 4.11237 7.92508 1.26914 2.32217 -1.40433
464 1 2.87956 1.53329 8.86635 0.0142328 -0.0637512 0.66445
465 1 3.86275 7.37103 5.55217 0.764923 -1.16802 -0.353996
466 1 5.4689 1.26302 7.76896 -0.252998 0.36203 0.630912
467 1 7.07789 3.6951 6.73597 0.277132 -0.577307 -2.45783
468 1 3.0496 1.9569 6.84414 -0.901952 1.33337 -0.224907
469 1 6.48474 1.8547 3.26577 -0.203999 0.0524735 -0.0111218
470 1 2.85378 6.49864 1.45731 -1.52053 -0.515348 0.244478
471 1 2.96952 1.02753 3.7095 1.46928 -0.398211 2.49388
472 1 8.34574 0.777922 5.75315 -0.0980426 0.842279 -1.39126
473 1 8.17825 7.72749 8.69101 0.209494 0.246493 0.308965
474 1 7.0168 9.16381 6.58574 0.749856 2.2669 1.1615
475 1 0.17475 3.38801 3.63205 0.195522 0.313543 -0.135401
476 1 3.164 0.19141 1.09464 -0.426131 1.40139 0.43052
477 1 0.672902 5.76156 1.15427 -0.0662203 -0.187899 0.663824
478 1 4.50594 1.01834 4.43765 0.328309 0.0687498 0.111785
479 1 3.19089 7.97278 1.58878 -0.916305 1.00268 0.552516
480 1 7.29783 1.26988 7.76104 -0.103973 1.27101 1.49474
481 1 5.85358 5.39309 5.54762 -0.10845 1.06344 -0.622014
482 1 1.67045 3.09261 7.9236 0.503849 -0.637811 -0.365093
483 1 4.03133 2.31464 4.49078 0.145818 0.721077 0.639558
484 1 2.42243 5.92882 6.91767 0.807192 -1.1275 0.282644
485 1 7.6128 7.68618 0.386914 -1.14499 -0.500468 0.841014
486 1 5.42977 7.51773 7.52674 -1.02255 -1.44329 -0.0706387
487 1 9.29678 1.71766 2.04526 0.0376799 1.0334 -1.39251
488 1 0.246728 2.61947 2.44458 0.565041 -0.396674 0.587658
489 1 5.47285 2.58885 3.36196 0.0952574 0.302636 -1.3834
490 1 4.96294 5.78856 8.43421 0.651981 0.410325 1.25155
491 1 6.57306 5.05897 1.10674 0.175416 0.477256 -0.669146
492 1 9.38316 5.53264 0.561344 0.263179 -0.738818 -1.52054
493 1 7.08807 5.37002 8.71751 -0.38507 -0.192825 -0.787803
494 1 1.72493 8.7634 4.51077 -0.30867 -0.564113 -1.4303
495 1 3.63012 8.87855 0.867433 1.23145 0.421452 -0.0545391
496 1 2.12215 3.61591 6.29485 0.3044 0.186699 0.298146
497 1 2.40634 0.301853 4.84265 0.0550904 -0.135943 1.50241
498 1 4.75155 3.35565 0.340075 -0.00819593 -0.399581 0.249578
499 1 6.99044 0.523636 2.72703 0.0608772 -0.233858 0.618239
500 1 7.82035 5.06402 6.86289 -0.654942 0.158582 -0.138091
501 1 9.35922 8.30869 0.450729 -0.0726857 0.42134 -0.818816
502 1 8.11153 3.15244 7.01944 -0.13848 -0.132627 0.163526
503 1 4.77374 0.912477 8.4096 -0.0183661 1.22402 -0.25281
504 1 4.89594 0.95887 1.77662 -0.269197 1.09981 0.514726
505 1 9.20362 0.370664 3.39372 0.333437 1.29524 0.499657
506 1 4.57983 3.28687 3.73105 1.91609 0.198046 0.86415
507 1 2.76053 4.17642 5.18333 0.759502 1.06396 0.162873
508 1 5.75991 8.25783 8.99605 -0.463692 -0.67867 -0.293238
509 1 4.24372 5.11092 9.01126 -0.770842 -0.0522532 1.24274
510 1 9.11453 1.12994 4.73375 0.56419 -0.33666 0.0994088
511 1 2.26004 7.41648 7.9039 0.780496 0.16693 -0.699766
512 1 0.356216 2.17738 4.82171 1.13897 0.4819 1.26221
513 1 3.09466 4.5852 2.39107 -0.626835 -0.866197 -1.98045
514 1 7.17253 4.52875 8.97766 -1.0406 -0.577304 0.424633
515 1 2.36532 1.29648 7.21985 0.215647 -1.42524 -0.0912568
516 1 3.48577 6.34573 8.70068 0.772025 0.471209 0.0765203