ITEM: TIMESTEP
282600000
ITEM: NUMBER OF ATOMS
1000
ITEM: BOX BOUNDS pp pp pp
0.0000000000000000e+00 9.4000000000000004e+00
0.0000000000000000e+00 9.4000000000000004e+00
0.0000000000000000e+00 9.4000000000000004e+00
ITEM: ATOMS id type x y z vx vy vz
1 1 1.88709 5.12518 6.55843 -0.68455 -1.38971 -0.947326
2 1 7.71473 6.98332 5.06995 -0.118218 0.534197 -0.130912
3 1 8.49429 3.88697 4.48778 0.353843 -0.273712 -0.505002
4 1 6.7737 6.39265 3.05873 0.0945388 0.219636 0.332069
5 1 0.113075 2.55704 2.54566 -0.11601 -1.00594 0.503685
6 1 0.675836 4.03448 7.83883 -0.0520929 -0.486022 -0.801604
7 1 0.572298 8.52285 6.17536 1.09602 0.919372 0.0336673
8 1 1.2431 0.998427 2.91841 1.20643 0.291658 -0.215891
9 1 2.6949 4.55326 8.3577 -0.587745 -0.0561494 0.205475
10 1 1.85594 1.91236 5.11695 0.602551 0.567469 -0.113013
11 1 0.466907 5.01418 8.15602 0.756615 1.18758 -0.572601
12 1 1.36164 0.0927491 3.34529 -0.389502 -0.244159 0.190943
13 1 4.90413 6.10459 5.66861 -0.660929 0.186411 -0.531472
14 1 8.98055 6.18363 4.50893 -0.57618 -0.078233 -0.34481
15 1 0.869913 1.0843 6.50956 -0.337171 1.74756 0.736669
16 1 7.94333 2.64163 8.29268 -0.210611 -0.443094 -0.344875
17 1 3.4715 3.77882 7.22044 -1.14815 -1.72241 -0.274289
18 1 4.80824 3.26086 7.85441 0.0245391 0.371474 0.52701
19 1 8.06679 3.69016 2.4222 -0.27643 -0.383559 0.574678
20 1 9.03207 3.82447 7.63716 -0.349903 0.376839 1.02811
21 1 1.67781 9.39194 8.92274 -0.11383 0.274672 -0.0896781
22 1 0.162742 6.97909 4.24923 -0.529916 -0.189879 -0.640992
23 1 1.19579 7.64296 8.40368 0.00818048 0.527615 -0.271952
24 1 3.86276 3.74169 5.44663 0.338867 0.800237 -0.312659
25 1 0.938551 0.845512 5.43371 -0.145201 0.141315 0.392162
26 1 8.5668 2.20378 9.14883 0.722702 0.646332 0.748125
27 1 0.119861 2.80364 6.78118 -1.22734 -0.417415 -0.294672
28 1 5.34963 9.41388 9.00749 -0.774 0.825814 -0.529245
29 1 8.78049 3.92781 5.53459 -0.378327 -1.95802 -0.0717138
30 1 7.01755 2.45346 2.616 1.15172 0.0366473 -0.384554
31 1 0.452376 0.903624 7.98095 1.11727 0.122472 -0.169693
32 1 1.77418 6.298 5.34218 -0.349979 0.0306631 1.54467
33 1 4.09612 5.12545 4.21721 0.128555 1.01538 -0.448427
34 1 7.27379 4.55434 8.13191 -0.583504 1.10111 0.351026
35 1 0.690509 4.71998 4.90763 1.24418 0.707805 -1.29601
36 1 1.08639 7.19808 2.97596 0.406136 0.420567 -0.286374
37 1 0.122005 7.25695 5.29582 1.29628 -0.511367 -1.25556
38 1 6.72799 7.75913 7.20886 -0.0550864 -0.506241 -0.0386442
39 1 8.51142 4.3203 8.78639 -0.128189 -0.0421642 -0.378255
40 1 4.81842 8.86604 7.20507 0.423149 0.356691 -0.714635
41 1 0.724822 7.6501 4.65116 -0.576656 0.808278 -1.53514
42 1 0.386696 4.22511 2.10247 -0.255123 -0.30586 0.679681
43 1 4.48182 2.85212 9.24592 1.238 0.181901 -0.55598
44 1 6.44518 6.21333 0.662927 1.14984 1.30012 -0.419133
45 1 4.63441 2.5466 6.39815 -0.169558 0.719865 -0.154737
46 1 5.60989 3.99497 8.10009 0.579336 1.15384 -0.285926
47 1 1.81264 3.35114 7.13468 -0.138958 0.131157 -0.789554
48 1 2.48896 2.65803 5.16191 0.399671 -0.753709 0.287299
49 1 0.447727 5.50161 0.48314 -0.815332 -1.43328 1.15052
50 1 2.89985 2.78091 9.30694 -0.282286 -1.28919 1.05009
51 1 5.56523 3.34786 5.97334 0.902591 0.180047 -0.681515
52 1 1.99598 3.798 0.784764 0.0278448 -1.37368 0.216151
53 1 4.09663 8.7024 0.351898 0.223899 -0.346498 0.102907
54 1 7.85611 6.83216 7.95422 -0.253575 0.211824 0.164372
55 1 2.98664 7.23063 1.89131 -0.821266 0.617985 -0.531223
56 1 0.239875 2.11015 3.69965 0.640978 -0.531506 1.59227
57 1 3.73452 7.8942 2.23607 0.476088 0.800019 -1.08017
58 1 5.87395 7.29423 6.81393 0.550419 -0.472772 -1.13709
59 1 6.66418 5.33815 0.643554 -1.21066 -0.574333 0.125629
60 1 1.06212 5.54345 2.00142 -0.625004 -0.306082 0.89883
61 1 2.43442 5.67255 5.19724 -1.94007 -2.24132 -0.00430764
62 1 5.55678 1.48169 3.20968 -0.239085 1.47044 -1.01805
63 1 9.298 0.78259 4.94027 -0.0642304 -0.466276 0.999916
64 1 4.46773 9.17492 8.22732 -0.628834 0.131838 -0.461891
65 1 3.75458 1.19293 5.38927 0.607553 0.0193512 -1.82462
66 1 2.42137 1.19081 5.30139 0.367687 -1.60437 1.3648
67 1 3.80495 1.72177 8.06075 -0.947233 -0.00355991 0.477771
68 1 7.23159 6.94931 5.7975 0.0742642 -0.0449856 0.282409
69 1 6.35729 8.12014 4.87598 1.02091 0.526075 0.0473313
70 1 1.73279 2.0548 0.819176 -0.97884 0.692467 -0.272457
71 1 8.15346 4.78386 2.98844 0.128514 -0.983768 0.975826
72 1 3.22749 2.91921 5.4936 -0.575546 -0.125258 0.0237973
73 1 3.75562 7.84475 8.0921 0.0336596 -0.130085 -0.841591
74 1 3.04637 3.77809 8.12714 -0.410617 0.26626 -0.185224
75 1 4.43348 6.35771 7.57037 0.297096 -0.210122 0.235898
76 1 7.16553 6.1424 2.17252 -0.183776 0.158175 -0.803283
77 1 2.46897 4.77583 4.99466 0.0166252 -1.45782 -0.957345
78 1 8.13063 0.313344 8.09683 0.287958 1.27798 0.36114
79 1 2.0626 5.92958 6.09724 0.147439 -1.56689 0.59224
80 1 0.143685 7.43703 8.62919 -1.65075 0.819693 -0.743852
81 1 7.75005 3.65129 1.45147 0.753584 1.2147 -0.187182
82 1 1.07645 7.03528 0.592415 0.276744 -0.843682 0.289749
83 1 0.251524 4.45299 0.555874 -1.39932 -0.324146 0.49021
84 1 2.53996 3.52889 2.5469 -0.00779037 0.656965 0.643773
85 1 8.02639 6.34679 4.04833 1.01412 1.87123 -0.0859829
86 1 9.0434 8.37956 1.11785 0.257958 0.384971 -0.339731
87 1 5.95247 9.20752 8.00396 -0.257224 -0.0760286 0.44127
88 1 4.45102 4.59212 5.62761 -0.356748 0.639916 0.291032
89 1 7.03681 3.32686 2.75106 -0.0192106 1.28177 0.62701
90 1 6.84364 4.07244 2.29302 -1.3307 0.348927 -0.26889
91 1 1.12122 0.0735986 4.52661 -0.54659 -0.631198 -0.473891
92 1 8.55503 2.98911 3.34646 1.04479 0.0708236 0.796437
93 1 5.87723 5.93593 5.40083 -0.67766 1.14018 -0.319548
94 1 5.53514 9.1641 4.33703 -0.500676 0.5783 -1.51786
95 1 3.04791 1.82999 3.82803 1.00332 0.685783 0.175951
96 1 5.65449 2.078 1.11935 2.5141 0.450662 0.849493
97 1 1.58453 1.0038 4.79012 -0.83807 -1.22646 -0.443409
98 1 5.56396 1.15727 9.15548 1.2545 -0.54154 -0.958742
99 1 5.88324 0.59941 2.69015 1.07525 0.649049 0.460785
100 1 6.27086 4.59089 1.08951 0.536188 0.513562 0.695915
101 1 1.5469 6.9425 6.2166 0.175203 0.864338 -0.64894
102 1 4.70359 1.99798 5.22646 -0.799709 0.0401976 0.500026
103 1 9.08434 3.89084 6.49928 0.244144 0.227661 0.591965
104 1 9.11147 3.37612 4.10736 -0.87239 -0.498704 -0.977077
105 1 1.50172 2.8262 5.73771 0.0972467 -0.141487 1.22846
106 1 9.38625 5.16877 5.29252 0.934 1.83637 0.48498
107 1 5.3765 3.98115 3.247 0.34903 -1.16307 1.41271
108 1 1.31384 4.43107 0.464582 -0.70239 -0.0512032 0.112116
109 1 1.92323 7.80688 3.16203 -0.623543 0.515074 -0.967159
110 1 5.96816 8.16762 6.40015 -0.118185 -0.119007 -0.468078
111 1 0.24053 4.52982 7.0382 0.255153 -0.531066 -1.50025
112 1 3.93354 2.10176 0.0646076 0.899221 1.0138 -0.165143
113 1 4.03462 6.94164 8.1448 0.655036 -0.598165 0.0583563
114 1 3.81948 8.54807 4.85648 -0.931183 0.12266 -0.182375
115 1 6.94146 7.9246 2.53246 -0.184717 0.213683 -0.261829
116 1 3.20147 4.80584 7.60813 0.62351 0.406024 0.688023
117 1 6.20669 3.95201 5.45578 -0.446149 -0.865494 -0.858988
118 1 2.05486 0.648096 3.1351 1.76069 -0.117941 -0.372229
119 1 6.46158 1.20525 5.64879 0.820247 -0.340027 0.947456
120 1 2.83106 0.480205 5.60638 0.285002 -0.183495 0.653752
121 1 9.11041 4.74195 1.44359 -0.386837 0.194114 1.28557
122 1 5.63859 1.35039 7.62681 0.232696 0.339709 -0.521558
123 1 2.32379 2.00444 9.34246 -1.10079 -1.38952 0.714703
124 1 3.90593 6.96343 1.83672 -1.00868 0.183556 0.0243861
125 1 6.1458 2.58117 8.3971 -1.39502 -0.700985 -0.227763
126 1 4.92645 6.66662 2.4964 1.67288 -0.899408 -1.94307
127 1 6.98549 7.58383 5.30615 -2.05413 1.00905 -0.10399
128 1 0.700561 2.00301 2.84042 -0.736206 -0.507345 0.357143
129 1 6.12634 3.81895 3.88851 0.374191 0.118404 1.79106
130 1 0.47427 7.65682 7.00222 -0.422898 -0.517358 0.742727
131 1 6.49897 3.28698 4.70807 -1.22981 0.150675 0.717374
132 1 9.3629 6.4704 7.18403 -0.264301 -0.0154666 -0.514501
133 1 0.592872 8.87153 7.16353 -0.541602 -1.26681 0.716321
134 1 2.69302 5.02019 9.36219 -1.32438 0.332763 0.661275
135 1 1.63048 1.19074 9.19547 -0.73975 -1.08412 0.486326
136 1 8.82275 6.57728 5.64133 0.682866 0.892349 0.0475106
137 1 3.36305 5.7968 2.73215 1.05978 0.922297 0.637628
138 1 5.00013 5.55911 7.5555 -0.118729 -0.368675 0.497408
139 1 0.403598 5.59053 4.43062 -0.0908629 -0.59933 0.210265
140 1 7.49628 8.94789 2.53748 1.16295 -0.81749 0.997093
141 1 2.06202 4.39489 9.31844 0.160907 -0.0888691 -0.700923
142 1 7.94986 6.17456 5.35798 0.913908 0.52552 1.40098
143 1 0.729487 4.65131 1.37518 0.0576612 1.25338 0.509999
144 1 7.77241 6.75381 1.71782 -0.799574 -0.0351956 -0.0041374
145 1 8.99529 1.26119 7.6243 -0.0918283 -0.630375 -0.852859
146 1 9.05361 0.858524 3.14001 -0.875876 -0.735573 -0.517028
147 1 4.60196 8.42814 3.06318 -0.262411 -0.910243 -1.25876
148 1 3.2817 8.68887 3.68895 -0.755816 -0.35172 -0.182791
149 1 8.97464 8.10922 5.83793 -0.281026 -0.389279 -0.728598
150 1 2.79148 2.47815 2.67764 -0.854632 -0.195109 -0.891501
151 1 7.78971 2.16339 5.52616 -0.794378 0.275041 -0.58559
152 1 7.62932 7.83178 8.34711 -0.733728 -0.136032 -0.0160382
153 1 5.14017 8.44837 2.27964 0.312505 -0.568143 0.103342
154 1 7.99355 2.46045 4.64271 -0.789885 0.668877 1.75953
155 1 3.85144 5.727 0.691306 0.1207 -0.201493 0.353598
156 1 9.28694 0.285577 7.59631 -0.132931 0.0879758 0.82731
157 1 3.99233 0.631241 7.91825 1.5347 0.268702 -0.49094
158 1 0.341463 6.40742 3.59937 -0.312567 -0.858937 -0.442935
159 1 7.68057 4.12568 7.02282 0.262583 1.26843 -1.25074
160 1 3.37416 4.17671 9.17633 0.739161 0.86673 0.155449
161 1 6.62256 8.26532 9.17075 0.54136 0.661657 -0.166816
162 1 8.59918 8.12162 6.70352 0.321444 -0.894437 0.42049
163 1 3.82546 2.82027 3.70852 -0.393597 -0.332589 -0.641838
164 1 3.46972 9.38729 0.61772 0.0693589 1.19626 0.227835
165 1 6.4632 2.01073 3.28334 1.10306 0.031692 -0.338936
166 1 0.69646 0.444642 7.15859 -0.856577 0.526111 -0.0493543
167 1 7.25784 1.70566 3.38917 0.283149 0.241135 -0.213436
168 1 4.81572 8.69564 4.5758 -0.125325 -0.117379 2.44182
169 1 6.36629 3.94825 7.33367 0.0958577 0.247355 0.354835
170 1 5.53725 1.1345 6.54413 0.204387 0.735467 0.315322
171 1 3.11403 4.0292 5.19589 0.319166 -0.597644 -0.572117
172 1 2.21993 0.143893 6.76957 0.123902 0.64224 -1.65287
173 1 8.34465 5.4488 7.43587 0.0347504 -0.873209 -0.865462
174 1 6.05587 4.65917 2.98258 0.165401 -1.53001 0.987233
175 1 1.59618 0.109373 2.44761 -0.454649 1.41834 0.575805
176 1 6.3217 3.05582 7.02173 0.141542 0.426675 -0.282164
177 1 8.82633 8.53235 9.0024 1.09966 1.58648 -0.414624
178 1 5.46542 8.0527 4.69194 -0.154894 0.569799 0.43671
179 1 3.57485 3.48035 6.29751 0.111812 0.462127 0.522115
180 1 3.93483 3.54847 8.60263 0.0910381 1.25029 0.0814568
181 1 0.83303 6.90543 8.95124 1.65374 0.142348 0.185534
182 1 0.409522 0.715772 2.76847 0.158869 -0.122538 1.00147
183 1 6.20861 6.54276 1.6476 -0.293624 0.805928 -0.761243
184 1 8.58279 4.6859 6.00545 -0.0556013 0.476927 0.0650963
185 1 6.9018 9.30604 6.26056 0.898377 -1.23469 1.35293
186 1 1.15649 5.79311 4.92125 0.155133 0.704245 -0.514873
187 1 5.29711 3.14309 2.95284 0.476264 -0.334251 -0.258554
188 1 3.39021 0.415288 9.08491 -0.128592 -0.383834 -0.314957
189 1 9.25505 0.914238 1.67704 -0.311772 0.681221 0.43907
190 1 8.98027 5.98128 3.69302 -0.894613 -0.96946 -0.0829263
191 1 6.24544 7.87641 3.5393 -0.143687 0.706154 0.412292
192 1 5.44275 8.31309 3.85047 1.3044 -0.0941175 -0.373747
193 1 2.57444 5.10522 3.10296 0.733882 0.607696 0.171308
194 1 2.61721 0.78347 9.25969 1.39831 -1.07024 0.957041
195 1 8.14384 4.57551 5.0399 0.666187 0.331506 -0.036667
196 1 8.07538 2.26774 7.4548 0.776232 1.15028 0.564328
197 1 0.234879 6.253 5.05489 -0.359932 0.168661 1.17571
198 1 8.39444 8.84597 5.22342 -0.634275 0.623182 -0.437604
199 1 2.59855 9.16145 9.1902 0.290496 0.340956 0.0387517
200 1 1.18251 8.11258 6.72027 -0.787527 0.0116119 -1.06343
201 1 3.62893 5.30615 1.75537 0.426334 0.133212 -0.360678
202 1 8.37974 8.91189 2.37307 0.593025 0.193474 -0.707546
203 1 3.12062 1.18606 0.497841 -0.659725 -0.736896 -0.125045
204 1 4.91533 2.96796 5.43586 1.66834 0.465302 0.517152
205 1 1.94618 3.42757 6.16091 -0.229255 -0.164693 0.224443
206 1 6.36375 7.61252 1.58042 0.334243 -1.12752 -0.393677
207 1 4.99528 4.63505 2.65772 -0.0163681 0.226526 0.300084
208 1 8.96941 7.05444 3.6252 0.427427 -0.327481 0.137836
209 1 6.79185 2.09358 0.1501 -1.41394 0.185758 0.678
210 1 9.32694 2.63854 8.57325 1.04184 -1.07215 -0.0445893
211 1 0.883633 3.02766 8.53158 -0.663915 0.758875 -0.322749
212 1 0.793822 8.62112 4.14431 -0.471502 -0.871071 -0.0613676
213 1 5.86745 5.01421 1.89979 -0.234383 0.0693116 -0.892812
214 1 5.52493 4.3083 4.74104 -0.309491 1.3628 0.282938
215 1 2.36572 8.91204 4.54715 1.51055 0.380538 -0.491728
216 1 2.34824 1.45694 3.16986 -0.797797 -0.537656 0.220149
217 1 6.70148 1.03277 4.49092 -1.41576 -0.494416 0.558808
218 1 6.39152 1.13489 0.0588703 -0.169228 -0.0192402 0.343018
219 1 4.73888 5.24577 3.38443 1.05956 0.807665 -0.141788
220 1 2.66939 6.39086 7.46547 -0.216084 0.334751 0.512621
221 1 1.47723 3.75394 2.69816 -1.34522 1.51339 0.622429
222 1 5.32431 4.09213 7.18759 -0.206649 -1.01915 0.112419
223 1 2.20746 8.56769 6.80548 0.982167 0.0722866 0.0958141
224 1 4.52344 1.30447 3.08776 -0.504509 0.0961632 0.172502
225 1 9.04899 1.29485 5.75403 0.189422 0.0746955 1.62948
226 1 2.13266 5.68371 7.28995 -1.23363 1.10227 0.541592
227 1 7.75956 5.96112 8.24673 -0.61916 -0.720642 -0.504826
228 1 5.63755 5.28741 0.867455 0.00718956 -0.564978 -0.75523
229 1 2.1547 2.33497 3.2589 0.952269 0.393264 -0.0150055
230 1 1.88249 6.77281 8.90536 0.841667 -0.322986 0.687224
231 1 2.79341 1.39865 7.51919 -0.207162 0.449716 0.0809356
232 1 0.261097 1.4655 1.01056 -0.126541 -0.469784 0.110881
233 1 9.02016 0.66236 3.97089 -0.190124 1.05303 0.370658
234 1 1.64584 5.19359 5.39197 -0.0403862 0.887737 -0.394793
235 1 8.8719 7.91302 0.208556 -0.391422 -0.24932 -0.137689
236 1 1.64954 7.16152 5.21699 -0.530568 1.00573 -2.33779
237 1 0.150678 2.4025 5.4553 -0.24867 1.02593 0.202727
238 1 6.37737 4.66329 8.38393 -0.0906386 0.375504 0.456874
239 1 6.29258 7.10756 5.76707 -0.188456 -0.548454 0.907648
240 1 1.53834 7.45019 3.93717 0.74007 -0.0500932 0.538128
241 1 8.5658 5.14412 2.06651 -0.321082 0.914175 -0.459766
242 1 9.03194 3.08734 9.2148 0.732512 1.30673 0.702724
243 1 8.14442 7.47584 0.670821 0.53142 -0.947814 -0.796425
244 1 3.65595 8.80803 7.86448 -0.60565 -1.04201 -1.94427
245 1 7.87105 8.15098 3.91819 -0.0910905 0.718453 -0.949059
246 1 1.27282 2.14565 6.3184 -0.330806 -0.602857 -0.869156
247 1 2.88663 7.51784 3.56348 0.275358 0.823174 -0.631585
248 1 8.20488 7.43415 8.92005 0.465495 0.711112 1.73358
249 1 7.45731 0.646343 3.76777 -1.02831 0.443573 -0.100258
250 1 5.76709 7.59889 7.61412 0.486935 -1.05745 -0.570733
251 1 7.08229 1.64274 5.03963 -0.505303 0.827402 -1.133
252 1 6.9619 7.48566 0.568689 1.35086 0.021843 0.266351
253 1 9.21281 8.41833 7.39839 1.62802 -0.371242 0.38839
254 1 1.7701 0.221612 5.50246 -0.517042 -0.23411 -0.251667
255 1 6.58958 0.241646 7.66724 0.0707318 -0.742079 0.0771485
256 1 6.19369 5.51077 6.17982 0.327697 0.76955 0.654385
257 1 4.15009 3.51562 4.32583 0.286272 0.499544 1.61922
258 1 4.57602 6.16858 0.981885 -0.0547555 0.590572 0.878898
259 1 7.90517 8.15258 2.767 0.154647 1.11855 0.176235
260 1 3.16583 8.09853 7.33659 0.22558 0.164024 -1.22285
261 1 8.13242 8.94338 1.4265 0.171092 -1.17097 -0.558003
262 1 3.81095 6.14332 1.70095 -0.448271 0.726264 0.671509
263 1 3.97832 1.11855 9.34717 -0.635807 0.352777 -0.461356
264 1 0.404355 8.80039 2.46086 -0.0688356 0.0718568 0.618935
265 1 1.52985 1.85582 2.6215 -0.357746 -1.45795 1.1365
266 1 0.834381 3.69099 4.10559 0.136883 0.661921 -0.155435
267 1 7.69416 6.4342 3.19226 0.0637776 0.174144 0.103786
268 1 7.0054 3.40505 4.00757 1.26044 0.834305 -1.26449
269 1 8.05208 0.355966 2.7538 0.550706 0.276262 1.44979
270 1 0.673613 1.02795 4.45602 0.249991 0.443071 0.141238
271 1 8.53598 6.59545 2.96873 1.25327 0.187285 -0.247976
272 1 6.39468 5.41347 2.57756 0.387514 0.225182 0.687191
273 1 2.94022 5.61529 3.86754 0.011625 -0.510535 0.30807
274 1 7.44344 5.04176 0.168244 1.23939 0.260039 0.233917
275 1 2.57188 6.79782 5.98959 -1.02724 1.21877 0.934417
276 1 1.77955 8.58464 1.21502 -0.779231 -1.07863 -0.938418
277 1 5.45504 1.80033 5.96216 0.409911 -0.914234 -0.83375
278 1 6.87752 0.409554 9.25763 0.520359 0.404374 0.122297
279 1 7.66046 3.75958 8.12526 0.0666917 -0.0944166 -0.164251
280 1 8.79144 1.47403 3.83741 -1.00299 0.281486 0.181091
281 1 1.21802 2.44738 1.70584 0.651696 -0.653696 -0.174374
282 1 2.72473 8.84038 8.24789 -0.0943434 0.618527 -0.185905
283 1 5.64273 2.77944 4.22644 -0.689292 0.179606 -0.0462198
284 1 0.998757 2.0627 5.30433 -0.0164729 -0.0850744 0.277503
285 1 5.54676 3.5375 1.27441 -0.145679 -0.283126 -0.16743
286 1 4.0259 4.8669 7.19437 0.719783 0.135677 -1.2232
287 1 1.82546 4.54703 8.46504 0.489599 0.381731 1.2009
288 1 7.55375 4.15671 6.07894 -0.402633 0.370752 0.482207
289 1 2.05393 0.389241 4.22197 0.21369 0.62252 0.822841
290 1 3.14487 9.10163 2.81092 0.940096 -0.442373 0.525061
291 1 6.98648 2.23478 6.92762 0.719398 0.418766 0.248165
292 1 5.50914 7.3669 5.47849 -0.214553 -0.444093 -0.567084
293 1 7.72191 3.74656 5.00575 -0.113148 0.492781 -0.714756
294 1 5.03874 2.79556 2.17215 -1.35408 1.11241 1.86486
295 1 8.73974 7.14178 2.33482 -0.201342 -1.44444 -0.274697
296 1 4.0251 6.60328 3.03412 0.739301 -0.890341 -0.325791
297 1 8.57157 2.75428 6.69775 0.0217372 -1.23643 1.84581
298 1 3.92558 0.528097 3.98081 -0.328153 -0.543567 -0.0444813
299 1 0.448084 0.578738 1.09967 0.762449 0.224386 0.536771
300 1 1.53192 4.15218 1.63562 0.228779 0.281014 0.487689
301 1 3.69818 8.7245 8.89198 0.887023 1.27498 -0.184729
302 1 9.16134 2.27377 7.5106 0.813861 0.282883 -0.845847
303 1 1.03792 5.6111 3.79489 0.764643 -0.340455 -0.218534
304 1 3.55847 7.63151 4.97115 -0.773493 -0.691326 0.833867
305 1 3.21971 0.228337 6.54882 0.413168 -0.344699 0.59189
306 1 5.79657 7.0507 8.42106 -0.578929 -0.485056 -0.801778
307 1 9.4013 1.99827 6.36088 0.418624 0.104138 -0.185803
308 1 5.58927 0.875709 5.61896 -0.341553 0.394936 -0.255003
309 1 8.95747 3.89789 0.262133 -0.388207 0.974306 -0.15158
310 1 2.56563 4.06121 7.49711 0.430425 -0.199386 0.288115
311 1 5.99931 7.24193 4.52999 0.0746594 0.138215 -0.413445
312 1 5.30706 6.50953 7.87769 -0.961241 0.132598 -0.156239
313 1 4.79365 5.36095 1.39458 -0.748304 -0.396938 -1.75358
314 1 5.70196 3.09785 7.68704 -0.0325224 0.667935 -0.17752
315 1 8.39468 8.65884 0.509809 1.36755 -0.169239 0.643183
316 1 2.37103 6.15438 4.38549 1.01862 -0.892792 -0.60021
317 1 4.61532 1.40383 0.809959 -0.125607 -0.834173 -0.535318
318 1 5.97852 4.88173 5.124 -0.699324 -1.01894 0.549048
319 1 6.43002 3.46632 0.722435 -0.00591045 -0.473277 0.826552
320 1 4.81571 2.81482 4.50528 -0.032339 -0.333021 0.648778
321 1 1.7074 1.06595 5.94594 -0.869204 -1.2007 -0.0742981
322 1 7.07329 8.82125 8.68279 0.833421 0.191681 -0.162586
323 1 6.0482 0.222659 6.25989 0.22952 0.0775556 0.612337
324 1 3.82684 0.78148 0.778735 0.371991 -1.54506 0.509088
325 1 1.14395 4.59261 6.22678 -0.7257 1.3265 0.52075
326 1 3.90333 0.207047 5.76779 1.24725 -0.165233 0.138898
327 1 6.5176 8.83292 7.02002 0.82653 1.19019 0.956476
328 1 5.08631 0.597556 7.85076 0.950284 -0.373466 -1.86251
329 1 0.461652 0.0475767 3.45768 2.19636 1.01671 -0.525208
330 1 8.09566 8.25694 5.81977 -0.834352 -0.107941 0.507124
331 1 8.06582 7.42774 5.94591 -0.00554178 0.0184133 -0.522771
332 1 1.09688 1.65253 0.287674 -1.20309 0.0508286 -0.87294
333 1 7.89941 5.44439 4.70154 1.51463 1.86763 -1.15791
334 1 0.421767 6.98912 1.50069 -0.955699 -0.0230733 -0.497762
335 1 2.24595 2.6259 6.77274 -0.922402 -0.235251 -0.832083
336 1 2.00422 7.51809 6.81571 0.95926 0.260792 0.340513
337 1 5.83556 1.98029 9.11066 0.530395 -0.773651 -0.842318
338 1 7.13703 8.60635 4.33796 2.27216 0.460876 -0.349366
339 1 7.65741 1.71569 2.35613 -0.925269 0.084423 0.179203
340 1 4.16939 2.09153 7.28049 0.330393 -0.11576 0.163526
341 1 4.73537 3.7885 6.22407 -0.525864 -1.20187 -0.658812
342 1 4.50387 8.08915 7.59399 -0.385223 0.318685 -0.413992
343 1 0.494552 0.125314 0.265677 0.381551 0.450767 -1.13535
344 1 7.31444 7.49268 1.5596 -1.38713 -0.141067 0.500176
345 1 4.42465 9.36862 9.2053 0.0514733 -0.045899 -1.297
346 1 8.41008 2.28558 0.706918 -0.52342 0.331498 -0.296988
347 1 7.03749 7.5482 4.30677 1.58187 0.423602 -0.820172
348 1 2.80956 7.26747 0.677616 -1.54994 0.275343 0.00450767
349 1 4.54266 6.51477 6.51694 -0.874726 -0.225053 1.25049
350 1 8.72239 8.16265 3.12968 -0.456874 0.000219777 -0.241455
351 1 7.47513 5.13175 5.84137 1.44102 0.49511 0.475438
352 1 6.50501 6.42204 5.25009 -0.2309 -0.0883071 -0.373299
353 1 6.97033 2.6322 1.00804 -0.231198 -1.42272 1.08875
354 1 8.31445 5.02894 1.19992 -0.159277 -0.28603 1.54106
355 1 1.88424 2.92538 1.14959 0.354595 0.519844 0.608034
356 1 8.71821 5.56419 2.80057 -0.514032 0.907294 -1.05561
357 1 5.02236 1.94587 3.9929 0.441092 -1.16869 0.157626
358 1 8.3987 5.47423 5.51433 0.394645 -0.278148 -0.164566
359 1 4.62119 0.916466 8.64707 0.736904 0.598354 -0.766453
360 1 8.83142 4.89277 4.52657 -0.396386 -0.340586 -0.825941
361 1 5.92271 1.3312 4.03177 0.316991 0.196868 -0.97759
362 1 5.95119 6.21428 2.46538 -1.51163 0.168702 0.317436
363 1 8.27538 6.5641 0.869648 0.461862 -0.639063 -1.6962
364 1 6.44137 6.95745 7.56343 1.63405 -0.383909 -0.412786
365 1 2.12634 4.86667 7.58316 -0.620273 -0.559414 -0.446974
366 1 7.66715 6.7053 8.76733 -1.59525 0.0209037 0.105507
367 1 4.13371 2.15748 4.2079 1.49814 -0.195967 -0.825122
368 1 4.99081 6.61736 4.90878 1.1376 -1.4085 -0.042324
369 1 2.69677 0.148199 3.60931 -0.55243 0.176747 0.348708
370 1 9.30924 3.27312 5.207 -0.600161 0.351321 0.891434
371 1 7.02437 6.41429 8.34751 0.524502 0.191987 0.0293774
372 1 3.65587 2.11199 5.65042 -0.810119 1.07049 -0.663335
373 1 4.60799 7.26448 7.08733 0.0227033 1.01732 -0.51325
374 1 6.08413 6.5583 3.68708 0.75637 -1.06871 0.240325
375 1 5.29972 4.67983 3.94554 1.49533 0.36328 0.304044
376 1 6.9195 4.30198 3.53467 1.16216 -0.755135 -0.793641
377 1 4.06952 2.88725 5.87356 0.465313 -1.08185 -0.94525
378 1 6.72271 0.731391 1.95474 -0.402788 0.266942 -0.019289
379 1 2.57141 7.41291 8.92955 0.103285 -1.04859 -0.200145
380 1 4.47225 3.46327 3.3034 -1.43987 -0.0724993 0.731044
381 1 7.87592 6.52841 6.19957 0.869177 -0.602293 -0.0040299
382 1 5.09759 3.16422 6.91448 0.980197 -0.922736 0.239582
383 1 0.237544 9.33454 4.55753 -1.10516 0.560607 0.303345
384 1 8.94448 7.34427 7.57015 -0.166952 0.174945 0.527717
385 1 6.4191 4.32138 4.60385 -0.402077 -1.90086 -0.0845187
386 1 5.99808 0.450413 1.24345 -0.773432 -0.169957 -0.907505
387 1 4.8917 0.105552 5.26868 -0.649571 0.524492 0.213149
388 1 8.6687 6.326 6.53714 1.52995 -0.396213 -0.363447
389 1 1.92161 5.37606 4.16562 0.0782471 -0.159022 0.430898
390 1 3.46377 1.66968 4.68834 -0.722425 -0.398805 0.0498937
391 1 5.03807 3.76378 2.15853 -0.761198 -0.586285 -1.69759
392 1 7.4346 8.90202 0.615531 -1.78653 -1.15955 -0.513592
393 1 9.30705 5.92901 5.9057 0.160999 -0.507379 0.489285
394 1 2.78611 4.22755 6.25892 1.17047 -1.15176 0.451452
395 1 2.98732 7.18765 7.62421 0.249942 -0.371032 0.250621
396 1 6.1109 5.1289 4.14273 -0.0350157 1.42076 0.192624
397 1 3.3313 5.82859 9.32779 -0.0601252 0.578812 1.63807
398 1 7.12001 4.33379 5.21694 1.12278 0.68683 -0.55393
399 1 8.17556 2.51185 2.67116 -0.610912 0.130942 0.870068
400 1 0.901453 6.20566 0.862639 -0.384772 -1.06737 -0.152944
401 1 0.651692 1.95802 7.03302 0.65738 0.77703 0.232365
402 1 1.22802 2.79672 3.93312 0.503859 0.356817 0.118906
403 1 8.94001 3.508 2.67006 -1.0598 -0.175566 -0.930717
404 1 2.90953 2.10776 0.674267 -0.997842 -1.4582 0.466339
405 1 2.95268 8.21989 6.33921 -0.883574 0.0688588 -0.250219
406 1 5.14318 7.9242 1.25153 0.0546353 0.0376432 -0.505235
407 1 6.28854 3.79657 6.27736 0.0033102 0.822728 0.0795738
408 1 3.57622 8.86606 6.89486 -1.99524 -0.163613 0.602303
409 1 3.42207 4.91816 0.584521 0.290176 0.410285 -0.208332
410 1 8.05066 7.39013 3.34915 0.352208 0.375008 -0.22777
411 1 3.4676 0.953306 1.9734 -0.711735 0.451329 0.105823
412 1 3.51001 6.4479 7.51451 1.28672 -0.98501 0.579297
413 1 2.32242 3.61824 1.66148 -0.782395 -1.77514 -1.3195
414 1 2.29931 7.95826 0.73815 0.698877 -0.605422 -0.159028
415 1 7.94748 5.06282 8.53829 -0.353541 0.558316 1.03201
416 1 1.49209 2.40334 9.22873 -1.51388 -0.834875 -0.259764
417 1 5.71023 8.73764 0.714573 0.416933 0.673448 -0.105119
418 1 7.18398 6.67264 3.9471 -0.395917 0.148835 -0.146281
419 1 2.03416 1.55739 6.6186 0.415886 -0.102553 0.426751
420 1 9.19052 4.69047 2.89326 0.228961 0.0605975 -0.0569036
421 1 0.209138 2.99455 3.28647 0.296805 -1.30551 0.726086
422 1 1.92692 3.2417 3.35546 -0.228433 0.00116972 -0.998044
423 1 4.84349 7.96495 5.7563 -0.716859 -1.52377 -0.29469
424 1 4.42672 6.25166 8.55213 -0.153333 -0.0503764 0.288321
425 1 4.57772 7.80749 2.01301 -0.576567 0.316376 -0.766546
426 1 1.78672 8.51875 8.40517 0.913691 -0.109262 1.52512
427 1 5.64378 5.59187 3.14683 0.438813 -0.327632 -2.23397
428 1 2.91104 6.19833 1.75221 -0.615327 0.138973 -0.473806
429 1 0.03876 6.37577 8.78055 0.528379 0.412419 0.800074
430 1 2.92106 8.38569 5.01855 -0.687437 0.700307 1.16295
431 1 9.1106 7.32637 6.78381 -0.45446 0.431262 -0.929544
432 1 3.76477 6.65441 5.07331 0.912055 -0.66823 0.978184
433 1 6.82946 7.43234 8.25106 -0.0609501 -0.143676 -0.760367
434 1 5.04125 1.55754 1.62038 -1.37019 -0.0468267 -0.271546
435 1 4.55554 7.95805 0.359561 1.46406 -1.37609 1.53946
436 1 5.94318 4.0124 1.85468 1.77308 0.13364 0.935128
437 1 6.1986 2.85243 1.53852 0.281771 0.888433 0.79386
438 1 5.17261 8.69741 6.1775 -0.72853 -0.7587 0.572959
439 1 3.30196 0.712443 4.71282 0.112911 -0.368431 -0.555195
440 1 6.3072 1.38853 2.55458 1.21166 0.514942 -0.868668
441 1 4.5458 8.75852 5.44934 -0.23867 -0.639102 -1.52686
442 1 7.09585 1.55237 6.21037 -0.407478 0.358455 0.657738
443 1 1.87077 7.90194 9.10167 0.513641 -0.98329 -0.854194
444 1 0.253914 4.3401 5.72446 0.174684 0.375073 0.809785
445 1 1.27633 7.48726 7.50017 -1.11483 -0.744894 -1.01473
446 1 1.58657 4.94538 3.37912 -0.907933 -0.60611 -0.169366
447 1 1.36696 0.740646 0.531047 0.724219 -1.05459 -0.349745
448 1 8.01928 1.24625 7.67658 -0.255656 0.249987 -0.37461
449 1 2.19485 0.361123 8.23897 0.762477 0.0989884 0.824356
450 1 4.77746 4.85945 4.81712 -0.396953 0.0508462 -0.868927
451 1 3.3388 7.94621 1.10515 0.529836 0.717562 0.832373
452 1 4.68723 7.02826 0.392804 -0.0717148 -0.203883 -1.1332
453 1 2.36718 7.94023 5.66781 -0.75372 0.299352 0.445622
454 1 2.21401 1.10331 2.28707 0.483008 0.4256 0.551232
455 1 4.51248 2.43457 3.34397 0.336734 -0.24946 1.03824
456 1 0.335562 2.91122 7.87895 -0.824515 -1.52628 1.72309
457 1 2.26055 3.75156 5.14976 -2.2867 -1.44621 0.738831
458 1 6.58568 8.26046 0.83802 -2.09224 0.687745 1.63293
459 1 6.99755 2.62893 6.1196 -2.2025 -0.206249 -0.737186
460 1 2.09905 2.70588 8.55722 0.733348 0.233941 1.35797
461 1 8.13623 5.35146 3.70432 -0.0069183 -1.00121 0.683371
462 1 8.18224 4.38857 7.80034 -0.310897 -0.31637 -1.01864
463 1 6.78969 0.613259 6.71756 -1.78556 -0.0293621 1.47193
464 1 4.40145 4.40326 3.69512 1.32346 0.15509 0.600312
465 1 0.102344 5.96598 2.84086 0.947009 -0.71031 1.03445
466 1 4.67545 0.101523 4.20792 0.365453 -0.376086 -0.692903
467 1 1.15121 1.14407 7.54977 -0.143278 0.324967 -0.392334
468 1 5.51046 8.49366 9.21847 -0.312734 -0.294928 0.355057
469 1 6.52836 5.36639 3.38217 0.867432 -1.2228 -1.28224
470 1 3.64354 6.75132 6.61203 0.785412 -0.189997 0.100895
471 1 5.93739 1.47704 4.91026 -0.0891352 -0.0236048 -0.491922
472 1 7.79023 1.45029 4.21513 0.254961 0.693433 -0.553989
473 1 4.39971 3.86037 7.17014 -0.186806 1.37976 -0.619623
474 1 7.0735 2.30872 8.00151 0.503039 0.856723 -1.72239
475 1 8.60052 8.71264 3.8864 0.261405 1.1685 -0.966893
476 1 3.94171 2.89333 6.95635 -1.13002 -0.263601 1.41543
477 1 9.11729 8.35521 4.71525 1.26536 1.11975 -0.207656
478 1 1.43197 1.11987 3.79896 0.291331 -0.439375 0.034506
479 1 8.65714 7.77336 4.00862 -0.639951 0.564423 0.304776
480 1 1.61834 1.28977 8.2907 -0.796612 0.00593819 0.857169
481 1 8.58515 6.91797 0.102317 0.276854 -0.0868302 -1.35251
482 1 4.8461 0.765298 0.1512 -0.248557 -0.100004 0.611759
483 1 6.41507 1.08392 3.36842 -0.652259 -1.14531 -0.863489
484 1 7.56205 5.04413 7.30493 -0.065112 -1.49694 -0.561589
485 1 8.90145 3.0959 5.94427 1.02859 0.349154 0.989648
486 1 2.54426 5.40801 1.31102 1.30338 0.356428 -1.01996
487 1 7.24971 0.613262 5.77044 -0.654729 -0.331723 0.234547
488 1 4.57596 7.94896 4.96431 0.101107 0.336066 -1.37123
489 1 5.26324 5.96422 0.504234 -0.288014 0.0172676 -0.748339
490 1 6.49699 6.04896 7.42373 0.549068 -0.796772 -0.257397
491 1 4.88457 1.03188 3.85866 1.61859 -0.365186 1.37123
492 1 0.471003 3.68192 7.02671 0.489535 -0.652134 -0.334382
493 1 6.87379 6.96018 2.26571 -0.486897 0.703146 -0.634592
494 1 2.53551 1.23857 8.55812 0.391039 -1.25393 0.134353
495 1 7.25988 7.84813 6.08635 -1.21479 0.353661 -0.936361
496 1 6.49361 1.71888 0.982673 -0.598039 -0.143955 -0.268659
497 1 5.21894 0.862522 4.7401 0.0568956 -1.50465 -0.104701
498 1 0.953132 6.56812 5.60885 -1.00613 1.06098 0.35511
499 1 4.59922 0.880244 5.58817 -0.529989 -0.191126 -0.934122
500 1 3.80188 3.2391 7.83728 -0.0993111 -1.35863 -0.0795127
501 1 9.04232 7.29902 0.865372 -0.109848 -0.610681 -1.57629
502 1 4.40269 5.77943 4.90258 0.55017 0.852943 0.537693
503 1 5.92329 8.56576 1.63786 -0.379886 0.68411 2.17235
504 1 8.15184 1.31081 3.33201 1.3372 0.156522 0.342771
505 1 7.55998 8.70945 7.67433 -0.635666 -1.5357 0.688557
506 1 2.14727 6.13836 0.586091 0.0648616 1.19674 -0.0269712
507 1 4.05503 6.3994 0.101696 1.012 0.794074 0.774972
508 1 7.48306 8.3346 6.76802 -0.569817 -1.50295 -0.10193
509 1 6.96231 4.99424 4.36929 1.69828 -0.121202 0.368094
510 1 0.191487 7.92432 1.8828 0.0602854 1.56985 1.30348
511 1 7.80993 1.74745 8.72633 0.164415 -0.145831 -0.739215
512 1 0.333507 7.87872 0.872213 -0.00269922 0.328885 -1.1357
513 1 3.11022 7.04338 2.81619 1.43281 -0.542286 -0.886398
514 1 6.49687 5.05182 7.31594 2.36151 0.249904 1.68357
515 1 5.81281 5.43863 8.04294 0.862555 -1.81809 1.09057
516 1 4.54676 7.17797 5.37164 0.566682 0.658607 -0.722018