ITEM: TIMESTEP
40350000
ITEM: NUMBER OF ATOMS
1000
ITEM: BOX BOUNDS pp pp pp
0.0000000000000000e+00 9.4000000000000004e+00
0.0000000000000000e+00 9.4000000000000004e+00
0.0000000000000000e+00 9.4000000000000004e+00
ITEM: ATOMS id type x y z vx vy vz
1 1 5.91681 4.35007 3.20084 -1.22519 -0.292589 -0.385599
2 1 5.5992 0.21934 8.76355 0.31755 -0.162062 -1.70947
3 1 3.43903 8.20502 8.23399 -0.594842 0.515111 -0.613212
4 1 4.34557 5.21131 0.607886 -0.636535 -0.663142 0.277872
5 1 6.6518 1.62292 7.10815 0.00575724 0.2127 0.436001
6 1 7.88533 9.23467 4.50504 -0.560364 -0.245201 -0.214234
7 1 2.5583 6.02442 1.2253 -0.174803 1.39257 -0.846195
8 1 8.63613 2.18462 4.51513 0.195427 0.449945 0.221828
9 1 7.64519 8.41878 7.14098 0.197051 0.0352767 0.5454
10 1 0.506268 5.80008 6.54334 -0.391771 0.0172091 0.161162
11 1 5.9259 4.77563 9.20105 -1.9487 -0.236061 -1.57649
12 1 8.62452 3.98592 1.89122 0.22754 -1.29521 1.07713
13 1 3.23712 1.17291 2.9062 -1.09633 -1.35907 -0.167324
14 1 6.04156 0.82325 3.05833 -0.381153 -0.665118 -1.20636
15 1 0.693785 6.62838 0.298879 0.218572 0.0983582 -0.132917
16 1 3.0586 4.18175 3.47864 0.716035 0.821933 1.10702
17 1 6.91139 5.6362 6.68774 -0.200088 -0.195055 0.771395
18 1 0.91225 8.80189 7.68107 -1.02595 1.10103 1.32441
19 1 8.36647 4.89715 2.06243 -0.353268 0.436926 -0.202207
20 1 0.281438 0.308126 6.98046 -0.0871807 -0.891368 0.668956
21 1 7.4506 6.07189 5.7228 0.74268 0.977088 0.559704
22 1 2.96285 8.52111 0.266792 -0.114279 1.02642 -0.198133
23 1 5.38116 5.39578 3.18711 0.63433 -0.346162 -0.129618
24 1 8.06228 6.82481 3.05336 0.572306 -0.757636 0.816982
25 1 7.5509 1.18168 5.33949 0.389293 0.362216 -1.33819
26 1 3.22878 2.1157 3.11675 0.171876 -1.13739 0.440989
27 1 1.17079 9.26417 9.2999 -0.116342 -0.311948 -0.112831
28 1 2.53958 5.96882 4.02324 -0.118011 -0.468826 -1.26819
29 1 8.42911 5.44171 6.18154 -0.885558 1.07627 0.760727
30 1 1.32121 3.64939 1.36186 -0.430569 0.188019 0.93179
31 1 6.49998 2.38633 8.78505 0.18467 1.68833 1.89569
32 1 5.63968 2.40599 3.40109 -0.56723 1.4331 2.37713
33 1 3.6185 7.09344 4.51535 -0.398379 -1.2322 1.07826
34 1 0.945274 3.70905 9.28866 -1.56933 1.0234 -0.441697
35 1 1.30288 3.14763 3.11174 0.422112 0.562961 -0.499799
36 1 8.67809 6.6343 2.2598 0.666009 -0.26023 -0.84989
37 1 1.55076 4.32044 9.36893 0.302799 0.253437 -0.134754
38 1 2.15934 1.83994 3.26872 0.513682 0.63663 1.18914
39 1 1.24442 2.84757 8.35997 1.16624 0.14662 -0.0949913
40 1 6.23861 7.5276 5.99064 -0.485274 0.939239 -0.167023
41 1 5.88015 6.7443 8.74133 -0.19565 -1.07359 -0.164537
42 1 4.87598 6.87987 5.2744 -0.692287 1.11153 0.840757
43 1 5.48838 3.29363 5.09579 0.892026 -0.331144 0.443796
44 1 7.73426 4.47811 8.49455 0.232963 0.218638 -0.321497
45 1 3.96448 5.50829 2.40926 1.05969 0.551897 0.228909
46 1 1.65329 3.30988 6.08419 -0.967996 0.35626 -0.974213
47 1 6.85851 1.67062 8.09471 1.58279 1.11396 0.760043
48 1 4.80514 7.70688 1.06251 -0.330858 -0.120566 -0.440467
49 1 3.9717 2.16233 0.57053 0.438843 0.989532 1.0982
50 1 4.03829 8.57028 1.5999 0.245972 -1.46235 0.83596
51 1 4.85818 8.28454 6.9919 -2.23523 0.289487 -0.569339
52 1 8.69066 0.0577946 8.17095 -0.801642 0.43708 0.25364
53 1 6.15067 6.92998 1.23707 0.0740402 -0.201564 -0.0825189
54 1 4.37535 1.75982 8.79557 0.115559 -0.607707 -0.153453
55 1 5.90909 3.44226 6.95613 -0.566699 -0.0952095 0.0788599
56 1 6.63273 5.1013 2.36711 0.372673 0.538969 0.271596
57 1 8.69952 7.64073 0.82896 -0.43406 0.04755 1.2081
58 1 4.70926 1.45041 7.7161 -0.339846 -0.335197 -0.918651
59 1 0.148868 4.96828 0.587804 0.489161 0.137567 0.465863
60 1 0.911296 0.734769 0.354975 1.19223 -0.183865 -0.991747
61 1 1.64066 3.54732 0.496282 -0.242368 0.580588 0.543808
62 1 3.42396 7.00124 7.42948 0.686294 0.529357 -0.529408
63 1 0.98213 9.22601 0.729897 0.0673065 -0.124893 -0.407827
64 1 3.31099 7.95434 1.82779 0.106541 -0.820444 -1.0699
65 1 2.29761 2.38328 1.77434 0.00793605 0.641205 -0.212138
66 1 6.70559 6.77148 2.41568 1.57834 -0.200535 2.13562
67 1 5.6525 5.94751 8.1338 -0.762797 0.18079 -0.529856
68 1 3.4777 7.77125 3.27803 -0.0365201 1.22734 -1.49408
69 1 0.516706 7.69563 1.2616 -0.953762 1.46876 -0.755937
70 1 1.0246 6.04223 3.30072 0.503682 0.126345 -0.09773
71 1 8.42103 7.29644 0.0593916 0.232949 -0.0683319 -0.0860677
72 1 2.77055 9.08939 8.00478 -0.739264 -0.886262 -2.33751
73 1 9.02324 4.63792 7.6967 0.293556 0.650994 -1.27387
74 1 4.92198 5.40338 2.29709 0.670187 -0.537205 0.613421
75 1 6.45789 2.62705 6.76251 -0.155316 -0.389044 0.018031
76 1 3.2944 9.21257 3.63777 -1.30813 -0.258944 1.08068
77 1 4.5838 4.67308 8.49382 0.230643 0.0533932 0.416439
78 1 0.0186247 0.0582773 3.06157 -1.27383 1.44187 -0.371569
79 1 8.82584 3.64743 7.91778 0.0637837 -0.157089 0.556271
80 1 1.92734 0.748771 6.00819 0.15368 -1.37556 1.13315
81 1 2.24509 4.91366 4.55699 -0.284747 1.49439 1.84729
82 1 8.78745 3.77404 3.60832 -0.807982 -0.638937 -1.20546
83 1 9.16403 8.46676 0.417247 -0.96085 0.62472 -0.235564
84 1 7.83766 2.2302 2.8661 -0.192588 0.182958 0.0930511
85 1 9.11164 4.62448 3.36132 -0.212292 0.260338 1.12907
86 1 2.18383 2.48604 6.01793 1.17662 -0.565047 0.34897
87 1 6.35359 7.53538 8.28731 -1.94038 1.61398 0.40884
88 1 2.29251 4.98226 7.44932 -0.637741 -0.40632 -0.406027
89 1 2.1328 2.23928 5.13439 -0.0948018 0.121437 0.130906
90 1 7.04943 3.13308 9.02609 0.495054 0.781765 -1.70965
91 1 7.53274 6.17112 7.77448 -0.767697 0.994004 0.493036
92 1 4.55658 0.635461 8.59333 -1.12134 -0.917451 -0.704221
93 1 7.03598 7.0574 3.47427 -1.70786 0.718519 0.643071
94 1 2.25215 4.49959 2.54622 -0.430381 -0.682656 -0.199254
95 1 1.51114 0.374793 8.09699 -0.383579 0.629457 0.223084
96 1 5.53538 1.84542 1.63607 0.724188 0.171746 -0.101779
97 1 7.65632 1.4668 3.32496 1.0133 -1.43003 -0.630981
98 1 9.06194 5.89478 9.33318 -1.29722 0.972945 -0.293347
99 1 0.335815 8.7669 5.49458 -1.09346 -0.0508474 -0.217302
100 1 0.739987 6.83809 4.40534 -0.72296 1.29886 -0.763875
101 1 7.51785 3.91051 9.22616 -0.722435 0.303667 -0.250474
102 1 2.09808 9.31833 8.75776 1.36366 0.906218 0.359041
103 1 6.65726 2.75042 5.77071 -0.53474 -0.538944 -1.00426
104 1 2.04849 7.436 0.0473887 -0.970095 -1.7633 0.791601
105 1 4.59162 5.26815 3.38676 0.227098 -0.39443 0.623935
106 1 0.483134 0.810854 2.19254 -0.577394 0.772947 -1.08958
107 1 4.57992 8.73358 6.30347 -0.99707 0.334963 2.51102
108 1 0.0983686 1.2611 0.455801 0.0338702 0.56031 1.03304
109 1 4.28962 5.54863 1.42159 -0.213682 0.451899 -0.0712993
110 1 0.40009 2.88709 2.68041 -0.481314 -0.128169 -0.46238
111 1 5.63348 0.798005 0.12887 -0.497607 1.08416 0.925384
112 1 6.39226 8.51746 3.63694 -0.672292 -1.30963 1.10968
113 1 8.25744 9.18806 0.221526 0.867087 1.42743 -0.433107
114 1 7.86362 5.24908 7.8984 -0.898127 -0.160591 -0.124741
115 1 5.00676 3.92455 1.83961 -0.167461 -1.1833 -1.5356
116 1 6.36099 8.55193 8.20892 -0.842606 0.395875 -0.454039
117 1 2.346 3.63781 3.16778 -0.0899489 -0.115769 0.396287
118 1 4.88817 8.7771 3.96155 -0.113865 -1.29498 -0.515617
119 1 4.35135 6.07634 2.96459 0.914524 -0.820788 0.214804
120 1 5.26771 4.90218 4.81737 0.510086 -0.342095 -0.658742
121 1 2.39529 6.71439 0.350264 -0.39458 -1.26291 -0.288224
122 1 0.770758 8.95504 2.9338 0.211741 -1.53177 0.0957962
123 1 5.31715 7.36964 3.47841 -2.23445 0.921802 1.00448
124 1 4.55475 6.7428 4.38965 0.526768 1.74251 1.4066
125 1 1.63226 5.16817 1.91982 -1.16947 -0.0449408 -1.09904
126 1 0.0329546 8.00864 6.3972 -1.80171 0.616709 0.381129
127 1 3.39296 6.60725 6.61226 -0.0217655 1.14469 0.554241
128 1 7.08831 1.26528 9.12858 -0.394111 -0.584556 0.230073
129 1 7.80082 1.91245 4.78719 -0.0349806 -0.365807 0.256296
130 1 0.754057 4.16957 0.685172 -0.761196 0.521794 -0.429403
131 1 3.18517 6.96536 8.92592 -1.41219 0.910868 -0.135417
132 1 6.09394 3.06977 1.06975 -0.175464 0.250139 -0.670278
133 1 4.39221 2.94634 1.7699 1.71572 0.809426 0.622325
134 1 7.37634 1.96633 6.46741 0.0520794 -0.155759 -2.26545
135 1 4.92696 9.17045 1.17792 0.577514 -0.51825 -0.209882
136 1 6.45819 6.60795 7.68139 -0.561982 0.489604 -0.537228
137 1 6.40864 1.19691 6.1572 0.474682 -0.865022 0.260133
138 1 5.01258 2.97748 2.82863 -0.524099 0.713743 -0.536014
139 1 0.555665 8.5436 1.24809 -0.910428 0.237541 0.183604
140 1 8.68968 1.62978 8.19982 0.422739 0.212927 0.8822
141 1 5.23576 1.28579 2.43263 0.535732 -0.0647766 0.231777
142 1 7.68208 0.287122 7.53911 0.299261 1.32009 -0.898612
143 1 5.97976 8.31592 5.41483 0.354605 -0.635203 -0.00679377
144 1 7.51956 7.30586 9.02783 -0.821467 -0.267549 1.84789
145 1 8.70113 7.36996 3.56331 -0.43997 0.730222 -0.729683
146 1 5.81071 9.02762 7.60918 -0.142357 0.254764 1.33944
147 1 5.98628 4.78872 7.7204 -0.992619 -0.442379 -0.920327
148 1 3.85667 5.65215 6.04254 0.164926 -1.6703 0.255707
149 1 4.83516 4.46454 0.97546 0.693305 1.20868 0.126912
150 1 0.886048 3.65183 2.34462 0.920051 0.0037285 -1.1506
151 1 1.65863 6.07232 0.00994437 0.307015 1.74988 -0.451593
152 1 5.41146 4.77492 5.7693 -0.247346 0.147346 0.658624
153 1 2.86272 6.98406 2.12183 -1.22292 0.76623 0.591356
154 1 0.03521 0.126404 4.06271 -0.298145 -0.31228 0.158362
155 1 1.99489 8.93786 3.26402 -0.573468 -0.979379 0.881513
156 1 6.74787 6.06791 8.74583 -1.32955 -0.100677 -0.0913935
157 1 2.42455 0.75654 3.17963 0.599244 -0.296051 0.641615
158 1 1.81736 1.52343 5.61021 -0.638991 -0.164479 -1.55625
159 1 1.5189 0.712314 8.99344 -0.451105 -1.72843 1.32788
160 1 1.11319 5.05018 3.41694 -0.0392466 0.711135 0.208257
161 1 4.44178 6.3656 1.99578 0.370992 -0.571569 -0.937415
162 1 1.60637 1.23942 3.15341 1.27926 -0.216243 0.209363
163 1 4.82571 3.165 7.5485 0.00709585 -0.285049 0.150013
164 1 6.39472 7.41396 4.91923 -0.40458 1.8944 0.412007
165 1 0.130094 8.28688 8.09332 -0.767207 -0.222009 -1.561
166 1 7.87151 8.72808 3.16609 0.237067 0.280092 -0.269742
167 1 5.47258 5.534 7.3145 -0.827889 -1.34919 0.0787308
168 1 2.89777 0.200334 5.86752 -0.60959 -1.00672 1.0797
169 1 9.13707 1.11035 1.27577 -0.307564 -0.101806 -0.0745694
170 1 3.7971 1.59098 5.02971 -0.404458 -0.112225 -0.724155
171 1 8.60821 3.71647 4.79303 -0.700693 -1.08305 -0.207113
172 1 4.90277 9.24884 7.26128 -0.407517 -0.121993 0.228125
173 1 2.92208 1.74205 4.97739 1.55433 -0.144918 -1.35539
174 1 1.67243 9.12492 4.5201 0.620309 -0.29782 1.12811
175 1 4.16526 3.71276 1.15289 0.898628 0.625226 -0.699069
176 1 7.02206 7.28452 1.63963 -0.538466 0.0821498 0.180894
177 1 1.79332 7.61185 8.56388 -0.515597 0.971406 -0.778043
178 1 5.80174 7.53395 9.16601 0.668396 0.501037 -0.890766
179 1 0.984575 6.18249 7.23175 -0.7509 -0.0020244 0.562276
180 1 5.96686 3.8 0.124473 0.1697 -0.393132 1.87433
181 1 3.94396 9.36375 5.62295 0.60522 1.04348 0.535313
182 1 7.19432 4.29278 0.671317 0.759892 -0.121177 1.01986
183 1 4.31726 7.13451 3.50305 -1.64873 0.316705 -0.438492
184 1 9.21392 4.6263 8.50575 -0.762162 0.550456 -1.22344
185 1 4.05675 6.99298 0.0855574 0.356077 0.0161088 0.175277
186 1 1.54018 3.76786 6.91164 -0.478714 0.902438 0.10577
187 1 6.21282 8.61292 6.79996 -0.777065 -0.55222 0.66816
188 1 1.62919 8.29338 5.11395 -1.72402 -0.0420933 -0.137629
189 1 6.38827 0.053832 0.631705 -0.580284 -0.998743 0.19235
190 1 7.5325 1.20821 7.4461 -0.587745 -0.456392 1.06842
191 1 7.16745 6.49754 6.62739 1.05493 -0.0888458 0.811327
192 1 3.60539 1.25824 8.64161 -0.974133 -0.283733 -0.493835
193 1 3.28247 4.02953 9.35772 -0.474082 -1.13129 0.7873
194 1 7.24122 3.43049 5.44209 0.547874 -0.972669 1.06115
195 1 7.98733 3.67839 0.504793 -1.01534 -0.406214 -1.49303
196 1 1.27675 8.54973 3.55637 -1.05673 0.054771 0.432094
197 1 2.76652 3.55716 8.76652 0.0246206 -0.102333 0.309949
198 1 6.71403 0.034512 8.35952 -0.213546 -0.0525504 1.57041
199 1 4.52472 2.87596 5.90779 0.96717 0.12616 -0.307118
200 1 7.115 8.58161 0.671533 0.114201 0.988333 1.47683
201 1 0.781168 8.14931 2.03794 0.0120374 0.0924042 0.815789
202 1 4.15295 8.51454 2.81913 2.29467 2.45176 -0.689738
203 1 8.29264 8.161 3.91856 -0.573822 -0.271221 0.364715
204 1 5.33823 0.526742 7.92893 -0.10958 1.20569 -0.269189
205 1 8.39631 6.96087 5.33077 -0.377755 0.639399 1.2652
206 1 2.66944 1.67918 8.72236 0.921023 -0.435738 0.922773
207 1 6.59923 2.0395 3.35123 -1.05718 0.982344 -0.959551
208 1 3.38911 6.23639 1.8484 0.901179 0.183843 1.36507
209 1 3.50998 6.58568 0.75561 0.089345 -0.072833 1.57771
210 1 6.25523 1.48078 9.3501 0.975182 0.387049 -0.763163
211 1 0.00915354 7.3004 2.77153 0.85021 0.259045 0.660338
212 1 7.27751 9.1624 9.20895 -0.234557 0.20875 0.229892
213 1 5.29843 2.17961 2.45535 0.354372 -0.332921 -0.116308
214 1 4.24904 4.81991 6.95901 -0.8302 -0.228163 1.45828
215 1 1.12244 3.39524 4.26429 -0.274021 0.652934 -0.188679
216 1 5.64906 9.36703 1.64977 -0.0993394 0.278983 0.550191
217 1 0.0668158 0.261782 5.89288 0.876646 -0.0708326 -0.938728
218 1 6.60984 0.883118 3.82087 1.0222 0.260011 -0.275875
219 1 1.78541 9.01844 6.37314 -0.727621 1.34924 -0.92581
220 1 4.06774 7.93566 4.09334 0.183777 1.5456 0.51779
221 1 8.23375 5.62369 3.33481 -0.166776 1.23501 0.337074
222 1 8.09263 9.11355 2.34577 0.540853 0.936395 -1.11917
223 1 6.87865 1.06399 2.8947 0.251195 -0.156863 0.353521
224 1 1.32813 5.2823 7.05622 1.24126 0.755481 -2.06018
225 1 8.3107 2.78607 0.365437 -0.345756 0.754205 -0.13276
226 1 1.17614 5.04987 8.90963 -1.17714 0.111353 -0.573798
227 1 2.14844 6.47355 5.17498 0.248711 -0.737858 -1.00957
228 1 9.13297 7.12079 4.63551 -0.259277 0.586631 1.11445
229 1 5.34106 4.65917 3.81901 -0.56914 -1.67525 -0.969548
230 1 3.51364 2.51088 2.26531 -0.852112 1.30208 0.0045198
231 1 3.3533 6.03267 4.44147 -0.17815 0.282473 -0.308713
232 1 9.30555 6.09498 7.40685 -0.0581802 -0.842683 -0.328023
233 1 2.83956 4.05545 7.94656 -0.259663 -1.45072 -0.670424
234 1 6.27647 4.52379 6.239 -1.15291 -0.212046 0.308964
235 1 1.71969 5.67607 6.23841 -0.808124 -0.322869 -0.18034
236 1 6.54147 2.62075 3.9834 0.0872896 -1.06121 -0.199088
237 1 4.92703 2.52634 1.19185 0.431429 -0.92852 -1.12139
238 1 6.23386 3.75424 3.9916 0.852631 -0.212608 -0.122697
239 1 3.96145 7.9567 0.865293 0.922288 -1.9789 0.285905
240 1 6.99785 4.6584 3.09133 0.119616 -0.503827 0.849367
241 1 7.3139 4.79012 7.47992 -0.0324288 1.41792 -0.441694
242 1 7.13069 4.83694 6.21616 -1.32568 0.11391 0.184212
243 1 7.82448 1.53361 1.99502 -0.0117363 -0.0208963 0.922985
244 1 8.67758 7.03149 6.45718 0.302467 -0.257784 0.485965
245 1 5.18244 0.707568 3.219 0.49919 -0.0155894 0.56162
246 1 1.29259 7.12246 7.04936 0.969902 -0.105002 -1.06839
247 1 4.51933 8.78683 0.467422 0.155638 0.696277 2.36618
248 1 3.38163 1.7585 1.37496 0.355855 0.515642 0.49938
249 1 7.27345 7.76401 2.44623 -0.04043 -1.17403 0.379172
250 1 3.21076 4.8004 7.4845 1.84332 0.18712 -0.567081
251 1 8.32803 8.28458 8.14707 1.22822 -2.02809 1.17073
252 1 8.17115 7.85776 1.60576 -0.206369 -0.289957 0.910778
253 1 1.71914 7.09013 4.54682 0.506249 0.847103 1.05989
254 1 8.41752 6.06262 1.62328 0.466245 -1.58866 -1.93956
255 1 1.5039 6.49624 0.852422 -0.259396 0.427657 -0.164621
256 1 8.84022 2.72483 9.02295 -0.380713 -1.49245 -0.643321
257 1 1.64861 2.96657 5.25043 -0.232721 -0.764945 0.534148
258 1 6.81475 7.8845 9.17195 0.812025 0.862986 -0.0554303
259 1 8.06307 5.55082 8.93111 -1.06112 -0.930995 -0.990306
260 1 9.28872 4.98979 6.34727 -1.1355 0.283356 0.758441
261 1 5.99212 6.83361 3.33211 0.653284 -1.0563 -0.548027
262 1 8.65632 1.63989 9.07766 0.81749 -0.802463 0.852153
263 1 1.73516 3.89302 8.61984 1.15383 -0.529256 -0.683293
264 1 4.47532 0.796579 4.61229 0.647904 -0.338321 0.0929685
265 1 5.38303 5.15718 8.29476 -0.450773 -1.15983 0.423624
266 1 0.112086 3.75461 0.332172 0.135604 0.201265 -0.0379489
267 1 2.13049 8.07174 0.635569 1.02361 -1.76751 -1.48577
268 1 3.90526 8.49786 7.13603 -1.54203 0.464844 -0.91065
269 1 8.01438 6.19129 6.60379 -0.225498 -0.0918315 0.149732
270 1 2.39378 8.45136 7.03892 -1.10211 0.580577 -0.308171
271 1 8.85885 5.49069 8.28866 -1.24382 -0.117954 0.706001
272 1 0.583307 2.99246 5.39939 -0.0151988 0.929246 -0.596899
273 1 0.557195 0.375181 1.26861 0.318518 0.36401 0.318263
274 1 6.48409 3.68809 3.04174 -0.138386 -0.594169 0.396356
275 1 2.57637 3.42329 6.47728 -0.863361 -0.337076 -0.0279181
276 1 2.83847 0.0580203 0.0331081 -0.540084 -1.53573 1.03922
277 1 6.43942 4.22512 2.38782 0.0747955 -0.161243 -1.74135
278 1 5.75976 5.1204 1.43844 0.428558 0.714578 0.646345
279 1 1.00015 2.72662 7.53377 -0.375695 -0.823143 -0.193019
280 1 6.74291 0.0457768 1.82106 0.120651 -0.932978 -0.419455
281 1 9.22791 3.86601 2.79133 -0.434434 0.398821 -1.07801
282 1 8.96356 4.44856 0.167542 -0.57659 0.0138993 -1.09893
283 1 4.96681 1.51824 1.01787 -0.974365 -0.377396 -1.75452
284 1 0.937925 6.26516 2.30609 -0.626292 0.738542 0.189573
285 1 0.280392 2.19566 1.3582 0.0767258 -0.106049 -0.358965
286 1 6.32377 9.03586 9.16731 -1.59676 0.188257 1.54352
287 1 0.843881 7.90026 2.91189 0.58302 0.0256855 -0.325677
288 1 0.811843 6.94954 3.34217 1.16855 0.640994 0.239605
289 1 7.73301 6.97485 7.23335 0.470634 -0.747239 -2.44829
290 1 4.30587 1.59381 3.18441 0.165956 -0.989939 -0.222594
291 1 9.0433 8.15954 4.42254 -0.661431 0.315644 0.868595
292 1 3.33518 5.18391 5.54082 0.923571 -0.288617 -0.117384
293 1 0.234679 7.63766 3.75388 1.39154 -0.596935 1.04722
294 1 3.16376 3.53783 7.24671 -0.489844 -0.912309 0.740617
295 1 8.44594 5.05828 5.07337 -1.15901 -0.989839 0.106143
296 1 4.3043 5.03524 5.38598 0.832405 0.0765137 0.0557801
297 1 8.58698 1.50333 0.52355 -0.6281 0.937913 -0.353297
298 1 1.91687 9.26094 1.18929 1.51854 -0.271209 0.219028
299 1 5.44741 3.57537 3.38008 -0.581441 -0.128413 -0.640009
300 1 5.22784 5.84967 5.93239 1.08634 -0.0527166 -0.273504
301 1 8.35479 6.0741 5.49764 -0.12781 -0.47311 -1.64629
302 1 7.0898 7.72822 4.13819 1.18709 -1.10921 -1.28864
303 1 2.16084 8.91216 0.383875 0.0212755 -1.3282 0.360081
304 1 6.85898 0.316679 5.58388 -0.551925 1.01673 -0.0125667
305 1 0.907211 1.21997 8.41974 -0.201253 0.597599 -0.6025
306 1 7.41665 7.91303 8.33679 0.364039 -0.196171 -0.986831
307 1 0.851896 4.48714 6.73466 -0.732663 -0.505441 0.303416
308 1 4.58885 4.14157 3.63707 0.131562 -0.61212 -0.0647619
309 1 1.18185 8.44571 5.90898 -1.76661 -0.186911 1.40206
310 1 4.82567 7.56652 6.11139 -0.0287446 0.742718 1.17687
311 1 5.12097 7.5585 4.42953 0.630157 0.402511 0.614161
312 1 1.7989 6.57973 3.8045 0.489964 -0.447494 0.754888
313 1 2.08951 2.82248 3.5488 -1.4044 1.59514 -0.681579
314 1 6.94991 3.86529 4.63866 1.48744 0.139802 -0.897847
315 1 7.06315 1.9754 5.63892 1.65101 0.591051 0.319179
316 1 8.36924 6.45477 9.07119 0.496669 0.770393 -0.830509
317 1 1.64565 7.91173 7.54186 0.495203 0.191668 1.10679
318 1 3.3586 9.28119 1.69321 0.0100306 -0.273019 -0.504888
319 1 2.75454 3.12252 1.98133 0.62542 -0.138633 0.502957
320 1 5.94234 6.75761 0.392335 1.27297 0.620693 0.531055
321 1 9.00988 5.42696 2.54413 -0.151736 1.66972 -0.191873
322 1 5.62874 4.75265 2.25385 -0.249243 -0.816779 1.2003
323 1 1.5981 2.47095 6.77735 0.434592 0.210813 1.49124
324 1 8.29612 1.77621 7.32778 -1.05798 -0.147311 0.644244
325 1 8.32389 2.70111 8.12824 0.259274 0.00570636 -0.217605
326 1 8.11641 3.47015 5.6661 1.07056 0.309973 1.25728
327 1 5.21974 2.04083 4.1982 -0.214061 -0.569459 -1.27285
328 1 8.19564 4.38326 7.44616 0.648463 -1.36043 -1.03652
329 1 6.13268 7.72937 1.74962 -0.0925389 1.24451 -0.428183
330 1 4.30962 0.663871 2.69242 -0.711821 -1.14539 -2.20535
331 1 0.0889532 3.81146 5.29483 -0.452738 -0.37118 -0.108709
332 1 1.77658 1.49655 0.799008 1.70628 0.66089 -0.447703
333 1 3.94653 5.20367 7.87606 0.0140673 0.366529 0.744127
334 1 2.61427 1.61511 5.98513 0.0789097 0.632933 -0.336
335 1 6.94948 0.719338 0.515381 0.667548 0.551282 -1.55071
336 1 6.39496 9.38649 3.95854 -0.33013 1.57762 0.77454
337 1 3.95499 6.79356 2.57225 0.462352 0.120777 -0.23039
338 1 0.135319 2.4086 4.94346 -0.817236 -0.756318 -0.565231
339 1 5.80264 1.50321 3.64731 -0.065038 -0.290162 0.659678
340 1 3.75648 1.67762 2.30143 0.354836 -0.931111 0.257941
341 1 7.11435 2.86593 3.02562 0.0183083 0.656121 0.299373
342 1 8.41964 3.01826 4.19178 0.2999 0.551598 0.515193
343 1 9.03688 1.94453 6.83811 1.4976 2.09208 -0.117699
344 1 5.83274 7.09411 7.77871 -0.843414 -2.18457 -1.79212
345 1 3.05992 6.78121 3.0518 1.31188 0.435486 0.860862
346 1 2.40929 8.16022 8.0029 -0.279018 0.589951 0.137484
347 1 6.77167 5.1945 0.127619 -0.920056 0.47294 -1.35228
348 1 2.66872 8.65226 1.88784 -1.29592 0.514048 -0.559707
349 1 6.3707 5.67257 3.03692 -0.272861 -1.15928 0.208759
350 1 9.05933 4.31233 1.05429 -0.540016 -0.698816 0.355026
351 1 6.36614 5.99557 4.74251 1.75136 -0.477112 0.14529
352 1 6.21426 5.74261 6.0813 -0.252935 -0.320789 -0.142032
353 1 4.8615 3.4187 9.21767 0.0817482 0.418878 -0.441196
354 1 4.03156 1.86189 8.01699 0.221174 0.581312 0.530514
355 1 6.64703 0.566339 9.15652 -1.16706 0.286205 -1.09601
356 1 8.64449 6.96635 7.36731 0.263602 0.627816 1.56752
357 1 8.05891 0.719644 3.41633 0.253101 0.314121 -0.0756109
358 1 0.181271 9.37001 7.82319 0.580316 0.682521 -1.24409
359 1 8.67945 0.978035 7.59679 1.16411 0.696829 1.17067
360 1 3.14565 1.83164 0.133652 -0.425227 -2.50369 0.0113871
361 1 0.430905 4.84628 4.19662 -0.0931483 1.36464 -0.190128
362 1 1.32442 4.43929 2.26849 0.647848 0.623141 0.031978
363 1 7.1757 1.75219 0.455602 -0.593426 0.705646 -0.667436
364 1 4.9926 2.15935 6.07288 -1.26933 -0.0137608 0.764575
365 1 5.82054 5.71744 0.0101809 -0.464853 0.0286487 -1.41977
366 1 7.44498 3.97471 3.2433 0.388787 2.4866 -1.39023
367 1 5.7235 2.82261 7.92165 0.331608 -1.47011 -0.232045
368 1 4.01493 8.08639 5.86093 -0.0602521 -0.441287 0.0530464
369 1 3.59176 6.17637 8.24679 1.28937 0.641023 0.418597
370 1 4.93359 2.4927 4.95026 0.461319 0.27369 -1.37227
371 1 2.12279 7.96936 1.79931 0.912265 0.0791248 -1.31382
372 1 7.15695 5.23215 8.71775 0.650534 -0.562386 -1.58543
373 1 9.33344 8.60269 7.19515 0.0801241 0.952479 -0.0616354
374 1 7.91197 3.05511 8.94506 -0.176122 -1.19496 1.39767
375 1 3.86467 4.61697 0.166157 -1.23349 -0.445562 0.848181
376 1 6.08218 7.66578 4.16775 -0.618997 -1.36668 -0.943656
377 1 6.26407 3.79327 5.43992 -1.37746 -0.782754 -0.105547
378 1 4.90678 3.37106 6.56373 1.60509 -0.597634 0.333867
379 1 0.213402 5.37965 8.88818 -1.47954 -0.12071 -0.126293
380 1 1.11577 7.39357 0.22948 0.232627 -0.609411 0.0375253
381 1 2.79041 6.80613 8.1835 -0.388664 -0.149364 0.357037
382 1 8.71443 0.0742434 6.45946 0.455027 -0.49026 -0.54963
383 1 8.35925 6.01303 7.63304 -0.380905 -1.26542 1.93624
384 1 1.66726 1.36117 7.97663 0.477899 -0.947124 -1.47442
385 1 6.68138 7.67796 0.645176 0.238588 -0.614885 2.68965
386 1 0.196699 2.80404 0.295296 0.0332893 -0.206233 -0.500386
387 1 0.0492714 6.76381 3.70484 0.961225 -0.279125 -0.931657
388 1 3.42291 2.30557 8.73481 0.716198 0.0393996 0.426684
389 1 7.74561 9.14883 5.53153 -0.855614 0.955009 -0.220867
390 1 6.13202 5.3706 3.92679 -1.14825 -0.415797 -1.27792
391 1 4.64893 8.0062 3.32953 -1.52375 -0.533893 -0.867939
392 1 5.06583 0.59635 6.0203 -1.30912 0.0579359 0.806224
393 1 3.47866 4.21077 6.80574 1.63612 -0.235285 -1.72946
394 1 5.86981 7.49289 6.98826 -0.0472999 0.683198 0.994712
395 1 2.41761 3.45816 5.56082 0.0631591 -0.488309 -1.15078
396 1 4.23494 3.02964 4.39754 0.203217 -0.895248 0.696173
397 1 0.999231 7.79203 8.17617 0.592955 0.167675 0.835208
398 1 0.289187 7.11936 6.66228 -0.334472 -0.952586 0.206743
399 1 8.20183 1.71355 5.77176 -0.95387 -0.118551 -1.44282
400 1 3.27274 7.72966 5.07281 1.2773 -0.815259 0.595275
401 1 3.49911 0.333203 2.71797 0.842214 1.13674 -0.196167
402 1 1.19058 5.20605 4.6378 -0.700194 -0.374946 0.872513
403 1 0.591445 7.55495 5.94455 0.639771 0.328348 -1.73184
404 1 5.22442 6.79508 6.50502 -0.068535 -0.687725 0.350218
405 1 8.32653 2.88473 1.3444 0.94862 0.734459 -1.09649
406 1 5.71796 5.65746 5.19039 -1.18645 0.435173 0.71836
407 1 8.91997 7.81185 7.5983 1.26685 0.440111 0.685628
408 1 4.88733 7.02309 2.75131 -0.492519 -0.060658 1.50122
409 1 0.862771 3.89888 5.95051 -0.0958394 0.218761 -0.763093
410 1 9.07234 5.70301 3.79131 -0.150832 -1.04119 -0.0507159
411 1 2.07171 7.33232 2.61689 0.762547 -0.389662 0.66012
412 1 1.55966 0.819669 5.05189 1.04722 0.697358 -0.470653
413 1 6.60426 3.62045 6.35907 0.320532 -0.67105 -0.53787
414 1 3.68636 7.17058 1.40911 -0.388401 0.530334 1.63975
415 1 1.75769 3.06055 9.14636 1.11463 -1.26968 -0.171647
416 1 3.46592 2.94419 0.168694 -0.744999 0.398095 -0.867818
417 1 1.23563 2.22821 6.04107 0.949469 -1.06375 1.31717
418 1 8.01458 8.89664 6.44146 -2.40593 0.918457 -0.635222
419 1 2.55181 7.30026 7.33541 -0.452645 -0.464251 -0.65811
420 1 3.52988 5.91263 9.36346 -0.237865 -0.557664 -0.85711
421 1 8.94181 4.97516 4.35544 1.53165 0.29917 -0.81683
422 1 3.71839 8.12859 9.13626 1.00368 -0.317526 -0.253027
423 1 0.762013 8.25317 0.433151 0.34571 -0.928747 -1.04217
424 1 5.1136 8.97062 8.21637 -0.0590443 0.876951 -1.03287
425 1 5.66932 7.53478 0.764236 -1.11067 -0.0501312 -0.329716
426 1 6.51716 2.45611 7.70574 -0.0708476 -0.481264 -0.201957
427 1 5.15025 5.80972 1.6171 -0.151659 0.801318 1.08731
428 1 0.834622 1.96984 8.02286 1.01381 0.982149 -0.208007
429 1 4.7181 0.654886 1.0537 -0.91052 1.49523 -0.858007
430 1 6.31384 7.61596 2.78335 1.04018 0.151717 0.642339
431 1 5.76024 6.57555 5.6856 1.46578 -0.811378 0.343044
432 1 8.15679 0.690363 5.81805 -0.81904 0.726711 -0.632001
433 1 8.50356 0.392885 4.31618 0.122391 -0.127132 0.620499
434 1 6.16576 1.63006 2.58781 -0.412832 -0.858905 -1.13224
435 1 0.644781 9.09872 2.03752 -0.649697 1.15421 -0.42149
436 1 2.47692 7.30848 1.30437 1.34061 -1.36269 0.500977
437 1 7.79854 4.7217 4.44266 0.0151201 1.68812 0.255279
438 1 9.22861 1.63648 2.46052 0.053951 1.0414 0.428493
439 1 1.75663 4.85233 8.14824 0.370264 -0.513068 -0.0901917
440 1 0.178188 5.67921 1.94502 -0.268807 0.327666 0.700136
441 1 6.07315 2.11671 6.14462 -1.26493 0.0944385 -0.807159
442 1 1.5133 6.62876 7.96271 0.222444 0.678555 -1.05822
443 1 2.50262 2.62274 2.70877 0.522163 0.239003 0.253991
444 1 1.24254 6.84224 8.89472 -1.27971 -1.10628 0.505719
445 1 7.74337 6.87284 2.15264 -0.362924 -0.120798 -0.439664
446 1 8.09354 7.01505 1.20808 1.08659 1.06629 -0.475988
447 1 6.15411 4.56533 0.586137 -0.488022 -1.21762 0.574319
448 1 2.79112 8.48138 3.48163 -0.63592 -1.21148 -0.117256
449 1 4.83318 6.02594 0.819144 0.165879 -0.677908 0.0548062
450 1 8.76916 5.30717 7.12364 0.739233 0.771663 -0.0498571
451 1 4.36718 1.9103 4.43005 -1.25529 -0.628272 0.0832536
452 1 4.8698 8.5509 1.81231 0.527156 -1.19515 0.221561
453 1 0.626986 5.76906 8.20161 0.49396 0.194975 1.81606
454 1 9.04437 3.08545 5.28427 0.135102 0.769853 -0.34949
455 1 7.57826 9.30959 0.742312 -0.59324 -0.0804051 0.204222
456 1 5.03931 0.746699 7.00664 1.24123 0.0159177 0.409419
457 1 4.35688 2.31038 2.72831 -0.840678 -0.801696 0.800156
458 1 6.31086 9.08825 5.94943 1.97724 -0.563071 0.875211
459 1 3.96562 4.0129 4.5634 -0.716835 -0.6557 0.901358
460 1 0.569329 8.98882 6.43849 0.127132 -0.477873 1.0596
461 1 3.66102 6.61565 3.77743 0.969377 -0.184656 -0.130795
462 1 3.07745 4.89901 0.490829 -0.82095 -0.493744 -0.681423
463 1 1.41356 7.56426 5.65337 -0.139151 -0.705416 -2.10727
464 1 0.730328 0.853508 3.14307 0.475929 -0.0805444 1.51586
465 1 9.23325 2.25588 3.75126 0.890423 0.962688 -0.172463
466 1 6.45239 3.84324 1.55482 -0.0746596 -0.810795 -2.47384
467 1 6.56292 0.445175 6.65176 1.29819 0.123185 0.461683
468 1 8.57178 8.33604 6.84851 0.243264 -0.482722 0.0361903
469 1 5.34836 7.63174 8.34017 -1.15757 0.298598 -0.401882
470 1 5.02257 6.71192 8.46054 -0.681916 0.136565 0.575558
471 1 4.08904 0.0855425 0.954323 -0.371721 -0.212889 1.03801
472 1 1.93332 0.574639 0.705713 0.29483 -1.75353 0.170266
473 1 8.94402 2.95871 6.2 -1.11912 0.640868 -0.976032
474 1 9.13399 3.63914 8.93048 0.134834 0.194414 0.344301
475 1 2.83057 4.23323 6.05008 -1.02166 -0.794792 0.129135
476 1 7.98437 3.43345 7.51065 0.324243 -0.0503873 0.123942
477 1 3.4476 2.40563 4.30936 -1.11394 -1.20615 -0.911518
478 1 8.12162 7.73641 6.44791 -0.0896329 -1.14269 -0.45186
479 1 3.92858 5.25057 8.82733 -1.92946 -0.132537 1.79705
480 1 2.42931 7.55683 4.88182 -0.858792 -0.0253917 -0.316587
481 1 2.49621 0.464436 1.48576 -0.0766939 -1.15526 0.452792
482 1 1.60847 1.45064 6.52296 -0.935387 0.108464 -0.761379
483 1 6.26522 1.06313 8.51673 0.321335 0.904123 -0.0708942
484 1 9.00466 0.547716 5.15184 -0.231578 -0.179656 -0.116967
485 1 3.16892 3.27652 4.25443 0.119315 -1.1286 -1.00877
486 1 1.67673 2.62331 4.32818 -0.97562 0.283451 0.850433
487 1 0.220487 1.76274 8.56931 -0.872359 1.37014 -1.14659
488 1 1.35362 6.12147 4.63569 0.309044 -0.456182 0.0362825
489 1 2.01604 4.07216 7.71614 0.391852 0.713272 0.946561
490 1 9.24132 6.91121 1.21212 0.277601 0.472051 2.22387
491 1 4.39604 0.27182 7.82643 -0.618558 -0.62522 -0.128814
492 1 7.61901 3.25547 4.56049 -1.31582 -0.15494 -0.520128
493 1 6.39189 5.17529 8.34762 -0.378204 0.109385 0.386492
494 1 1.68508 5.70245 3.94452 -0.376153 -0.293278 -0.0965745
495 1 6.7663 4.44522 3.91187 0.392912 -1.2469 0.333011
496 1 9.05854 3.87744 6.25777 0.012052 0.543548 0.420254
497 1 7.51961 8.75418 1.58173 0.0305365 0.124302 0.221604
498 1 3.77282 0.0269258 0.11158 -0.490638 -1.34296 0.602852
499 1 1.32103 1.54181 9.31683 -0.996248 0.294271 -0.368453
500 1 2.7195 1.31913 0.752402 0.618947 -0.580671 -0.71258
501 1 0.523687 3.86437 8.38867 -0.398637 1.34834 0.474586
502 1 7.34025 7.20483 4.74896 0.476838 -0.574579 -0.380726
503 1 1.50911 6.05139 8.59578 0.748103 0.59822 0.632492
504 1 3.11073 5.19788 8.42932 1.88359 -0.895511 -0.156633
505 1 4.56789 0.015433 1.95725 1.58636 -0.420457 1.15129
506 1 0.859351 2.97455 0.880399 0.769314 -0.464598 -0.292432
507 1 8.23167 8.41963 0.724856 0.436914 -0.580865 0.724282
508 1 8.78541 8.18377 5.32828 -0.556073 -0.0985122 1.78376
509 1 5.46347 0.962515 1.6705 -0.582713 0.132578 1.31525
510 1 8.57705 4.60627 6.59624 0.325522 -0.336268 0.159924
511 1 2.87358 5.8663 6.53948 0.77319 -0.846206 0.887796
512 1 9.05992 8.37073 1.27478 0.0773615 1.04409 -0.180499
513 1 2.26444 0.220918 6.81703 -0.432675 0.598336 -0.489162
514 1 8.86816 0.739621 9.19386 0.187927 -0.0141746 0.100767
515 1 8.36672 1.29608 4.21372 0.97722 -0.541257 -0.203316
516 1 5.538 0.416905 4.13025 -0.348292 -0.287287 -0.668003