ITEM: TIMESTEP
136600000
ITEM: NUMBER OF ATOMS
1000
ITEM: BOX BOUNDS pp pp pp
0.0000000000000000e+00 9.4000000000000004e+00
0.0000000000000000e+00 9.4000000000000004e+00
0.0000000000000000e+00 9.4000000000000004e+00
ITEM: ATOMS id type x y z vx vy vz
1 1 2.53083 4.29841 3.40316 1.08587 0.18311 -0.703728
2 1 5.98836 5.37385 0.740697 1.35218 -1.09978 0.914384
3 1 2.68614 5.44311 0.410263 1.08332 0.579696 0.554269
4 1 7.7748 3.17593 5.01152 -0.426357 -0.277839 1.15774
5 1 5.56596 4.23052 3.65742 -1.21043 -0.934161 0.448759
6 1 4.45007 1.00125 3.64999 -1.04129 0.964277 -0.54914
7 1 8.80079 6.69783 7.3942 0.311272 -1.20296 -0.0332957
8 1 1.06309 1.20142 7.1182 0.309353 -0.119093 -0.308831
9 1 5.33966 0.654577 1.7041 -0.1977 1.29091 0.627445
10 1 0.951377 8.63808 9.28724 -0.611318 0.509584 0.433037
11 1 2.99171 8.94012 7.94051 -0.451559 -0.737139 0.857747
12 1 1.40028 0.586404 5.39947 0.504441 0.255075 -1.23558
13 1 5.87244 6.08025 6.18 -0.74213 0.606383 1.09357
14 1 0.206126 4.52792 4.88374 -0.265179 0.861671 -0.314254
15 1 4.80722 8.79618 5.84905 0.461597 1.35354 0.410565
16 1 4.508 9.31079 1.7195 -0.51954 -0.0962051 -1.04298
17 1 9.2182 5.0803 4.32045 0.713431 -0.896118 -0.562904
18 1 0.502075 5.28575 5.28458 1.54502 0.406762 0.973746
19 1 4.94384 7.88453 0.69713 -1.63627 0.676225 -0.0849989
20 1 1.61078 4.03276 2.96664 0.410968 -0.548112 0.886895
21 1 0.0400653 1.02548 7.15226 0.732569 -0.431718 0.56345
22 1 7.65486 5.48711 3.28155 -0.0380613 0.196625 -0.935104
23 1 0.777872 1.26607 5.49454 1.30146 1.73258 -0.64347
24 1 5.52688 1.47576 2.35092 0.625502 -0.0227244 0.0868666
25 1 5.40065 7.34277 6.67575 0.490237 -0.106153 1.36044
26 1 6.3721 6.64094 1.24922 -0.166973 0.28613 0.723052
27 1 9.04231 3.45724 5.022 -0.44587 -0.216586 0.364512
28 1 7.47107 7.76322 8.2407 -0.0295024 1.57138 0.343956
29 1 1.16489 7.78636 4.5757 0.385205 0.416143 -0.296349
30 1 9.07307 8.77287 3.82143 0.288665 -0.722587 -0.339078
31 1 8.39834 4.08083 1.06211 0.307611 -0.491304 -0.387253
32 1 4.0063 3.08146 3.60478 -0.225077 0.812137 1.38737
33 1 4.91945 0.553302 2.54552 -1.17688 -0.337169 -0.986218
34 1 5.38989 5.01135 9.14445 -0.544322 -0.353806 -1.02186
35 1 0.326108 6.27853 0.731102 0.935539 0.840233 0.620772
36 1 1.4318 5.27727 1.24523 0.355996 -0.0705601 -0.258181
37 1 2.57014 6.76736 1.02171 -0.495084 -0.139854 0.521799
38 1 4.26439 2.0735 9.32218 0.53074 -1.20205 0.736285
39 1 7.85395 3.74613 6.50231 -1.17268 -0.979788 -0.587267
40 1 4.02497 1.61557 5.09049 -2.08768 0.823653 -0.192221
41 1 7.96342 4.15273 7.30845 1.1621 -0.113977 -0.232977
42 1 3.95674 3.13069 0.538777 0.191186 0.384048 -0.150068
43 1 2.98962 9.14686 5.21859 -0.901808 0.837943 -0.486263
44 1 2.50188 8.37825 1.25687 -0.0559481 1.7327 -0.254169
45 1 2.02287 8.59357 0.470877 -0.000510862 -0.387224 -0.678516
46 1 7.50394 6.24822 2.60083 0.929075 -0.884258 0.579126
47 1 5.70989 7.80525 5.9949 -1.28131 0.987651 -0.278113
48 1 4.2339 6.49279 2.4404 0.814773 0.0331403 -0.964106
49 1 4.49037 6.94773 3.28527 1.73461 -1.22216 -0.55618
50 1 1.09857 4.31288 7.40061 -0.699564 0.424447 -0.642866
51 1 3.88562 9.35626 6.60415 -0.0920013 -0.125171 -1.14024
52 1 3.82931 5.16381 2.09371 -0.142915 0.232256 0.126965
53 1 6.49303 7.27084 2.08388 0.721326 -0.883881 -0.934985
54 1 7.90272 5.76896 8.84195 -0.517346 0.545595 -2.05604
55 1 1.12561 7.19723 2.36734 -1.26273 -1.36757 -0.168671
56 1 6.60509 2.55074 6.48041 -0.238457 0.168032 0.128978
57 1 0.227329 0.451085 5.73331 0.133349 -1.0748 -1.03441
58 1 1.98972 4.79658 4.85166 0.913025 -1.0855 0.185367
59 1 0.304816 4.6977 7.17635 0.131201 0.106032 0.147886
60 1 3.14124 4.61144 2.83428 0.500722 0.117886 -0.842089
61 1 5.42898 2.52558 2.13617 -0.0859607 0.125962 1.09893
62 1 0.928929 8.95805 2.54228 -0.0241163 -1.44805 0.153246
63 1 2.97104 8.24934 0.404944 -0.774293 0.691252 1.27872
64 1 8.40627 6.9254 1.79922 0.746001 -0.119068 -0.239325
65 1 0.923229 7.44429 7.86656 1.02665 0.669614 1.12037
66 1 9.03705 8.25776 5.01281 1.13801 -0.482235 0.477829
67 1 6.54492 1.25618 0.841584 -0.92225 -0.912255 0.956586
68 1 7.55371 2.15543 3.66207 0.133157 0.197032 -0.799479
69 1 6.79295 1.94525 1.28116 0.534365 1.09257 -1.05106
70 1 8.91362 5.2341 2.45106 -0.396805 0.123848 -0.634483
71 1 1.11861 6.27803 7.08528 0.434927 0.560084 -0.879729
72 1 1.65249 6.75478 1.53757 0.488852 0.917068 -0.516581
73 1 0.422033 7.35297 1.99073 -0.121847 1.24409 0.0860753
74 1 8.71595 5.24718 8.8636 -0.194688 0.289034 -1.33847
75 1 1.66712 2.06346 8.10304 -0.736339 -0.614312 -0.0842567
76 1 5.81271 8.48263 8.53317 1.13389 0.341775 -0.257277
77 1 1.10504 8.31993 0.783158 1.3228 1.17943 -0.709835
78 1 7.65053 2.71326 0.660807 -1.33475 0.0110632 -0.924313
79 1 5.76393 5.56786 7.01417 0.248361 0.843258 0.496054
80 1 1.84256 1.75917 2.69525 -0.237251 -1.02367 -0.58921
81 1 2.38045 5.71412 4.62493 0.401601 0.1995 -0.971095
82 1 0.367634 4.13139 0.908988 -0.511195 -0.516697 0.580981
83 1 8.94203 6.35879 8.27954 -0.310827 -0.107116 0.429492
84 1 0.574259 4.47453 8.17915 0.472462 0.552499 -1.73398
85 1 0.749197 6.7018 3.12482 0.310758 0.13504 -0.00665163
86 1 2.74117 4.37372 0.7658 0.336152 -1.6582 0.464776
87 1 5.79725 4.47663 8.56093 -0.878816 -0.295073 -1.25373
88 1 6.26715 0.866228 5.52744 0.476311 -0.447654 0.548855
89 1 1.40443 9.16068 0.975117 -0.605023 -0.960983 -0.241626
90 1 7.86046 7.14213 4.17388 -0.555587 0.653354 0.546453
91 1 4.35262 2.6308 1.98742 -0.231963 0.36415 0.252485
92 1 8.83245 5.65532 1.15748 0.889865 0.503497 1.02305
93 1 9.39159 5.79907 3.17045 -0.172692 0.778924 -0.96519
94 1 9.37646 0.185009 4.15192 1.05063 0.903837 0.903658
95 1 5.6959 3.77006 2.85434 0.173322 0.172199 -0.0272314
96 1 4.31489 6.60335 4.15259 -1.22561 1.0027 -1.45421
97 1 0.29741 6.44879 7.72939 -1.07628 -0.943435 0.0845143
98 1 3.51302 7.8319 9.14008 -1.08671 -1.57152 -0.350297
99 1 6.64286 0.0789807 5.9907 1.84705 -0.124438 -0.573274
100 1 7.09024 3.06296 0.0367676 0.637408 -0.99613 0.00663394
101 1 1.57359 5.73277 3.22733 0.0149023 -0.46251 0.290149
102 1 6.37289 4.03088 2.26403 -0.62174 -0.996437 -1.93513
103 1 8.82257 2.99293 8.0522 0.91665 -1.48473 -0.106514
104 1 7.97127 2.0018 0.133909 -0.338541 0.361594 -0.700675
105 1 1.71031 1.68263 0.718961 1.46318 0.282008 0.363113
106 1 9.00477 3.52799 1.49477 0.429729 -0.843922 -1.34782
107 1 9.10373 8.95923 1.95462 0.465937 -0.806686 -0.292675
108 1 6.02528 0.116974 1.40508 1.16633 0.451934 1.48905
109 1 5.85672 0.81806 3.92203 -0.581378 -0.451852 -0.459971
110 1 4.0071 7.26574 8.64714 0.633543 -1.86824e-05 0.434434
111 1 5.05461 1.96282 1.43031 -1.14183 -1.3725 1.06937
112 1 6.64895 6.34653 2.36935 -0.984315 -0.237064 0.156569
113 1 8.6907 1.65038 6.53687 0.153375 -0.84656 -0.00509518
114 1 1.98301 5.05423 2.68719 0.416449 -0.789463 -0.522438
115 1 3.80471 0.634973 4.03095 -0.232986 0.298122 0.179364
116 1 8.54583 1.03085 1.15928 0.999922 0.101806 0.210617
117 1 0.741572 5.27835 3.64879 -0.960268 -1.33237 -0.114106
118 1 1.99271 0.964277 3.04169 -1.09639 -0.326996 -0.463797
119 1 6.51466 7.50146 6.61707 1.53604 -0.162064 0.496843
120 1 0.722305 4.59278 2.97676 -0.461072 -0.691931 -0.356919
121 1 3.28348 2.08801 8.01385 0.604357 0.44756 0.708127
122 1 2.57159 8.05382 3.22617 -0.268897 -0.755553 0.29605
123 1 1.42248 7.04549 5.0811 0.276502 -0.0716169 -0.297991
124 1 7.09872 4.54233 0.925034 -0.394473 0.67085 -0.167527
125 1 1.33607 4.05234 1.97428 0.691909 -0.415671 0.0868837
126 1 6.19389 3.48052 3.89372 -0.133064 -0.0237922 0.384601
127 1 7.98755 9.26747 6.42991 -0.424832 -0.694595 -0.26422
128 1 2.3689 1.47136 8.38035 -0.615321 -0.226632 1.52877
129 1 8.26428 8.45605 4.29307 -0.861476 0.049398 -1.67581
130 1 7.69046 4.98344 7.06423 -0.325631 0.936387 -0.064254
131 1 1.65713 5.86953 2.02265 -0.271209 -0.00933631 0.87321
132 1 7.73271 1.95359 2.6718 -0.748098 1.4937 -0.886675
133 1 1.03895 6.64795 9.3645 0.0606959 -0.290785 -0.0147764
134 1 7.57666 0.608075 4.20438 -0.306836 -0.379869 -0.170686
135 1 1.7828 6.96475 0.668608 -1.33689 1.13607 0.0856844
136 1 4.91937 0.141289 5.05932 -0.584193 -0.225754 0.488901
137 1 1.99776 2.38264 3.34059 0.777356 -0.733394 1.04136
138 1 1.0398 5.68638 0.39205 -0.68115 -0.322958 -0.42326
139 1 5.51175 3.8141 1.94905 -0.607542 0.386157 -0.40381
140 1 7.47771 5.7163 6.43716 0.306604 2.92149 -0.729723
141 1 7.54069 3.77454 3.30647 -0.43678 0.52097 0.174739
142 1 0.629257 7.13782 8.73706 2.07125 -0.22994 0.861253
143 1 0.697056 0.146889 5.06016 -0.555421 -0.59151 1.28199
144 1 1.03668 3.04186 3.89493 -0.14586 -1.29767 -1.63904
145 1 8.37921 7.31447 0.0225278 1.32458 0.45014 -1.8387
146 1 5.04323 7.18545 4.02749 0.474354 -0.0383033 -0.282916
147 1 5.95033 5.71714 3.93937 0.325224 -0.463351 -0.288148
148 1 7.37294 8.7228 5.90088 -0.326283 0.924146 -0.118184
149 1 9.33123 2.09201 3.80979 -1.72598 0.413964 0.928136
150 1 1.41825 2.42131 0.245638 0.618507 -0.517734 0.0983587
151 1 2.83397 3.31729 2.39832 1.11727 1.11509 -0.630706
152 1 0.586328 1.3727 7.85584 1.28559 0.465837 -1.21341
153 1 5.97673 5.1197 3.25795 -0.296196 0.374304 -0.287119
154 1 0.787518 5.84737 2.75285 0.365849 1.25759 -0.97042
155 1 7.53567 8.33655 1.07391 -0.781904 -0.617762 -0.185598
156 1 1.51606 4.01348 4.56729 0.798847 0.284603 -0.825973
157 1 4.45446 3.44798 1.27161 0.822504 1.48544 -0.50142
158 1 1.43502 6.14615 0.972811 -0.503547 0.787664 0.693004
159 1 1.83136 5.1669 8.95275 -0.0343466 -0.206114 0.456679
160 1 4.6599 6.66348 8.26732 -1.5837 0.270554 -0.527419
161 1 3.22058 5.94842 1.83234 0.604199 -0.218299 0.328526
162 1 7.75932 4.91731 8.73017 0.0459083 0.619592 0.291055
163 1 6.42961 6.67763 4.99182 -1.47655 -1.04072 -0.972512
164 1 2.26224 4.20541 2.40476 0.112877 -3.12838 -0.500825
165 1 4.13372 1.16412 7.98068 -0.885656 1.35422 0.760205
166 1 7.10854 0.341884 8.25311 -0.507716 -2.14519 0.0814711
167 1 3.91706 5.40454 4.69842 0.7423 0.140999 0.42209
168 1 8.72383 6.59541 0.687553 -1.89295 0.108613 -0.22557
169 1 3.60041 9.1619 1.6744 -0.43696 -0.568972 1.07331
170 1 5.98664 0.293342 0.575183 0.25764 0.581995 0.647815
171 1 0.328505 5.4092 2.00776 -0.830929 -0.191016 -0.355383
172 1 6.57224 8.51598 4.76009 2.58794 -0.278561 -1.05375
173 1 4.80967 5.06029 7.06746 -0.286515 -1.15781 -0.147948
174 1 9.02556 6.09364 1.89638 0.171574 0.447527 -0.429065
175 1 5.49205 5.16953 1.44813 -1.19119 0.378091 -0.749321
176 1 3.79628 1.92244 1.3387 0.671038 -0.989754 -0.243515
177 1 3.74071 6.30495 4.90653 0.689768 0.604787 -0.636317
178 1 5.09066 2.30431 7.32757 0.766707 0.327554 0.47138
179 1 8.58565 2.2167 2.53586 1.21035 -0.57765 0.919381
180 1 2.48884 6.54499 1.88134 -1.70913 0.00507869 1.4228
181 1 7.93721 5.44439 2.4577 -0.17777 0.0979653 1.50315
182 1 9.19237 6.40081 6.46539 1.27813 -0.27479 -0.0486468
183 1 0.0566661 7.34403 4.748 0.161792 -0.496903 0.415452
184 1 2.81518 4.38186 7.57515 -0.225431 1.43569 -1.25302
185 1 5.49975 8.53718 4.99541 -0.463146 -0.204494 -0.0624048
186 1 7.82582 7.91223 3.50639 0.0927258 -0.206002 1.29804
187 1 7.65462 6.66638 0.0637334 -2.0168 0.411011 0.235266
188 1 8.79794 2.69628 1.59103 -0.663568 -0.411275 0.548153
189 1 5.32658 1.20028 1.02978 0.092687 0.804948 0.206944
190 1 -0.00444848 2.02674 0.900876 -0.273584 0.564143 0.576918
191 1 5.6733 4.28843 1.1229 -0.610597 -0.84793 0.485513
192 1 7.01347 0.547934 2.58201 -0.300529 -0.113336 0.0241275
193 1 6.72996 5.22853 6.98661 0.338762 1.26125 -0.165135
194 1 5.65565 9.02076 3.03393 -0.267559 -1.16867 1.06947
195 1 8.65557 2.4971 5.47887 -0.0369346 -0.0829719 -0.992141
196 1 0.107068 5.50336 6.71479 -0.296819 0.497818 2.77606
197 1 6.3301 2.12263 2.61069 -1.13237 0.870554 0.458173
198 1 8.10545 7.80463 6.80844 -0.43241 -0.992246 0.288099
199 1 1.62072 9.16235 1.95176 -1.42944 0.266647 0.52339
200 1 1.183 2.6659 5.78937 -0.735387 0.210163 1.16031
201 1 9.35192 8.8866 2.78639 0.461694 0.901937 0.992322
202 1 4.1857 7.14342 5.20399 0.560364 -0.375286 -0.000730934
203 1 3.38763 2.12174 7.08555 1.5134 3.07599 1.08889
204 1 2.40572 7.51006 1.62662 1.63032 -0.432047 -0.25269
205 1 6.36321 9.20255 4.23721 0.178015 0.428851 -0.795362
206 1 9.20806 8.9962 7.85703 0.209371 0.796961 1.08449
207 1 1.96433 4.88671 6.21837 -0.832004 -0.101998 -0.536397
208 1 3.01002 0.671868 2.10553 1.65359 -1.3115 0.974792
209 1 3.70634 3.90631 7.47646 -1.17291 0.58822 0.851532
210 1 1.95685 7.31938 6.49368 0.344874 -0.280896 -0.171466
211 1 8.70778 1.76648 1.75112 -0.363891 0.573428 0.388655
212 1 1.41343 -0.00423744 8.45751 -0.211054 -0.347795 0.357801
213 1 3.29304 3.28575 8.28927 0.0908385 -0.315985 0.597033
214 1 3.02123 7.37159 4.07391 0.203565 -0.0755498 -0.383956
215 1 6.56694 8.40456 5.67269 0.0799614 1.74955 0.539999
216 1 6.97312 7.88763 0.500924 -0.253599 -0.173636 0.819229
217 1 7.61066 3.71228 5.67852 0.465164 0.511865 -0.349042
218 1 0.920125 3.23945 8.21565 -0.176626 0.447548 0.397831
219 1 4.3399 8.44706 3.27281 -0.500799 -1.42985 -0.145893
220 1 1.29991 7.58165 0.0909814 -1.99773 -0.0930378 0.154579
221 1 7.05719 1.35185 4.867 0.764641 -0.20096 0.37986
222 1 1.52881 6.61597 5.99854 0.100196 0.711794 0.458828
223 1 9.25463 1.44601 5.76615 -0.123453 0.0930452 -0.0777421
224 1 8.14904 6.14897 8.05477 0.289601 1.03788 1.71832
225 1 1.75565 0.170929 4.48163 0.674671 -0.423112 0.660841
226 1 2.11178 0.850276 2.10304 -0.50577 0.623019 -0.0300652
227 1 6.89468 1.26848 8.47209 -1.40531 0.518014 -1.15591
228 1 5.90224 3.62091 5.43166 -0.655482 -0.164268 0.272021
229 1 8.06402 8.7447 5.3257 0.419809 1.05472 2.2251
230 1 0.23043 7.82102 5.46979 -0.221595 0.562704 -0.300346
231 1 4.6293 0.0317899 4.31218 0.436105 0.809154 0.183064
232 1 9.09508 4.16917 4.2843 0.877044 0.0468666 -0.0794083
233 1 5.40485 3.10468 3.40203 -0.924794 0.219315 -0.19132
234 1 4.58229 5.62119 2.09885 0.00155746 0.41386 0.111686
235 1 8.58291 8.63898 7.21205 0.87898 0.00862357 0.627924
236 1 9.15872 1.27529 3.18448 0.716772 -0.798041 0.545036
237 1 0.43034 1.17247 2.38587 0.774418 -0.618823 0.406245
238 1 6.11237 2.55799 1.53327 -0.00955356 -0.0447818 -0.197215
239 1 5.17053 6.96643 7.57091 1.01627 -0.422982 -0.368227
240 1 2.02261 2.11442 7.27891 0.329928 1.11361 0.0116744
241 1 7.76074 5.26312 1.20466 0.509234 -0.857645 -0.242529
242 1 3.67777 0.363104 8.46115 -0.226593 0.82701 0.908187
243 1 1.21879 3.88128 3.70826 0.219413 1.88076 0.0500407
244 1 7.00164 9.07523 1.46772 -0.335708 -0.64106 1.94794
245 1 0.947823 5.15356 4.53246 0.832945 -0.400348 1.91459
246 1 2.49018 7.6298 0.672706 -0.38329 0.378881 1.02097
247 1 7.8062 3.65555 9.12771 0.312277 -0.857203 -1.59372
248 1 3.38048 6.86871 1.53764 0.668731 -0.904332 1.13568
249 1 6.80829 6.35722 6.3925 -0.600269 1.03168 -0.701928
250 1 3.05297 1.54139 6.29661 -0.844699 1.43808 0.627
251 1 3.31375 5.2138 1.16989 0.984117 -0.727056 -0.0124846
252 1 3.91211 0.710138 6.11146 -1.18066 0.129518 1.06549
253 1 9.09011 0.231874 3.36109 -0.23352 -0.367227 0.616889
254 1 6.43633 4.84467 1.37639 0.699731 0.542486 0.17912
255 1 4.34298 9.18104 0.789425 0.154097 0.241331 -0.750298
256 1 3.04522 6.8934 2.54099 -1.16756 -0.269289 1.60529
257 1 7.77359 4.62093 1.89615 -0.341583 1.91079 -1.88316
258 1 3.55357 1.06584 6.90767 0.741872 -0.339143 0.980243
259 1 3.63848 8.24555 4.96445 0.738996 -0.637863 0.135571
260 1 3.46928 3.0043 6.78471 -0.550141 0.959993 -0.102847
261 1 6.00235 7.89432 0.233862 -0.265775 -1.50558 0.203936
262 1 0.168215 0.329427 0.767224 -0.303824 -1.7562 0.0150208
263 1 3.25096 2.42351 1.92906 -0.279479 -0.506118 -0.722903
264 1 8.31432 2.04717 1.04462 0.160557 -0.950862 -0.733868
265 1 0.611305 5.40333 7.66441 -1.04551 0.223755 1.40357
266 1 4.43843 9.30008 3.48264 0.0479835 0.319162 0.358291
267 1 1.81293 4.90996 0.503091 0.957938 -1.22269 -0.147316
268 1 0.890714 2.11261 1.27597 1.05002 0.00235917 -1.14946
269 1 7.56795 8.71066 1.9758 -0.950741 -0.522052 0.683492
270 1 3.51166 7.66641 6.39714 0.0747794 -0.480354 0.185286
271 1 3.15722 2.50547 6.13525 0.135705 1.17734 0.508893
272 1 5.36237 2.9253 8.21823 -0.464565 -0.094171 -1.31743
273 1 9.09683 1.10464 4.12463 -0.444629 0.685023 0.638629
274 1 6.53865 8.68348 3.54691 1.27694 -0.714628 0.380725
275 1 4.45975 8.42015 2.12144 0.244572 0.382356 -0.285338
276 1 8.51474 7.09294 6.45838 0.713253 1.09966 0.0428683
277 1 1.31826 5.00936 2.0882 0.711419 0.281188 0.993841
278 1 5.49178 2.52244 4.09024 0.390215 -0.0245614 -0.746749
279 1 0.433711 0.915854 1.45192 0.682727 -0.147673 -0.118421
280 1 1.00761 9.24558 6.08344 1.22337 -0.567536 0.495709
281 1 7.28227 9.03421 4.94734 1.00898 -0.244123 -0.0082152
282 1 4.59039 4.87109 1.48687 -0.629433 -1.11271 -0.746662
283 1 2.66109 4.96833 4.1383 0.8025 -0.755977 -0.696624
284 1 0.0557243 8.14758 8.5859 0.716568 0.766213 -1.76782
285 1 9.29779 3.32622 6.41455 0.270957 -0.136335 0.132165
286 1 3.30467 5.65564 4.19638 -0.697553 0.869605 -0.0640155
287 1 6.91736 6.09216 9.3752 -1.19708 -0.042681 0.18969
288 1 5.09793 6.35869 5.69848 0.35313 -1.4549 -1.63391
289 1 1.56114 4.28018 9.09481 1.30729 -1.6561 -0.340974
290 1 4.81012 3.73571 8.82296 -1.7512 1.26932 0.0689999
291 1 1.00206 3.93463 0.376166 -0.773683 0.755534 -0.128258
292 1 1.11772 3.50879 5.21835 -0.329011 -0.425637 1.25836
293 1 3.77292 1.53465 3.94919 -0.538143 -0.0663351 -0.290996
294 1 7.32719 5.94439 7.4188 1.58158 0.0952813 0.717505
295 1 2.12146 9.1498 8.00828 -0.898771 1.13194 -0.375314
296 1 8.22941 7.71257 4.86057 -0.301867 -0.750572 0.364007
297 1 7.36818 0.622594 5.25617 0.839824 -0.2847 0.858101
298 1 7.89271 1.55124 4.25342 -1.19392 1.98811 -0.057571
299 1 7.44444 1.31153 0.953673 0.143601 0.379996 -0.0821169
300 1 1.90013 3.08428 7.93713 -0.833993 0.0310871 -0.788243
301 1 9.1026 0.309147 1.429 -1.32777 0.870506 1.09375
302 1 7.76639 2.02936 7.02924 1.24194 -0.305345 -0.631336
303 1 4.55783 6.88445 1.63222 -1.45252 -0.472912 -1.32269
304 1 4.36049 3.96663 0.508471 -0.057362 -0.645955 -1.0505
305 1 9.35274 0.457577 8.44121 0.0558212 0.0304373 -1.05342
306 1 7.17743 7.46867 1.4222 -0.930519 0.395789 1.01522
307 1 6.77427 2.86374 1.04221 -0.571071 -1.02252 -0.101519
308 1 5.3401 6.29759 6.85341 0.272322 -0.809111 0.143038
309 1 9.07658 6.8675 2.46069 -0.339844 -0.114707 0.11726
310 1 2.60312 5.7016 8.88714 -0.148021 0.802553 0.667
311 1 5.1926 4.01569 5.9367 -0.497369 -0.0261167 0.565315
312 1 2.08547 7.87068 4.40677 -1.36323 0.855721 1.03314
313 1 9.34312 4.78746 3.41255 0.125038 -0.553776 1.85528
314 1 4.09156 7.0799 0.846475 1.0854 -0.553859 0.0658983
315 1 8.21621 0.0158821 1.67553 -0.692774 -0.50471 0.0516305
316 1 1.42257 8.27187 3.57141 0.296762 1.66352 -0.557044
317 1 0.0852824 7.04553 0.368707 -0.290025 1.02676 -0.45226
318 1 2.9384 3.19892 3.84609 0.273505 -0.180034 -0.99859
319 1 1.16562 4.64252 5.25713 0.178585 0.520507 -0.704303
320 1 4.91197 7.77835 1.69119 -0.886881 -1.15003 -0.107083
321 1 7.20513 0.0404124 3.53826 0.563668 -0.860476 0.409963
322 1 1.55411 9.14839 3.63698 -1.53259 -0.0959539 0.584753
323 1 5.76984 0.00165219 6.74673 0.232344 -0.107091 -0.850229
324 1 4.57376 4.5333 9.25621 0.0166505 -0.191693 -0.191235
325 1 3.35848 7.13263 7.75068 0.691062 -0.846829 1.72794
326 1 3.36153 1.09428 4.80812 -0.367952 0.0535635 0.579339
327 1 0.851192 4.83708 0.0627492 -0.647494 0.902636 -0.064906
328 1 4.35352 3.9383 3.54289 0.597023 -0.528908 -1.02454
329 1 3.49764 2.17163 0.509468 -0.755904 -1.00016 -0.510972
330 1 2.59013 1.65064 2.13827 -0.354644 -0.381597 1.06944
331 1 6.47131 2.39718 3.45717 -0.363863 -1.11976 1.75034
332 1 9.3874 2.15086 2.83757 0.125529 -0.276194 -0.33906
333 1 7.51205 1.77733 5.69838 -0.551309 0.149238 1.74688
334 1 7.43568 5.13362 7.88118 0.0848008 0.884766 -1.30358
335 1 0.782384 6.20286 8.41028 0.206751 -0.715205 -0.0794249
336 1 8.13975 5.67936 4.13165 1.52357 -1.41058 0.823242
337 1 2.96857 5.03049 6.60273 0.715731 0.304463 -1.29533
338 1 1.32992 1.68891 3.51004 -1.3149 -0.970316 -0.589744
339 1 1.62156 6.0546 8.87395 0.2455 0.537781 -0.258009
340 1 3.31452 7.27392 0.371476 0.217963 0.956054 0.977588
341 1 6.46985 4.32376 3.31945 -0.986162 -0.716401 -0.869101
342 1 9.13611 2.36828 6.19599 0.638616 0.295479 -0.696808
343 1 2.19612 8.12157 7.07078 0.767255 0.677493 0.674712
344 1 4.15233 5.96995 8.49512 -0.0751955 -0.735408 -0.455099
345 1 2.29794 8.80763 4.5694 0.525436 0.895457 0.477621
346 1 8.42248 8.36819 2.25525 0.0494569 -0.136675 0.828339
347 1 0.563202 9.03641 8.51849 -0.392854 -0.143104 -0.172724
348 1 4.15455 8.31061 6.66073 0.800401 1.2914 -0.333572
349 1 8.97734 2.70618 0.638993 -1.352 -0.341599 0.0339174
350 1 6.43524 2.07832 8.97793 -0.684175 1.00366 -0.82452
351 1 8.03541 7.7779 1.59595 -0.339116 -0.41577 0.175887
352 1 2.43246 8.90437 3.51141 0.0939741 -0.531464 0.344276
353 1 7.93904 6.67998 1.14789 -1.02281 0.635291 0.618742
354 1 5.696 7.69052 7.42927 -0.0654054 0.802012 -0.338176
355 1 3.83562 5.00351 8.8329 0.422091 -1.70954 -0.378165
356 1 8.20482 4.6351 2.85266 1.10296 1.53563 0.755218
357 1 8.32108 5.22918 7.98383 0.189531 -0.324095 -0.744769
358 1 1.61569 4.99758 3.82819 0.989164 0.486787 0.696561
359 1 2.94958 6.04874 7.13315 -0.192537 -0.84989 2.00449
360 1 9.07943 5.6749 7.61776 0.297667 0.530573 -0.16736
361 1 6.21182 0.81897 8.19795 1.6983 -0.35893 -0.125095
362 1 0.34358 3.92117 3.50308 -0.598746 -0.0403225 -1.09353
363 1 4.19388 8.11847 0.357 -0.50646 0.63141 0.00797425
364 1 5.72031 8.08225 1.87216 0.376114 1.01383 0.0947463
365 1 6.58946 8.10214 1.49306 0.864423 0.510786 -0.294826
366 1 5.27264 4.17247 6.79676 0.602713 0.700415 -1.34704
367 1 8.80019 6.27198 3.77473 0.390195 0.153954 -0.359327
368 1 0.987753 5.25 8.59078 -0.889676 -0.130736 -0.19774
369 1 9.29772 8.25821 6.15572 0.907447 -0.607132 -1.14421
370 1 2.4526 2.4506 8.53528 0.28295 -0.0411689 -1.05757
371 1 4.74009 4.96208 8.42659 0.583101 0.21405 -1.04896
372 1 5.52271 9.3575 4.37808 -0.391172 -0.401366 -1.45304
373 1 2.43795 1.33887 5.72649 -0.50138 0.175151 -0.324314
374 1 2.29819 8.48584 2.33305 -1.03339 -1.29543 -0.166181
375 1 4.25856 8.80678 9.18636 -0.329743 0.370182 -0.148032
376 1 0.635859 3.04256 0.553726 0.315508 -0.728031 0.060917
377 1 4.41025 3.28569 7.78922 -1.95806 -0.711596 0.159511
378 1 1.43594 7.0342 4.13236 -1.26011 -0.981946 -0.0205112
379 1 3.50422 5.64118 0.0432194 -0.491622 -0.486518 1.27877
380 1 7.57955 0.123483 9.22846 -0.630001 -0.728768 0.701503
381 1 4.67675 2.04033 3.86654 -1.32123 0.360967 0.0973305
382 1 6.24207 1.82464 5.22905 1.34312 -1.37251 0.438513
383 1 4.86892 0.549074 0.17792 -0.49443 -0.856873 1.19107
384 1 1.65259 7.03715 7.22894 1.20076 -0.717827 -0.69793
385 1 0.931182 2.38867 8.6916 -0.289663 0.607804 0.944795
386 1 2.20651 2.14662 6.21411 0.107799 0.82951 -0.299362
387 1 6.26528 0.29392 3.37746 -0.17174 -0.339699 0.699998
388 1 6.46995 6.8997 3.04459 0.348952 -1.3931 0.519092
389 1 8.85013 9.28735 6.06479 -0.520921 -2.00182 1.14309
390 1 3.9268 1.78517 6.30773 0.516544 1.12444 -0.824543
391 1 3.38897 0.069942 3.2979 0.922201 0.143651 -0.0664613
392 1 2.743 0.421717 7.92249 0.870764 -0.554414 1.11816
393 1 5.25759 9.18342 0.25407 0.521743 0.205956 0.805318
394 1 6.75877 7.81714 3.27986 -1.58012 0.20963 -0.492065
395 1 2.47289 4.53405 9.3865 0.634456 -0.198541 -0.663633
396 1 0.57869 8.64774 3.43524 0.39971 0.37019 0.564305
397 1 1.4552 1.04185 7.99124 1.1721 -0.736838 0.241739
398 1 8.24534 7.29533 7.65862 0.28263 -0.256329 0.272271
399 1 3.1514 4.53945 8.50358 0.472377 0.23368 -0.281178
400 1 6.66795 7.87582 8.57118 -0.985354 1.05762 -0.979935
401 1 7.25548 2.77014 2.96562 0.164487 -0.360074 0.720839
402 1 9.12622 7.244 8.90463 0.446325 -1.08408 -0.188463
403 1 8.02707 0.921925 6.95667 -0.919353 -0.542886 -1.24642
404 1 2.21352 1.42851 3.84131 0.00979235 0.967411 0.400829
405 1 7.89549 8.57121 7.72862 -0.115246 -0.378172 0.30339
406 1 2.09028 6.84665 9.02486 0.220806 0.740665 1.8749
407 1 2.97358 1.60635 3.00243 0.161169 -0.796709 0.224028
408 1 8.70217 3.60505 8.77384 1.84611 0.552287 -0.0390832
409 1 2.78019 6.50851 3.46408 -1.5821 0.655836 1.4654
410 1 3.41373 8.94151 8.8833 -0.507082 0.671503 1.39702
411 1 6.26785 7.54347 4.82334 -1.46334 -1.27928 0.569298
412 1 2.77291 2.87224 7.54351 1.18318 0.235538 0.227176
413 1 6.79979 3.77916 4.96463 -0.126071 -1.1604 0.00444949
414 1 2.64494 6.38826 0.21738 0.379753 -1.23625 1.31448
415 1 6.76031 5.80118 0.889909 2.22716 0.128851 0.721
416 1 4.16729 6.11863 0.55293 0.00875502 -0.908895 0.644881
417 1 2.91833 2.55166 3.21726 1.69877 0.291898 -0.70139
418 1 2.01001 3.85232 7.34572 0.679029 1.17344 0.049521
419 1 1.13562 2.69 2.00699 -0.301742 0.321946 -0.196404
420 1 8.17517 5.96068 1.68378 1.66096 0.0748708 0.37813
421 1 7.27089 7.45124 9.23813 0.101288 -1.00791 -0.42398
422 1 0.725366 6.70887 6.43763 -0.462873 -1.02844 0.342843
423 1 7.03338 1.47483 3.12055 0.888588 0.451658 0.235923
424 1 5.88521 8.51651 7.59294 0.187615 0.497104 -0.763387
425 1 5.27945 1.22986 3.3007 0.652681 -0.398716 -0.309498
426 1 5.81967 6.91919 5.89024 -0.257171 0.339782 0.688573
427 1 7.48709 6.11377 4.71899 1.10501 -0.377473 1.08397
428 1 7.57688 3.8906 0.66076 -0.66865 -0.105911 -0.20172
429 1 3.97712 8.35489 5.76604 -0.227681 0.514962 -0.173007
430 1 5.52053 2.23291 3.0731 -0.773813 1.5185 0.3106
431 1 8.73499 0.553061 7.69805 1.14857 0.283391 -0.690839
432 1 8.30152 3.28029 0.36778 -0.308254 0.946614 -0.79578
433 1 6.62752 7.23139 5.6917 -1.24686 0.727439 -0.661485
434 1 8.36444 6.2629 2.69609 0.368001 -0.128718 -1.11514
435 1 4.41754 1.25857 1.88259 -0.899695 0.841292 0.442265
436 1 1.92765 5.77273 0.302203 -0.652683 -0.151615 -0.874105
437 1 6.25955 5.16825 4.53235 -0.935402 -0.284494 -0.19366
438 1 2.98808 3.95784 5.00088 -0.634373 -0.350492 0.101623
439 1 8.44189 1.34491 9.04413 -0.617102 -0.29351 -0.489328
440 1 7.89596 6.42006 3.57661 0.220283 0.441883 -0.422846
441 1 3.96024 6.35935 7.54525 1.3518 0.544054 0.903308
442 1 6.06958 5.85029 8.73057 -1.04645 1.21761 0.117813
443 1 2.2516 0.292902 5.66646 0.667007 -0.169414 -0.0387794
444 1 8.10339 7.48055 2.43727 -0.355308 0.0627002 0.546224
445 1 5.29918 8.38956 6.63072 0.826515 -0.357563 -0.346954
446 1 6.87776 4.42491 4.1453 -1.2278 -0.137898 -1.16011
447 1 4.18267 7.7282 7.72545 -0.8621 -0.212961 -0.844959
448 1 4.75994 0.957484 5.283 1.27204 -0.0918275 -0.140869
449 1 0.841596 6.27853 1.62706 -0.783794 -0.731888 -0.59635
450 1 3.82728 0.312907 4.93279 0.149893 -0.555846 0.822927
451 1 1.59598 7.97597 7.62924 -1.4195 -0.00324314 1.24744
452 1 1.70496 0.597346 1.22033 1.21549 -0.410154 0.162698
453 1 6.88679 1.56991 2.24379 -0.609298 0.384696 -0.772585
454 1 0.0741931 5.52664 8.52476 0.352922 0.678599 0.439568
455 1 5.07665 5.47248 3.15849 -0.0301178 0.37971 -0.159452
456 1 1.52805 3.86316 8.12226 1.15066 0.268969 -0.22958
457 1 2.15527 6.3513 5.37015 0.507898 -0.944402 -0.126079
458 1 5.90995 3.55787 8.7356 0.805791 -0.179505 0.162665
459 1 8.83537 4.05529 7.47312 0.569523 0.0260667 -1.07019
460 1 8.59263 4.92533 1.57111 -0.0704721 0.988884 0.936026
461 1 2.03749 2.93084 6.99168 1.00997 -0.210584 -1.03938
462 1 1.64047 3.30775 6.17356 -1.68016 0.400731 0.941979
463 1 0.674696 1.83434 0.216234 1.29034 -0.0914698 0.330598
464 1 3.89026 9.19424 5.62354 -1.73482 -1.32204 -0.160504
465 1 2.64135 5.79809 6.16298 0.0386541 -0.64881 -1.22464
466 1 6.46647 6.69616 8.49439 -0.42955 -0.154651 1.01728
467 1 0.267786 8.92816 5.79653 -1.35349 -0.803173 0.899263
468 1 7.36596 3.60698 2.41165 -2.08404 -1.29079 0.364847
469 1 8.79608 4.98714 7.20196 0.664508 -0.142887 0.698865
470 1 7.41237 8.65991 3.94037 -0.140038 0.269367 -0.77934
471 1 3.67834 1.07868 0.472944 0.254405 0.703323 -0.480826
472 1 8.36471 8.14838 8.87785 -0.0586545 -0.679114 -0.279469
473 1 6.33793 5.04053 2.29899 0.398694 -0.278379 -0.845053
474 1 5.88148 0.485052 2.52732 -0.753502 -0.4208 -0.646038
475 1 0.42532 4.33304 1.91188 -0.191864 -0.0646489 0.972504
476 1 5.56023 3.21771 6.4348 0.836713 -0.323534 -1.55986
477 1 0.166999 3.63883 7.93641 -0.496836 0.642946 0.0810233
478 1 5.83927 2.44935 6.91431 1.3663 0.087995 0.356689
479 1 7.22217 7.05943 4.94107 1.27421 0.513787 -0.502203
480 1 4.66735 7.85949 6.00114 -1.62583 0.840806 0.379217
481 1 7.32729 4.13932 8.34001 1.52698 -1.12604 -0.538549
482 1 1.09657 7.35154 5.9457 0.186645 0.990985 -0.00597469
483 1 0.790242 4.5046 4.02588 -0.759852 -0.586029 1.44578
484 1 3.9359 3.75865 2.49214 1.52336 -1.16388 0.333435
485 1 5.88453 7.55329 1.25578 0.662571 0.221667 -0.401965
486 1 7.41211 5.21492 4.22372 0.394097 0.663612 0.221941
487 1 6.61088 7.41457 7.83589 -0.519275 -0.816547 1.07887
488 1 2.35159 0.753449 4.83001 -1.04044 -0.855859 -0.919875
489 1 1.74582 6.59279 2.74812 0.0297026 1.05008 -1.04358
490 1 4.19578 0.673265 1.13163 -0.246865 0.0503952 0.228737
491 1 0.521267 3.48609 2.40446 -0.684926 0.683999 -0.631512
492 1 5.89358 1.48873 8.74433 1.33623 -0.39652 -0.21288
493 1 6.5772 8.92602 7.76218 -0.42817 -0.79905 0.736044
494 1 3.95724 2.6765 5.52756 -0.051651 -0.728697 -0.664319
495 1 6.39043 5.81975 7.71224 0.442861 -0.46055 -1.39646
496 1 6.16861 1.84782 6.28325 -0.329497 -0.182184 0.225342
497 1 5.50298 7.32789 2.36047 -0.471928 -0.133404 0.119374
498 1 8.39505 1.63284 3.49973 -1.29185 0.424627 0.245797
499 1 8.25695 5.76887 7.14708 0.03025 0.678924 -2.12675
500 1 4.7256 2.84726 9.10468 0.761578 -0.485582 -0.164249
501 1 4.90851 7.5359 8.33171 0.782144 1.26689 0.152625
502 1 6.07778 4.82574 5.47546 -1.1934 -0.835712 0.530172
503 1 3.04007 1.08108 3.80742 0.600641 -0.04941 -0.965243
504 1 8.3007 2.45794 6.4619 0.0193734 -0.665027 1.05708
505 1 6.32832 1.26916 7.30279 0.0671899 -0.200191 -0.260063
506 1 4.91257 4.43788 4.25175 -0.684914 -0.317603 0.898151
507 1 8.89993 1.31101 8.32421 -0.131955 -1.1473 0.528178
508 1 9.20308 7.93049 2.10586 0.815495 0.175222 -0.403688
509 1 0.405082 7.18865 7.20078 -0.0730332 -0.247187 1.37617
510 1 9.17078 4.82577 0.801851 -1.33093 -0.07764 -0.282492
511 1 2.54543 1.95815 1.08728 -0.883479 -0.507561 1.33948
512 1 8.25793 8.19852 0.421752 0.525536 0.768346 -0.790236
513 1 4.48486 1.65645 7.1493 1.92321 0.0483127 0.0222976
514 1 2.26976 3.40612 5.0526 -1.91517 0.877332 -0.250725
515 1 5.73262 6.51434 4.43501 -0.797632 -0.00417607 -0.00549599
516 1 5.81083 8.6927 5.93792 0.750593 0.101719 0.206674