ITEM: TIMESTEP
365200000
ITEM: NUMBER OF ATOMS
1000
ITEM: BOX BOUNDS pp pp pp
0.0000000000000000e+00 9.4000000000000004e+00
0.0000000000000000e+00 9.4000000000000004e+00
0.0000000000000000e+00 9.4000000000000004e+00
ITEM: ATOMS id type x y z vx vy vz
1 1 3.23698 1.03925 4.32129 0.0545839 -0.177323 -0.703969
2 1 0.0674295 7.93632 0.250151 -0.475269 0.284 -0.307979
3 1 7.84105 8.26821 4.15875 -1.8499 -0.381704 0.174421
4 1 2.53739 7.85427 2.7727 1.59215 -0.204422 -0.460501
5 1 8.92331 4.05798 5.55444 0.442167 -0.0237298 0.479911
6 1 7.55218 2.22971 8.50002 -0.993396 -0.17838 -0.30118
7 1 4.65582 3.97656 0.657772 -0.714692 -0.244006 -0.12361
8 1 4.00054 8.99899 3.54634 -0.03906 -1.35446 0.0637189
9 1 9.30257 1.55854 2.77859 0.0466781 -0.414413 -0.454209
10 1 5.32381 1.61149 7.44988 0.00382689 1.66653 0.631397
11 1 8.94125 0.0359238 7.1185 -1.20935 -0.185918 -0.185703
12 1 4.76902 8.82232 0.410667 0.882141 0.180513 0.0898867
13 1 5.22245 1.18867 8.28088 0.0975561 -0.062622 -1.53481
14 1 7.45547 9.07535 0.144533 -1.00489 -0.115233 -1.0803
15 1 8.3175 6.11475 8.46952 -1.30555 1.18072 -0.487501
16 1 1.48636 6.72926 2.69231 -0.0680984 -0.594698 1.05367
17 1 2.6905 7.57598 0.781583 0.333988 -0.0127895 -0.933974
18 1 7.69617 0.643711 3.25755 0.0100556 0.932703 0.860234
19 1 9.31881 1.55372 7.89858 0.667426 1.21526 1.00727
20 1 8.6103 1.7227 8.76082 1.02333 -0.153348 -0.188326
21 1 2.00797 3.47111 7.21508 -1.05742 0.0679973 -0.246989
22 1 4.62591 6.0872 6.83006 0.879611 0.759605 -0.47299
23 1 5.3553 6.95967 1.72566 0.821938 1.04326 0.661143
24 1 5.2924 7.0144 2.74623 -1.65949 -0.0970975 -0.336928
25 1 1.83217 2.8967 5.87837 0.179449 -0.644671 0.356931
26 1 1.86664 5.06661 3.1406 -0.843334 -0.46151 0.367664
27 1 0.441049 6.23851 8.89613 -0.934364 1.07945 -1.04293
28 1 4.57322 6.65434 4.61009 -1.18531 0.122899 0.208098
29 1 6.81274 5.43338 8.01955 -0.96947 -0.609385 1.01924
30 1 1.12847 1.08303 7.20373 -0.0461249 -0.0528812 -0.704591
31 1 8.04087 1.40256 8.04693 -1.44643 -0.0895255 -0.151213
32 1 6.38393 5.56124 5.26945 0.712749 -0.995035 1.7507
33 1 4.53842 8.47067 4.0531 -0.00987744 1.12553 -0.605228
34 1 8.93545 6.95777 8.66485 1.33209 -0.340063 0.105471
35 1 4.51392 1.61546 1.73319 -1.40639 -0.216973 0.566869
36 1 5.33301 2.38474 4.74548 0.634544 -0.36375 0.0868373
37 1 3.27246 6.87968 1.56737 -0.00445323 0.104863 -0.244707
38 1 4.61618 2.70484 1.94079 -0.258339 -0.867178 -1.63817
39 1 9.05739 6.21189 7.85419 0.582607 -0.345476 -1.05927
40 1 7.31465 7.11349 5.12626 -0.765869 -0.970675 -0.534204
41 1 4.48121 3.868 4.61038 -0.671163 0.535211 -0.0897993
42 1 3.32895 0.439343 5.69566 0.441045 -0.128174 -0.859164
43 1 4.24441 0.963082 7.12041 0.0775276 0.330508 0.809604
44 1 8.90941 6.25936 5.58169 1.68918 0.0858854 1.20846
45 1 1.60537 0.872522 5.79268 0.0212642 -0.749691 -1.10289
46 1 4.26742 1.91462 7.01878 0.689719 -0.0670456 -0.514926
47 1 6.86191 4.39819 8.88448 -1.5707 -0.285992 1.13745
48 1 7.24558 6.90852 7.57903 0.432501 1.10003 -0.987957
49 1 6.77656 4.43885 5.94279 0.565978 0.42388 0.11057
50 1 2.43646 3.50691 2.3109 0.859101 -0.214556 -1.24848
51 1 2.09324 4.44829 3.7819 -1.00464 0.802166 -0.0572999
52 1 6.6695 6.53521 1.08817 0.153596 0.366517 0.646166
53 1 1.31337 0.930239 0.891468 -0.468122 1.29237 -0.759248
54 1 4.15561 3.52218 5.49258 1.70968 0.410305 -1.03429
55 1 4.58994 5.28543 9.28337 0.60954 1.01707 1.01502
56 1 3.72538 5.94193 8.96233 0.797273 0.527788 -1.25264
57 1 2.76184 6.27068 5.09654 -0.111117 0.642375 0.159915
58 1 5.49321 5.00261 9.34909 -0.493142 -1.61992 -0.629025
59 1 5.29152 5.93094 3.00228 0.839688 -0.0579377 -0.118583
60 1 4.39636 7.0047 0.435415 -1.05145 -0.529458 0.31045
61 1 2.54746 0.887874 3.33378 0.345523 -0.106515 0.128617
62 1 5.25062 7.96124 4.67672 0.302985 0.428521 -0.867382
63 1 8.67571 5.60169 1.5037 1.72162 0.738587 -0.279276
64 1 3.9287 0.935262 1.45957 0.124148 -1.13136 -0.0456226
65 1 4.2238 6.1455 5.40214 -0.297385 -0.822793 -0.986434
66 1 8.97997 9.30991 2.15251 -1.31623 -0.298492 0.613865
67 1 3.70809 2.78372 1.04147 -0.939337 0.597083 -2.01055
68 1 3.58458 7.94989 4.02576 -2.15647 0.917657 -0.422849
69 1 2.30592 2.57119 4.05245 0.0433249 -0.929016 -0.0801102
70 1 6.06537 0.644543 8.32882 0.772674 0.499109 1.04685
71 1 2.87158 6.70905 6.5705 -0.589605 0.906006 -0.437049
72 1 5.20036 0.873104 5.73802 -0.4252 -0.711802 -0.035143
73 1 4.28844 2.1521 4.50282 0.806327 -0.550315 0.423148
74 1 3.8783 8.98376 4.50022 0.21225 0.556899 -0.285112
75 1 5.80135 8.18011 7.93539 -1.6493 0.071535 1.65952
76 1 1.22168 3.76047 8.46271 1.18077 0.904049 0.726706
77 1 8.00319 8.55117 5.42812 0.603357 -0.0806171 -0.57862
78 1 6.99809 1.52938 8.18919 -0.0590117 0.201469 -0.889002
79 1 4.48986 5.49031 2.76571 -0.564603 0.617975 -0.830829
80 1 3.14697 8.36463 6.9764 -0.623026 -0.521923 -0.946684
81 1 5.74294 9.09795 8.25238 1.56202 0.19924 -0.722868
82 1 6.98829 8.7878 3.6021 -0.479353 0.89621 -0.279671
83 1 6.5413 3.88524 5.00084 0.387312 0.88617 0.464439
84 1 0.515168 0.0768077 2.68884 0.0674611 -1.38829 0.959342
85 1 5.33658 0.759164 9.07873 0.422211 0.115498 -0.90056
86 1 9.20607 3.59987 1.18153 -0.260462 1.46145 -0.324941
87 1 9.12365 2.91163 8.98636 0.764449 1.97108 0.451166
88 1 5.17117 1.55844 4.02558 0.416716 0.768345 0.154293
89 1 7.20929 2.7906 5.9792 1.81059 -1.05664 -0.572576
90 1 7.93968 4.39088 5.91533 0.745938 0.524742 0.120761
91 1 1.36917 8.25443 7.6391 0.00792765 -0.640339 0.237031
92 1 5.08104 6.54972 0.937767 0.563162 -0.160016 -0.81946
93 1 1.62905 7.87248 6.00983 0.54548 0.892405 -0.369169
94 1 7.68078 6.41929 4.47078 -0.237587 -0.844161 -1.0549
95 1 4.67913 6.31234 2.5167 -0.68763 -1.62987 -0.546418
96 1 2.28912 3.58729 5.87966 1.01522 -1.24992 -0.322237
97 1 2.18939 2.96386 1.72674 1.09306 0.228935 -0.326822
98 1 1.33407 2.43418 5.23896 -0.363949 -0.0302955 0.125977
99 1 7.27802 4.30075 7.09517 0.617789 -0.297384 0.939764
100 1 1.52632 3.71 0.907664 0.0849961 -0.0156886 0.356034
101 1 6.50269 2.77006 2.56708 0.173935 -0.539761 0.248004
102 1 7.46909 8.74803 2.75226 -0.414161 0.657379 0.718551
103 1 0.872386 8.4815 0.353915 0.762723 0.398567 -0.31003
104 1 0.092168 9.07103 0.403822 0.129076 0.636765 -0.0330954
105 1 6.73533 3.69615 1.37908 0.0927923 -1.36736 -0.101342
106 1 4.09042 4.45798 5.30661 -0.477899 0.219529 0.288326
107 1 7.24501 9.44102 1.09179 1.04484 2.20294 -0.343251
108 1 2.59706 0.0702479 3.9341 0.0283784 -1.47269 -0.873417
109 1 5.78939 0.846194 6.99028 0.29834 0.0309822 -0.328793
110 1 1.1467 6.75569 0.745461 0.642796 -0.0787814 0.695167
111 1 7.41613 3.37958 1.94773 -0.908185 -0.0883502 0.320686
112 1 5.86824 4.34608 3.87103 -0.533946 -0.234503 -0.0988798
113 1 2.5739 7.9943 5.81316 -1.27173 -0.329022 0.26185
114 1 2.17004 4.83662 8.85602 -0.113678 0.854288 0.0143529
115 1 6.53918 5.47863 3.4468 -0.311631 -0.215341 -0.441962
116 1 8.11651 9.26642 1.5949 -0.653435 0.026418 -0.727483
117 1 0.159252 4.42971 2.27524 -0.139322 -0.923954 0.965901
118 1 0.248986 9.40732 8.50086 -1.14455 1.29465 -0.323287
119 1 2.68526 5.72533 6.33763 1.90471 -1.0452 1.16629
120 1 6.49268 1.32427 4.56092 0.237792 0.314995 -0.119579
121 1 0.174677 2.14437 6.18392 0.628409 0.303184 -0.693016
122 1 1.48078 4.34993 0.250053 -1.02737 -0.877882 -0.335864
123 1 1.27755 8.81387 4.59309 0.934946 -0.323098 1.09392
124 1 3.32035 0.378864 1.16536 -0.611897 -1.08379 0.596667
125 1 0.222545 5.37661 8.42254 0.0629089 0.265232 -0.566834
126 1 3.93386 4.41824 3.86732 1.48964 -0.451328 -0.481943
127 1 7.77676 1.17235 3.9782 0.39904 0.748172 0.164408
128 1 2.79908 7.40004 4.61844 0.217818 -1.00875 -0.867482
129 1 1.22889 5.90461 1.11076 0.609545 -0.118246 -0.253889
130 1 2.69159 7.01551 3.58287 -0.154042 -1.45357 -0.922198
131 1 0.807981 3.32064 4.62329 -0.637186 1.9406 -0.165184
132 1 6.58611 1.76227 1.8304 0.584719 -1.19957 -1.70985
133 1 5.61043 0.0224638 0.0931432 0.819981 -0.435658 -0.0492283
134 1 8.97144 7.5487 3.20258 -0.46014 -0.698126 -0.216967
135 1 1.2065 2.21834 8.75254 0.365773 -0.326403 -1.95603
136 1 2.91379 2.20699 6.69073 -0.00546682 1.15422 0.660877
137 1 0.191565 7.0261 1.3939 -0.907052 -0.265159 1.08585
138 1 3.9825 2.07242 5.95991 -1.36891 2.32027 -0.288509
139 1 1.00245 1.2909 9.26694 -0.709716 -1.07508 0.239871
140 1 0.969288 7.50622 1.69956 1.80617 -0.410328 -0.18517
141 1 5.92469 3.17023 5.1409 -1.5764 0.12829 0.237086
142 1 6.18584 5.10447 7.4511 -0.432178 0.352385 1.58885
143 1 2.4437 0.543236 5.27745 0.0921559 -1.24942 1.41581
144 1 4.34219 7.16418 1.57631 0.144025 0.392335 -0.866354
145 1 8.74592 1.26438 0.223882 1.1924 -0.824475 -0.415941
146 1 4.98353 0.505351 6.65939 -0.292527 -0.201356 0.776324
147 1 2.3905 3.09987 7.94626 0.893135 0.213003 -1.01058
148 1 9.13432 4.5052 8.39235 -0.0970056 -0.509404 -0.775876
149 1 1.05377 2.09257 1.90998 0.773626 0.539107 -0.966609
150 1 6.98986 8.318 0.509326 0.607703 -0.509212 0.433363
151 1 6.19075 6.32646 2.66675 -0.762911 -0.391012 -0.506265
152 1 6.71399 2.69088 3.36811 1.1983 -0.783719 1.45198
153 1 4.57105 5.49384 6.20003 -0.471566 0.196667 1.27874
154 1 7.14455 1.16694 5.93584 1.18474 -0.441187 -0.399235
155 1 1.8482 4.70358 5.5382 -0.738535 0.249529 -1.35448
156 1 7.62004 6.82688 6.49936 1.79435 -0.531255 0.398381
157 1 1.67616 1.76735 4.49646 -0.464727 0.0818523 0.160063
158 1 6.39531 8.92044 4.29594 0.781082 0.257252 0.146826
159 1 0.941188 8.51262 5.53174 0.0593822 0.0148753 -1.57882
160 1 5.94643 4.80974 8.45365 0.245324 -0.0205667 -1.02404
161 1 9.27381 0.71662 2.8626 0.0767355 -1.45832 -0.171097
162 1 4.54737 2.97272 3.27654 0.823407 -1.84443 0.708676
163 1 3.05006 4.54586 9.24511 -0.766939 0.406631 0.614038
164 1 4.86922 7.97372 7.40126 -0.107957 -0.473706 0.412425
165 1 6.2593 3.3984 7.72953 0.893561 -1.10267 -0.0785759
166 1 8.00601 1.13372 5.5417 1.72431 -0.383787 0.594525
167 1 0.586013 0.373585 1.09559 1.28993 0.400235 0.732146
168 1 5.6302 5.8334 2.12199 -0.552865 -0.311435 -0.635505
169 1 2.20495 0.475733 2.20171 0.128936 -0.364507 -2.31535
170 1 6.97019 8.47541 7.51276 0.209671 0.0113239 0.351975
171 1 5.63367 3.8264 4.6294 -0.669893 0.502804 -0.353073
172 1 1.99642 3.88959 8.94919 -2.00477 -1.03775 0.520789
173 1 7.46394 1.44263 3.19549 0.518768 1.30931 -2.53013
174 1 9.02965 3.15645 4.97569 0.376226 -0.920791 1.15051
175 1 8.59551 7.68516 8.20773 1.04201 1.21223 -0.707038
176 1 6.52439 7.8465 6.32255 -0.40709 0.0132168 0.578308
177 1 3.48826 1.35106 6.14799 0.00591198 0.0179694 0.941363
178 1 5.09935 3.76636 2.31573 -0.929964 1.02816 -0.321838
179 1 3.82595 1.95042 2.70298 -0.614445 0.435057 0.759652
180 1 3.54563 5.1885 1.60437 -0.492433 0.662101 0.413444
181 1 4.40075 6.83357 5.9928 -0.780872 1.60227 0.903662
182 1 5.91798 0.657793 1.52606 -0.305582 0.73957 -1.56713
183 1 4.47438 3.98365 3.17002 1.70553 0.105168 -0.191878
184 1 9.37406 2.38847 3.29603 1.12806 -0.114247 -0.692026
185 1 7.52343 5.86551 1.7016 -1.696 0.19058 -0.0646261
186 1 6.17852 0.196085 2.20564 1.08258 0.379919 -0.359198
187 1 0.272033 6.65941 5.27929 0.790758 -0.607577 0.118905
188 1 0.521158 7.94451 1.06331 -0.26763 -0.405975 -0.205971
189 1 7.74319 2.8158 7.06114 -0.411416 0.798652 0.884653
190 1 6.83667 4.72415 4.66915 -0.947244 -0.160204 0.439589
191 1 8.40192 7.34364 6.13093 -0.98933 -0.347854 -0.658905
192 1 6.2431 1.53972 0.627835 1.38053 0.493255 0.0892115
193 1 7.58517 1.31524 7.10442 -0.118872 0.873168 0.782989
194 1 7.32921 3.85978 5.55457 -1.43208 0.356454 0.532411
195 1 3.62382 -0.0209793 2.61185 -0.218659 -1.23766 0.994475
196 1 2.75468 1.10419 1.42149 -0.383879 0.682261 -0.254705
197 1 4.41345 0.41845 3.22256 -1.44745 -0.324014 0.656085
198 1 2.64289 4.02555 4.475 -0.325331 -0.635027 0.447127
199 1 4.87704 3.32733 8.66332 -0.201894 -1.3012 0.947897
200 1 6.30628 5.95201 7.15397 -0.187201 -0.0521042 -0.681002
201 1 6.59786 7.29636 2.70099 0.250829 -0.406735 0.927621
202 1 4.83329 3.389 6.08617 -0.58461 -0.926316 -0.978461
203 1 2.79444 5.99643 9.14213 -0.315079 0.40732 0.315956
204 1 4.99867 2.26475 8.31824 0.603593 0.69636 -1.61715
205 1 8.76781 0.641828 5.20359 0.799622 1.70396 -0.218108
206 1 5.95142 8.55605 9.02145 1.33168 -0.579593 1.90014
207 1 6.28696 9.03251 1.45782 1.30622 -0.125666 0.8968
208 1 5.91246 0.311816 6.21812 -1.06456 -0.0633343 1.03733
209 1 6.09592 2.27837 1.16567 0.161349 -0.172349 1.23166
210 1 9.05531 3.96636 7.49492 -0.291454 -0.275778 -0.54352
211 1 4.55822 6.91838 3.27316 -1.59081 -1.32927 -0.268698
212 1 6.14237 3.3689 9.26635 0.174665 -0.965518 0.408
213 1 2.74208 5.64843 3.31851 -0.920473 -0.758278 0.157827
214 1 7.39906 1.66592 1.39294 -0.263353 0.163067 0.981479
215 1 0.694557 4.20398 9.17654 0.514676 1.13453 0.596597
216 1 0.252438 6.16253 0.360583 1.42637 0.454336 -0.149765
217 1 1.60436 5.27254 0.480047 0.404851 -0.382453 -0.105316
218 1 9.05976 2.17539 0.118148 -0.0127284 0.700131 0.689358
219 1 6.54508 3.04892 0.687611 -1.08337 -0.0933021 -0.0640859
220 1 2.11512 7.95567 8.26176 -0.23719 0.46726 -0.524384
221 1 3.14807 0.138353 4.79643 -0.579775 -1.04207 1.3263
222 1 4.90226 1.40005 4.88241 -1.61886 0.678099 0.894769
223 1 0.675514 0.399654 4.69582 1.28877 0.370372 -1.3855
224 1 6.11029 1.45068 8.93441 -0.784703 0.139441 -0.455587
225 1 5.6082 0.891529 4.66438 -0.374046 0.635426 0.474354
226 1 8.89248 2.39388 6.77865 0.242725 0.75273 0.822569
227 1 8.73839 9.12416 5.65239 1.59881 2.28414 -0.36057
228 1 4.38608 0.0296603 1.17165 -0.335186 0.0313819 0.641511
229 1 5.16633 4.17142 5.36819 -0.0777378 1.18195 1.47522
230 1 3.74215 6.22386 4.11183 0.375488 0.541778 -0.538921
231 1 2.74359 9.28166 6.73198 0.548423 -0.205773 -1.02571
232 1 8.11773 2.98041 2.44196 -0.531897 0.690416 0.856258
233 1 8.7136 0.236297 3.44959 -0.743692 0.0210377 -1.46154
234 1 8.6577 7.62804 6.91874 0.201979 -0.16672 0.575208
235 1 4.38424 8.01618 0.1544 -0.772333 -0.00677876 0.0973045
236 1 0.458384 6.49889 2.9304 0.269958 0.261369 -0.983471
237 1 1.24452 2.99398 1.7149 0.567285 -0.424931 1.35027
238 1 5.52193 5.5918 6.66344 0.808415 -0.642418 1.44036
239 1 4.38178 2.66565 7.72819 -0.691935 0.219898 0.366796
240 1 6.02944 4.32302 9.20323 -1.87745 -1.11656 -1.81161
241 1 7.07975 8.83026 1.77453 -0.343183 -0.470267 -0.191778
242 1 6.36538 0.821258 5.29915 -0.912559 1.22058 -0.200949
243 1 5.79931 8.46384 0.719306 -0.48541 0.784189 -0.659806
244 1 3.0815 2.28112 4.53942 -0.109862 0.41556 -0.408377
245 1 0.922829 4.88656 4.0332 -0.457892 -0.65197 0.593622
246 1 6.51613 7.86919 1.11882 0.270984 -1.34543 0.150965
247 1 6.55651 8.05461 3.40996 0.245773 -0.328275 0.794881
248 1 5.60948 3.2474 6.63028 -0.662404 1.62789 0.172802
249 1 5.49188 1.62387 1.54188 0.415269 -0.414021 -1.01983
250 1 3.12812 8.73673 4.01008 -0.0282009 0.917314 0.101459
251 1 3.73042 1.52783 5.1344 -0.461784 -1.05748 0.753755
252 1 3.56345 9.1567 6.4236 -0.585836 0.839025 -0.0911885
253 1 7.3686 9.33129 7.15966 0.366567 0.341954 -0.325295
254 1 7.20577 7.23109 1.74616 1.56242 -0.18929 0.877703
255 1 0.315057 3.43785 0.456058 -0.216017 0.774577 -0.629481
256 1 7.25289 7.53939 3.61906 -0.312177 -0.034252 0.752038
257 1 3.4225 2.83683 0.143626 -0.562115 -0.235618 -0.259198
258 1 9.27621 3.11053 2.59889 -1.40602 -1.14383 -0.373917
259 1 3.60658 0.744804 0.387067 0.366298 0.013677 0.585594
260 1 0.77633 1.90698 7.49173 0.0280018 1.12845 -1.47327
261 1 4.54606 3.35768 1.2797 0.0330517 -0.399892 -0.245226
262 1 5.56068 7.34915 7.51468 1.22739 -0.0640244 0.222654
263 1 8.60251 0.76621 8.84695 -1.4075 -0.340148 0.759063
264 1 6.68367 2.70786 1.59285 -0.307851 0.692327 0.898022
265 1 7.58887 0.248369 5.40915 -0.756725 -0.0634843 0.875211
266 1 1.58446 6.75161 5.2078 -0.678536 -0.148099 -1.06972
267 1 2.25924 2.05285 1.64889 0.0320849 -0.973618 -0.707397
268 1 2.22834 2.51201 7.20386 -0.576268 -0.631797 0.446432
269 1 4.88484 4.16019 6.94063 0.827534 0.67082 -1.30437
270 1 9.25323 8.93003 4.43975 -0.560268 -0.168871 -2.5971
271 1 2.01344 7.07326 7.75298 -0.170591 0.609107 0.319748
272 1 7.62627 7.70771 2.41747 -0.244774 -0.24136 0.972012
273 1 1.74809 0.584683 9.37244 0.221702 -2.14842 -0.246103
274 1 2.24086 5.65043 7.2376 0.229351 -0.998089 0.502001
275 1 9.34782 1.5372 6.86013 1.09762 -0.358335 0.948608
276 1 8.54315 6.35915 0.929314 0.386407 -1.30273 -0.313301
277 1 3.82828 3.65069 8.69537 0.0575511 0.413913 0.0921362
278 1 3.35845 9.11037 7.47377 -1.14537 -0.489762 0.375172
279 1 2.82663 0.0391288 0.104959 0.106128 0.395908 -0.0161171
280 1 7.45813 2.16044 7.48348 -0.377495 0.334904 -0.506058
281 1 1.75908 1.35475 3.63549 -0.596486 0.343747 -0.0462706
282 1 8.71025 5.16122 4.1679 -1.34855 1.16128 0.658861
283 1 1.09898 7.48176 8.30011 0.328472 0.569133 0.424536
284 1 2.6639 7.7771 9.20094 -1.2869 0.433378 0.654795
285 1 2.62007 1.32457 6.87388 0.144059 1.88969 0.406802
286 1 6.7799 9.24786 5.48783 -1.54922 -0.270604 -0.560778
287 1 5.93344 0.0452808 5.41552 0.0539614 0.771474 -0.190535
288 1 2.54684 7.95189 3.89668 2.28856 -0.709575 -0.819801
289 1 8.72954 4.42362 6.3579 -0.428414 -0.280535 -0.532501
290 1 5.00606 6.21695 5.91816 -0.20099 -0.441102 -0.0799382
291 1 0.936821 5.616 2.36289 0.181461 -0.210152 -0.666802
292 1 4.80173 5.99081 1.5731 -0.279594 0.960727 -0.117128
293 1 6.28504 1.09312 2.31451 -0.555552 0.373854 -0.447412
294 1 4.38528 7.45111 4.25062 -0.0109138 -0.0211055 0.618947
295 1 6.38336 3.80062 8.49845 0.927749 -0.536291 1.38398
296 1 6.95216 3.06041 5.05845 0.789179 0.0449578 0.144746
297 1 2.88399 8.97331 5.81929 -0.0195247 -0.128322 1.14621
298 1 8.74598 9.32054 8.36599 -0.648409 -0.425134 -0.429388
299 1 1.25553 6.29717 8.47205 -0.546877 0.773204 -1.85187
300 1 0.980236 0.573627 6.48759 -0.122396 1.20371 -0.747119
301 1 3.61275 6.53181 3.31101 0.454277 0.159114 -0.998186
302 1 8.45223 4.69581 7.9026 -0.718641 -1.10175 -0.771774
303 1 8.48313 2.95286 3.22785 -0.403044 -0.379513 0.108996
304 1 8.86956 6.88921 4.04008 0.28743 1.72075 0.422245
305 1 3.72744 2.90223 4.89981 -1.02438 0.533147 -0.443953
306 1 7.76555 0.459442 4.46159 -1.18002 0.455549 0.342661
307 1 1.50688 5.29442 6.14521 -0.706313 -0.236124 -0.228218
308 1 5.47704 4.06733 1.34102 -0.104294 0.725711 -0.774842
309 1 0.380642 4.33596 3.44446 -0.504981 -1.00625 0.208493
310 1 5.38662 8.36414 3.49299 -0.884282 0.00671335 -0.231033
311 1 1.41357 1.32869 8.46471 0.974894 0.203076 0.746288
312 1 4.16601 0.0741671 7.1313 0.427334 0.758891 0.214621
313 1 4.50653 6.15493 0.191887 -0.375038 1.771 -0.100004
314 1 3.55738 0.474075 8.07502 -0.723559 1.50632 -0.717183
315 1 8.42548 7.53922 2.11573 -1.34935 -0.0986671 -2.0352
316 1 3.95463 0.591638 5.15104 0.881308 -0.440338 0.963714
317 1 3.10642 4.63078 0.77701 -0.426666 -0.712426 1.67653
318 1 1.36061 3.44791 6.49259 0.354909 0.618132 0.486884
319 1 7.13295 8.2545 5.56144 0.727098 -1.1083 -0.294758
320 1 1.54946 4.10033 3.17841 0.260085 1.60866 0.738222
321 1 8.76955 2.02636 4.36565 0.460257 1.2214 -0.280914
322 1 7.09528 0.542878 9.33325 1.19514 -0.146696 0.591236
323 1 2.24416 7.13859 1.48972 1.27819 -0.352211 -0.374486
324 1 3.15514 9.0201 1.84943 -0.732498 0.748701 1.62079
325 1 9.37417 6.22479 4.5105 -0.058076 -0.981677 -0.710531
326 1 8.08364 8.39022 0.784908 -0.906386 0.605582 0.439246
327 1 6.8667 0.742797 3.67661 -0.0996719 -0.751565 -0.696996
328 1 8.39284 2.43182 8.19097 -1.31529 0.996015 1.10566
329 1 2.94287 3.09767 6.80088 -1.49917 -0.562148 -0.353399
330 1 4.60133 4.20133 1.72034 -0.399876 -0.126412 0.21639
331 1 0.288221 2.82942 6.78704 -0.709523 0.549457 -1.47771
332 1 6.85876 1.80805 3.78936 1.06361 -0.188671 0.862838
333 1 2.67191 2.55834 2.33837 0.704893 -0.378842 -1.48173
334 1 4.44621 1.33251 0.749704 -0.227188 -0.657868 0.882775
335 1 6.38358 5.70705 0.763634 -0.234196 -0.223663 -0.563578
336 1 7.05849 0.696207 1.7285 0.673895 -0.187924 0.146597
337 1 1.10931 1.75775 2.99456 -0.0213084 0.305114 0.894767
338 1 7.27385 4.34358 2.15955 -0.217026 1.21002 -0.243321
339 1 3.89581 9.12286 5.4623 1.20183 -1.50358 -1.42621
340 1 5.51461 4.05491 3.08303 0.412687 0.0232455 -0.73657
341 1 0.914678 6.74643 4.61447 -1.97914 -1.10986 0.353718
342 1 7.48096 5.28128 0.937112 -1.20487 2.06119 -0.216356
343 1 0.3293 9.01074 6.4332 -0.298486 0.922764 -0.537593
344 1 0.68449 1.07413 7.91305 0.269166 0.887315 -0.836931
345 1 5.09294 3.79047 3.82394 0.534975 0.410248 -1.09935
346 1 8.38012 1.26991 4.63973 0.236015 -1.04494 -0.539666
347 1 0.686434 7.36653 3.00687 -0.133747 0.0376427 0.117521
348 1 6.68919 5.06905 0.204213 -0.291111 0.547241 -0.383732
349 1 8.9599 8.69427 7.78321 1.11048 0.408643 -1.0165
350 1 9.1386 5.6013 6.92232 -0.269122 0.396797 0.317651
351 1 6.83777 2.72368 8.11465 -0.275549 -0.888445 0.317808
352 1 7.12564 6.25034 7.02608 -0.962575 0.66473 0.421273
353 1 3.32006 8.27936 4.84018 0.278352 0.546532 -0.381825
354 1 7.75708 4.05795 8.3288 -0.42096 0.194899 -1.57696
355 1 4.18702 7.47255 5.12318 0.185604 0.155031 0.172353
356 1 5.23183 3.04338 7.54916 0.125331 -0.772806 2.02279
357 1 7.77505 2.36731 3.38787 -0.556278 0.473775 0.153403
358 1 5.82024 2.92774 8.54496 -0.072673 -1.71561 0.763481
359 1 1.17793 8.42589 6.53884 -0.418198 0.860266 0.354573
360 1 5.32823 1.68084 0.348528 -0.139497 0.876541 -0.990521
361 1 2.41521 1.97928 3.16803 -0.12502 0.321606 -0.827716
362 1 8.63822 3.92667 0.557878 1.07644 1.23284 -0.437027
363 1 1.69184 7.6225 2.44355 0.707836 -0.020848 -0.452633
364 1 3.50035 2.76482 7.56883 0.0889878 -0.318504 0.494815
365 1 7.96529 7.64953 5.02983 0.348213 0.0878077 0.183321
366 1 9.14675 7.89822 1.55355 -0.00804878 -0.355918 0.592409
367 1 0.104082 7.31771 4.64831 -0.508253 0.234134 1.63081
368 1 4.11929 1.24936 3.94288 1.32793 -0.343341 0.541413
369 1 9.14608 0.346692 6.22754 -0.573499 0.12814 -0.140688
370 1 2.44423 4.88804 6.19534 -1.47859 1.95318 -0.184476
371 1 9.36053 7.89128 7.64491 -0.0706395 -0.501086 0.95085
372 1 6.89985 5.85879 4.14728 1.33605 0.457951 -0.269563
373 1 5.76906 3.22029 3.58344 -0.799352 -1.25007 -1.19906
374 1 5.91234 2.11291 8.10219 0.677196 -0.153539 -0.345591
375 1 5.75803 7.17496 6.31089 0.653007 -0.824842 0.52648
376 1 8.62063 5.30149 6.15875 1.5396 0.379007 0.346722
377 1 5.6007 5.45021 5.80169 -1.20557 -1.30763 -1.02957
378 1 4.05013 4.31525 9.33279 2.03516 -0.324789 -0.101798
379 1 0.22995 4.21335 4.83453 -0.165323 1.01615 1.6143
380 1 6.13334 5.09069 4.34427 0.358239 0.322567 -0.237879
381 1 6.94702 1.50488 9.28247 1.08119 -0.137101 0.386734
382 1 3.46577 7.34474 6.44201 -0.671304 -0.283335 0.646185
383 1 8.38611 9.03923 4.57405 0.902634 0.647922 -0.372399
384 1 3.77311 7.56697 0.983798 -0.511063 -0.842751 1.47713
385 1 5.21723 4.7317 7.8963 0.195496 0.75201 0.186776
386 1 2.10352 4.99732 4.62012 -0.0829995 -0.363825 1.47168
387 1 2.37307 4.27815 0.410136 0.167471 0.690485 -1.44363
388 1 3.30176 4.10077 1.62928 -0.209825 -0.420003 -1.08206
389 1 2.8865 6.79386 7.97972 0.780573 0.128607 0.62208
390 1 4.4487 8.65541 6.38844 0.124099 1.15491 -0.393289
391 1 6.39367 3.25385 4.31679 -0.546313 -1.27855 -0.678366
392 1 2.59138 7.54889 6.52484 -0.778139 -0.488785 -0.831164
393 1 0.345482 8.22648 4.72457 0.915753 0.74149 1.05493
394 1 4.73178 4.38178 8.66735 -0.260806 -0.439786 -0.574164
395 1 2.224 6.73386 4.37314 1.45824 0.0761508 0.615861
396 1 3.55736 5.76888 4.88046 0.36505 0.0136304 0.816921
397 1 0.162848 7.20965 2.32163 0.470112 -0.493319 -0.641675
398 1 0.107714 1.96603 1.92595 -0.441764 1.15894 0.591326
399 1 5.55595 0.945577 0.733763 1.11032 2.07422 0.174602
400 1 7.4653 8.90428 4.87882 -0.0923781 -0.118124 -1.49397
401 1 8.26043 3.56599 5.75042 0.419315 0.77047 -0.365752
402 1 1.80737 2.47568 1.00328 -0.63455 0.439839 0.176405
403 1 6.92528 2.488 4.35587 0.657946 -1.13289 0.552841
404 1 0.292565 8.00697 6.75814 0.975734 0.11851 -0.974139
405 1 4.34124 5.1892 6.96227 0.626012 -1.00756 -0.462145
406 1 4.961 0.0543028 8.37303 -0.00292212 -0.0545488 0.895234
407 1 5.2246 0.0195496 1.86171 -0.677788 -0.39984 -0.139632
408 1 1.45612 9.09568 1.89178 0.5281 -1.3439 0.595548
409 1 3.37925 0.568944 6.69241 1.188 -0.696279 -0.756355
410 1 7.17891 2.0381 6.40201 -0.104482 0.046064 0.323548
411 1 0.780745 1.41262 6.16403 0.624589 0.306925 -0.321882
412 1 2.1548 6.38983 3.13901 0.393267 -0.0336425 -0.74157
413 1 8.95726 4.25985 4.12848 0.944617 -0.88835 -0.1219
414 1 6.5524 5.7252 1.78047 -0.331555 -0.635579 0.922742
415 1 8.56211 0.938334 6.67449 0.966587 0.457832 1.73378
416 1 5.07431 1.90174 2.47231 0.347169 0.88877 -0.667519
417 1 4.50526 1.29011 9.08028 0.347935 0.203038 -0.812703
418 1 8.32601 2.2098 5.23142 1.38821 -0.0315035 -1.30054
419 1 5.30034 5.52745 4.25235 0.335668 0.0912486 0.70226
420 1 0.859699 6.43265 5.92701 0.649515 -0.790585 -0.694024
421 1 6.24929 1.26196 7.66478 -0.500123 0.79302 0.983855
422 1 5.30847 8.02447 6.37576 -0.752077 0.640252 0.536076
423 1 6.07053 4.67423 5.35824 1.37196 -0.738691 -0.139305
424 1 8.54607 1.7559 7.35226 0.168087 0.950698 -1.26694
425 1 1.1871 8.56374 1.20252 2.21133 0.116779 0.29557
426 1 1.08037 4.6981 2.20082 0.440314 -0.541275 -0.510511
427 1 0.699521 5.00092 7.84105 0.0768819 -1.74337 1.2063
428 1 1.8568 0.608995 6.9301 -0.0826811 -0.0529163 0.939146
429 1 4.81354 2.41869 6.41156 0.336229 -0.389451 -0.799041
430 1 8.58994 2.10047 3.4955 0.380172 0.878296 -0.162443
431 1 3.14905 0.931093 8.83092 0.553829 0.191001 1.1136
432 1 4.29667 8.93173 1.92209 -0.0830583 -0.082545 0.0675352
433 1 6.60103 6.92116 4.10706 -0.475993 -0.905817 -0.276983
434 1 8.07856 0.753935 0.391754 -0.360558 -2.19635 1.10367
435 1 6.23618 0.719185 -0.0069672 0.493626 -0.390765 -0.182547
436 1 1.07985 9.38185 0.311788 -1.45656 0.721536 0.314954
437 1 1.67772 6.87265 6.06573 -0.450706 0.392933 -1.29671
438 1 2.20036 2.97165 3.05627 1.31901 0.00392871 0.545845
439 1 4.62004 6.01673 3.70527 -0.439429 -1.59764 1.58867
440 1 0.0824046 2.23884 8.57908 -1.40394 -0.433315 -0.615328
441 1 6.74583 0.642416 7.27208 -1.59848 0.122398 -0.424735
442 1 8.51036 3.90161 4.75427 -0.0902252 0.187748 0.217098
443 1 6.99026 6.37191 5.36613 0.174928 0.237727 -0.371456
444 1 3.17344 0.626634 2.1373 0.518828 -0.334577 1.0743
445 1 4.36169 7.33727 2.41843 0.529461 0.260212 0.789882
446 1 0.903197 4.84489 5.66489 2.57049 -0.212292 0.00170862
447 1 6.2967 7.16646 1.81846 -0.287439 0.689283 0.740211
448 1 1.73116 7.90754 1.25738 1.80503 -0.529657 0.580983
449 1 6.78102 3.97345 0.406556 0.125887 0.525455 0.0229923
450 1 4.21994 8.88903 7.99705 -0.0428187 -0.249644 0.184302
451 1 5.86504 4.82764 0.63489 0.312203 0.700618 0.101465
452 1 3.06233 5.06458 4.30165 0.266644 0.752572 0.0958049
453 1 6.26386 5.40617 2.62504 -0.705643 0.660957 0.112031
454 1 5.59378 6.4671 7.95342 -0.636512 -0.383634 0.272811
455 1 8.10982 7.17326 3.22568 -1.06213 -0.755079 0.774096
456 1 8.78378 0.424453 4.36097 0.498131 0.882234 1.35659
457 1 1.52157 4.73728 7.12173 0.812366 0.696594 -0.0397614
458 1 2.34755 2.06161 5.88521 0.429932 -1.354 -0.372055
459 1 7.01941 7.63009 7.07968 -0.029466 -0.849277 0.92495
460 1 0.964456 1.83645 0.680771 1.17263 -0.306472 0.757577
461 1 1.76298 1.73679 7.64405 0.970269 -0.465873 0.288673
462 1 7.91945 7.25218 4.14454 0.307041 -0.529511 0.274773
463 1 5.27562 7.39312 8.35788 -0.0252979 -0.637896 0.291989
464 1 2.03075 3.42641 3.85023 -0.749752 0.150235 -0.622984
465 1 3.47388 1.50918 1.98534 0.700076 -0.165984 -0.0896918
466 1 7.36163 4.10046 3.29126 0.011165 0.50816 0.416934
467 1 7.25827 7.06049 9.34328 0.109501 0.651095 0.290542
468 1 9.18487 5.81548 3.69569 0.0249697 -0.582853 -0.75446
469 1 5.74593 2.4167 1.99735 0.799331 0.0778765 0.44568
470 1 8.58255 3.43255 8.20546 0.375505 -0.0377231 0.073701
471 1 4.47209 8.86905 8.88703 -0.759379 0.426935 0.393764
472 1 7.97663 2.63095 4.27291 -0.362012 -0.107361 1.17334
473 1 3.97582 8.43264 2.70909 -0.561935 0.35651 -0.444787
474 1 2.93595 3.79507 8.50226 -0.595782 -1.1949 -1.24609
475 1 1.83559 3.15478 4.82267 -0.227006 -0.0683489 -0.545527
476 1 5.56573 6.43582 6.98725 -1.45955 0.0479688 -0.959371
477 1 7.02985 3.40459 9.06043 -0.0373733 -0.832882 1.07367
478 1 0.885523 1.62272 3.91804 -0.293549 -0.755106 -1.11818
479 1 8.05306 0.766678 1.40001 0.116551 0.386966 1.52781
480 1 3.12169 5.82449 1.06641 0.153716 0.307355 0.203856
481 1 7.41617 4.9896 6.26879 -0.573099 0.523296 -0.0515349
482 1 6.8955 2.21047 0.490295 0.605347 -0.713275 0.917471
483 1 1.57957 3.38414 2.51388 0.173793 1.36701 1.73928
484 1 2.62989 0.721697 7.54645 0.723823 -0.449415 -0.125783
485 1 0.466372 0.494145 9.38909 -0.568627 -1.35677 0.908701
486 1 3.74898 3.68136 0.693801 -1.03515 -0.967696 -2.68691
487 1 6.70731 6.09417 9.40073 -0.741691 -0.0521405 0.734446
488 1 1.52103 2.60182 7.80195 0.653205 1.19386 -1.39408
489 1 5.07097 9.29361 3.65713 -1.01625 -0.0606472 -1.28246
490 1 5.35909 0.29038 2.81481 -0.00154821 0.749113 -0.486638
491 1 2.50188 0.971807 6.02243 0.0221642 -1.81294 -1.02843
492 1 1.63133 2.25943 0.147809 -0.929449 -0.40269 0.257662
493 1 3.03814 3.4066 3.99401 -0.166846 -0.31288 0.0442095
494 1 3.03415 6.05863 7.28471 -1.29667 0.80886 0.380284
495 1 8.63462 1.51119 2.17602 0.278744 0.202929 1.40337
496 1 2.49355 3.93283 1.38455 0.903856 0.0500144 -0.0907487
497 1 6.55554 3.66147 3.50433 0.316551 -0.749561 -0.244843
498 1 4.87586 0.828087 1.31412 0.259538 -0.993566 0.963218
499 1 3.07932 2.19904 8.03888 0.576442 1.53507 0.098341
500 1 4.25331 0.334673 4.06192 -0.981011 -0.925198 -0.668582
501 1 0.25918 7.48081 8.88414 0.24926 0.462037 -0.147328
502 1 2.77731 6.61021 0.878313 -0.0929687 0.00525041 0.854618
503 1 4.08758 3.49778 2.23487 -1.64757 0.178191 -1.00577
504 1 8.83656 2.95223 0.60926 0.128386 0.607903 0.238475
505 1 5.40215 3.00433 2.58589 0.531139 -0.513724 -0.167253
506 1 1.70241 5.30722 1.92257 -0.00598114 -0.642382 1.03922
507 1 8.22306 2.30063 0.781991 0.326496 -0.0893598 -0.359168
508 1 2.22716 1.86028 8.45701 -1.07466 0.481487 -0.0982072
509 1 6.47323 7.65015 7.69908 1.04548 -0.355541 1.24877
510 1 0.517391 1.24458 1.45249 -0.179766 1.75283 0.779582
511 1 8.93613 8.64288 1.04919 -0.199363 1.61827 0.371272
512 1 1.64975 5.29707 7.86264 0.416059 1.01256 0.580996
513 1 3.42921 0.45353 3.59934 -1.05158 1.17691 0.428029
514 1 3.93519 3.59023 7.6816 -0.942278 0.112306 -0.431706