ITEM: TIMESTEP
412900000
ITEM: NUMBER OF ATOMS
1000
ITEM: BOX BOUNDS pp pp pp
0.0000000000000000e+00 9.4000000000000004e+00
0.0000000000000000e+00 9.4000000000000004e+00
0.0000000000000000e+00 9.4000000000000004e+00
ITEM: ATOMS id type x y z vx vy vz
1 1 1.2264 1.91802 2.94662 -0.484785 0.578855 0.85788
2 1 7.30628 2.77475 4.04455 -0.207403 -0.552368 -0.316783
3 1 7.85832 1.55069 1.90354 0.834493 -0.545923 1.00271
4 1 6.46071 1.65619 8.38197 -0.34615 0.391986 -0.0867232
5 1 5.16377 4.43167 6.47338 0.0429659 0.590946 0.132359
6 1 4.35425 3.2773 4.38307 1.26916 0.641102 0.111336
7 1 5.93233 5.98076 9.08683 -0.086287 -0.709939 -0.716384
8 1 5.63333 1.60618 7.28227 -0.890783 -0.109077 -0.756632
9 1 1.90445 6.36361 4.46574 0.635671 0.784271 1.64738
10 1 4.81182 2.19631 8.2897 0.022353 0.223922 0.600102
11 1 6.37754 6.28206 8.1001 0.183215 -0.78238 1.12306
12 1 6.12744 6.02201 5.96362 0.698055 -0.225258 -0.0479495
13 1 8.39356 4.10517 2.92402 0.831026 -0.957968 0.330235
14 1 1.07451 9.11109 0.296278 -1.2362 0.124297 1.08931
15 1 0.159678 1.86481 7.10079 0.774336 0.576448 1.16592
16 1 5.82893 2.16839 8.76199 -0.363918 1.03193 0.371779
17 1 3.22644 4.58611 1.38914 0.911267 0.221787 0.0444997
18 1 8.21645 6.00712 7.71686 -1.26968 -1.05472 0.782803
19 1 8.88062 9.24481 5.67439 1.47776 0.578994 2.072
20 1 7.95045 3.00666 2.99964 0.828829 0.358747 -1.28623
21 1 5.86922 8.52691 7.55989 -0.169706 0.11288 0.177487
22 1 4.07187 7.44429 5.16806 -0.418997 -0.233043 0.352272
23 1 1.34018 7.53408 6.22374 1.06285 -0.441939 0.891828
24 1 9.01347 7.90359 6.98027 0.391817 0.55563 -0.520637
25 1 7.31163 2.75776 1.02896 -0.661476 0.740226 -1.07184
26 1 5.63511 6.42025 7.55997 0.275433 0.970971 0.0214177
27 1 8.71279 2.20336 1.87905 -0.847683 0.219358 -1.72608
28 1 2.01016 0.724301 8.34131 0.0172704 0.172355 -0.143999
29 1 6.86252 6.48395 4.48844 -0.909431 0.199335 -1.04134
30 1 4.08726 6.04024 0.705729 -0.442609 -1.08648 -2.09385
31 1 2.72111 7.72057 7.55985 1.406 1.39279 -0.363899
32 1 2.38442 6.52926 8.86021 -0.163739 0.13777 -0.223624
33 1 0.124848 5.19226 2.7788 -1.00898 0.504884 -0.909916
34 1 6.66498 2.41638 4.49179 -1.16786 0.202811 -1.18761
35 1 8.34092 7.57497 7.59814 -0.375642 -0.162973 0.367977
36 1 5.02986 5.57736 8.93723 0.530758 -0.320279 0.597296
37 1 0.507862 5.73722 3.44072 -0.372931 1.64335 -0.370214
38 1 0.370384 5.70224 0.944741 0.0826342 0.177427 1.27306
39 1 3.10966 0.314014 8.59201 0.00615523 -0.329237 0.827599
40 1 2.55193 6.841 1.41453 -0.662445 -0.0199238 -0.466174
41 1 8.80489 2.34608 2.76104 0.246678 -1.28895 -0.171195
42 1 5.0183 8.67364 7.50673 0.672174 0.360628 0.449799
43 1 8.88805 8.15985 4.27699 2.12374 -0.931147 0.0894083
44 1 5.33586 4.34095 7.40079 1.24498 0.825178 -0.436471
45 1 1.60319 3.70919 1.29887 0.393253 -1.27108 -0.146617
46 1 4.56066 4.16725 4.01551 1.16432 0.742274 -0.321161
47 1 2.84925 7.53761 1.75757 0.529858 0.313462 -2.27008
48 1 3.42184 -0.0100654 7.76356 1.51536 -0.538813 -1.09008
49 1 4.99162 6.90985 7.88366 0.274583 -0.31646 0.00362461
50 1 3.07133 6.27711 4.40997 0.471837 0.23794 -0.0785675
51 1 2.50084 3.04158 2.50265 -0.999757 0.0212272 -0.53248
52 1 8.75363 7.64593 0.296739 0.877975 0.150326 -0.144043
53 1 4.64085 2.55658 9.16603 0.510581 -1.2085 0.112235
54 1 5.01169 6.08186 8.12408 -0.0982382 -0.185738 0.588487
55 1 8.92626 2.32339 6.32429 -0.368378 0.0276646 0.358675
56 1 4.69063 5.26864 0.370831 0.0638081 0.0657517 -0.0101968
57 1 8.11056 4.32036 1.958 0.187368 -0.638523 -1.5641
58 1 5.78109 0.99895 1.83344 -0.413478 -0.665305 -0.627756
59 1 8.19141 3.12049 9.00985 0.34784 -1.02746 0.0700952
60 1 3.76345 5.44393 4.34324 -0.862076 0.655724 0.692029
61 1 7.93472 1.01356 2.5692 0.78858 0.276491 0.855566
62 1 5.00715 6.91952 6.87798 0.247029 -0.966598 -1.18138
63 1 6.96682 7.07228 7.76925 0.605231 -0.430934 0.047827
64 1 1.42997 0.347089 1.92686 0.523044 0.187905 1.02952
65 1 4.73801 6.28737 6.15491 0.16673 -0.485368 0.737143
66 1 3.63421 3.43719 5.23941 -0.0175761 -0.963735 -0.593257
67 1 0.463227 3.53632 9.02501 0.814139 1.18705 -1.27664
68 1 7.01129 0.630594 3.8835 -1.10303 -0.406799 0.691342
69 1 0.04944 2.27335 4.7958 -0.125334 -0.992479 1.08065
70 1 1.73316 0.347459 6.10876 -0.010528 0.438549 -0.04898
71 1 5.34102 2.86321 4.23743 -0.62727 0.245066 -0.173393
72 1 6.8626 2.5078 8.04085 -0.400876 -0.987102 -0.703029
73 1 3.31573 7.74586 9.13304 0.689799 0.0429738 0.195269
74 1 5.68489 0.753844 5.88968 -0.211057 0.887505 -0.901378
75 1 2.63629 6.23853 3.5346 0.367799 -0.72008 -0.175967
76 1 8.95898 5.15209 4.56401 0.254092 0.489912 0.715928
77 1 5.87699 7.83126 2.2765 -0.105881 -0.472158 -0.856906
78 1 0.668234 4.25677 6.17597 1.08788 -0.678161 -0.0754699
79 1 5.1488 4.93745 1.15496 -0.417031 -0.235566 0.518691
80 1 2.29421 5.09205 7.31029 -0.592788 1.02027 -0.0629891
81 1 4.8447 0.848508 0.416927 -0.67514 0.483077 1.96517
82 1 4.48783 1.77207 4.67115 0.594226 -0.404242 1.8239
83 1 8.45851 8.3562 8.22618 -0.660627 -0.083174 -0.234755
84 1 6.19617 5.57111 4.89755 -0.533945 -0.306143 0.0792181
85 1 4.34617 0.482559 3.70353 -0.265894 0.613352 -0.395652
86 1 2.89736 2.46514 6.77201 1.6168 0.35567 0.236526
87 1 1.58397 8.85427 1.31341 0.329308 0.79689 -0.59617
88 1 1.70398 7.0432 8.87532 -0.993541 -0.382473 2.09214
89 1 7.20369 6.84905 2.31548 1.11882 -0.0239878 -0.377179
90 1 2.56055 4.8662 5.62541 -0.744804 -1.35425 2.37535
91 1 1.43807 0.875922 6.93336 0.76485 0.805407 0.263967
92 1 0.543403 8.54062 2.74341 -0.226874 0.616554 -0.041671
93 1 7.57056 9.14428 8.04893 0.726192 0.540325 0.384372
94 1 8.84505 0.898844 7.61117 -0.272961 0.746425 -0.275517
95 1 4.42375 4.35433 0.331328 -1.39123 2.13058 1.5008
96 1 5.41729 0.052708 8.96729 -0.616404 -1.00764 -0.503557
97 1 4.04952 8.73272 5.29747 1.53096 -0.437764 -0.740463
98 1 3.68615 6.17064 5.34067 0.246275 -1.25942 0.496629
99 1 1.34833 2.49598 7.20926 0.87436 0.487624 0.896964
100 1 4.2398 7.32564 1.61334 0.00791073 0.928264 1.15083
101 1 6.51397 7.76187 0.479093 0.046574 0.664438 0.358958
102 1 2.01702 1.30794 4.54278 1.01041 -0.22986 -0.292003
103 1 3.24425 1.37326 8.94057 -0.252288 -0.336154 0.694727
104 1 0.210252 5.98973 9.33839 -0.327767 1.74562 -0.0738202
105 1 2.0073 5.23747 4.47063 0.51198 1.13239 0.786801
106 1 5.72291 2.94077 5.70693 0.646073 -1.5827 -0.0836427
107 1 6.87021 4.58721 6.95369 -0.225054 0.0513872 -0.189361
108 1 2.00537 5.74564 5.29926 0.24192 0.939616 0.228632
109 1 4.96324 3.71732 5.92863 -0.109217 0.0279615 -0.358621
110 1 7.78023 1.57946 5.90387 0.573205 -0.806653 0.602968
111 1 1.43837 5.52987 7.78152 -0.716583 -1.0478 0.883127
112 1 4.44957 3.82493 6.96571 0.37914 0.316977 0.494287
113 1 7.29741 1.96165 5.23821 0.772747 0.461178 -0.0589517
114 1 3.58103 3.70709 7.25939 0.380559 1.05425 0.354743
115 1 3.33747 0.0513313 6.03592 0.145026 -0.678989 0.154037
116 1 5.04971 8.95489 6.72738 0.668116 -1.26647 0.791433
117 1 9.35422 2.94273 2.27301 0.96556 -1.46815 -0.0185828
118 1 2.20271 7.78556 3.42874 -0.952676 -0.556671 0.0562563
119 1 2.07951 1.11611 0.37668 1.45943 -0.516363 1.01943
120 1 2.37998 3.37769 7.29097 -0.041681 0.196038 -0.366672
121 1 9.33762 6.72957 8.86869 0.626447 0.667596 1.06656
122 1 9.23997 7.14287 4.9105 0.0613229 -1.65164 -0.0286997
123 1 3.4277 2.61634 2.54037 1.41064 -0.411679 0.446062
124 1 4.0636 5.92094 7.34837 0.78777 -0.630504 0.0386002
125 1 2.81445 2.74886 3.38565 0.00714412 -0.5064 1.23162
126 1 2.35519 0.260254 7.5761 -0.0827085 0.302389 1.11317
127 1 1.6335 3.99595 7.2357 0.0574452 0.213758 0.21919
128 1 6.93791 5.29114 2.30358 0.276603 -0.380703 -1.38972
129 1 7.79307 6.22892 3.19643 0.526589 -0.978638 0.172665
130 1 2.9938 6.01475 0.272752 -0.426784 -0.84354 1.45802
131 1 0.839812 6.6506 8.9498 -0.666014 0.607009 -0.224878
132 1 2.77559 3.21249 0.227291 2.00758 -0.478578 -0.206599
133 1 1.15832 2.17455 1.19468 0.77896 0.0592008 -0.701219
134 1 3.34007 1.98056 4.20902 0.522222 0.319716 0.50782
135 1 8.79179 7.877 2.22997 0.0534844 -0.248529 0.365229
136 1 3.77843 0.51454 0.797111 -0.245895 1.081 -0.902741
137 1 8.27948 1.92833 0.886875 -0.337655 -0.89089 -1.89482
138 1 8.8663 4.4605 8.26163 1.11128 0.627185 0.910796
139 1 6.2294 8.77551 2.54756 -0.369917 -1.7326 -0.951717
140 1 0.573182 0.39038 6.789 -0.365132 1.29331 -0.312776
141 1 1.18413 0.60372 7.83351 0.754048 0.785913 0.682816
142 1 4.20514 1.919 2.77315 -0.844886 1.07787 0.848243
143 1 4.32469 4.75109 8.93705 0.138587 -0.941397 0.257008
144 1 7.60805 6.56605 8.12404 -0.0883857 -0.509107 -1.48315
145 1 1.55594 3.96375 2.69996 -0.200535 -1.34006 0.210736
146 1 0.595589 3.92518 6.95424 0.511996 -0.52225 -0.838849
147 1 4.07989 3.06477 6.95507 1.48548 -1.41685 -0.218429
148 1 0.0943012 7.91187 1.08153 -1.3532 -0.0999259 -0.104575
149 1 4.06508 1.3128 8.42012 0.00559181 -0.5246 -0.180869
150 1 4.52826 0.497244 6.38801 0.473337 -0.292197 0.0868297
151 1 7.07722 5.24919 8.86987 -0.169374 -1.0462 -0.865997
152 1 8.90468 7.30289 3.9032 -0.0528099 -0.922542 0.692272
153 1 6.21522 0.673618 5.1233 0.0876644 0.122354 -0.303449
154 1 4.33464 7.1307 0.600975 0.686988 0.187085 -1.4524
155 1 3.25855 2.9222 5.98497 0.571448 0.588208 -0.313903
156 1 8.44936 9.05043 7.61671 1.08617 0.53911 -0.335483
157 1 7.33056 5.24828 0.954072 -1.36954 -0.334712 -0.672556
158 1 1.21415 5.78171 4.92654 -0.251268 -0.437315 -0.118492
159 1 2.64432 4.32379 3.46821 -0.973525 0.842419 -0.385671
160 1 8.68712 0.482812 2.45953 1.28859 0.594288 -0.539183
161 1 7.75353 7.9312 3.1378 -0.388498 0.152464 -0.169882
162 1 8.44489 8.62602 6.61698 -0.672063 0.28482 -0.279073
163 1 0.421245 1.59982 3.51042 0.333054 -1.01452 0.177745
164 1 4.74784 1.5874 7.71441 -0.17322 0.670988 -0.0926855
165 1 6.72521 2.32579 9.25755 0.990117 -0.737001 0.0757901
166 1 4.92807 5.45528 6.32439 0.188592 -0.0392625 -0.0822169
167 1 7.96816 6.00881 5.72085 -1.17592 0.385222 -1.52617
168 1 8.53169 0.853218 5.61532 1.14881 -2.06023 -0.263453
169 1 3.16015 4.84693 7.65902 0.491286 -1.45265 -0.439444
170 1 6.01949 4.72173 6.45831 0.203859 -0.169335 -0.386886
171 1 4.99635 3.43012 0.158915 0.144189 0.276231 -1.01106
172 1 6.4909 2.82173 0.528911 -0.100403 -1.29693 -0.221438
173 1 7.09275 1.39971 6.78125 -0.223591 -0.345789 0.449201
174 1 3.22969 4.7644 2.85422 0.972478 -0.574395 0.289673
175 1 1.05407 9.33005 3.02186 0.341423 -0.696421 0.885729
176 1 6.93053 5.2774 6.44188 0.662256 -1.12731 1.26597
177 1 1.23344 6.26357 2.97694 -0.696161 -0.578801 -0.0819372
178 1 7.69698 8.92692 3.5131 0.551329 -0.0235809 -0.18387
179 1 7.38933 5.81327 3.94301 -0.493173 -0.273169 -0.0741441
180 1 6.15604 4.58439 3.98529 0.19639 -0.486919 0.488165
181 1 3.13442 8.37853 8.26457 -0.389987 0.291133 -0.665376
182 1 8.56088 1.33805 6.34521 -0.13362 -0.400935 -0.145268
183 1 7.76885 7.62049 8.27937 1.11501 -0.0417729 0.545034
184 1 7.49456 3.1628 5.48967 1.18693 -0.193584 0.0587443
185 1 5.71689 2.46922 6.8646 0.269248 0.299489 1.16394
186 1 5.95383 4.48357 4.86192 -1.7649 -0.348647 -0.981697
187 1 3.30475 3.37267 2.08834 0.179737 -0.282677 1.57415
188 1 7.51264 6.83706 5.31447 0.310363 0.739604 -0.601285
189 1 0.932453 9.04061 1.94185 0.271343 -0.0104792 1.23276
190 1 9.22282 3.91045 2.1967 0.617577 -0.742087 -0.573296
191 1 6.41999 6.65676 7.06972 -0.592202 0.606103 -0.541204
192 1 2.33983 3.04519 5.94327 -0.204253 -1.82844 -0.303072
193 1 1.09468 2.85982 3.60136 0.511284 -0.884777 0.852196
194 1 2.04597 2.28828 3.05575 -0.535767 -1.54249 0.994754
195 1 2.14995 6.07416 7.63468 -0.282858 -1.13529 -1.26618
196 1 3.45839 2.9165 4.39293 -0.980639 -0.629901 0.106556
197 1 2.70961 8.90484 7.54335 -1.08204 0.0479609 -0.0938949
198 1 7.98209 3.52873 7.03022 -0.70777 -0.11791 -0.109049
199 1 5.78052 6.86266 3.0192 -0.512365 -0.334729 -0.138245
200 1 6.6918 1.9147 3.71981 -0.588658 0.0447188 0.0845732
201 1 1.99265 1.5697 7.17634 0.84461 0.62759 0.372655
202 1 3.7469 4.56862 3.55159 0.164357 0.0278352 1.11289
203 1 1.53113 5.06501 5.45995 0.337283 0.376779 0.238601
204 1 1.41274 1.30776 8.78606 1.05808 -0.0691155 -0.408794
205 1 6.02269 4.04263 9.3284 0.351898 0.422691 -0.0501488
206 1 5.40106 4.25524 0.54315 0.319991 -1.19049 1.24853
207 1 3.98347 5.92968 6.42801 -0.0129069 0.251119 -0.24073
208 1 5.30121 1.51338 8.43578 -0.120269 0.200419 0.0322187
209 1 4.4997 2.54482 4.0108 1.02136 -0.260603 1.26089
210 1 6.56213 6.51381 5.40015 -0.370859 -0.284793 0.295245
211 1 0.414014 6.18436 1.68603 -0.408873 0.399342 -0.0934531
212 1 2.43971 1.71741 3.76288 0.138039 0.451366 -0.973619
213 1 4.24784 4.3095 2.04235 0.0174056 0.167509 -0.0962161
214 1 6.19512 7.41692 4.87731 -0.0487912 -0.0674372 -0.762452
215 1 3.14035 6.7705 2.61646 0.853416 -0.0822721 0.734146
216 1 7.6631 5.9428 6.67255 0.469977 0.107686 -1.40211
217 1 1.622 8.46413 3.77625 -0.474332 -0.22019 0.366484
218 1 6.47345 3.70448 2.67424 -0.715494 -0.164879 -0.268338
219 1 4.88516 8.48291 5.85582 -0.918393 1.02347 -0.118527
220 1 3.48826 0.373832 2.75465 0.0528836 0.468852 0.119211
221 1 6.44701 0.934437 1.30466 -0.397824 -0.153212 1.16179
222 1 0.492587 0.163278 5.80439 0.185678 0.00111538 0.708046
223 1 5.14279 7.72344 7.45981 -0.123728 0.891314 1.66051
224 1 7.3704 3.29586 7.55829 0.823588 0.510086 -1.6386
225 1 2.67785 0.849763 1.1756 -0.833013 -1.13086 -0.0904858
226 1 4.74384 2.75922 0.700734 1.26562 -0.749988 -0.534294
227 1 8.30621 8.59934 2.83465 1.01209 1.00336 -1.05602
228 1 6.93874 4.39387 3.10018 -1.2112 -0.507532 -0.748865
229 1 2.07485 6.13647 0.236228 0.29392 -0.405593 -0.878811
230 1 1.09139 1.67144 6.73505 -0.302164 0.612249 0.461808
231 1 1.61361 4.09352 5.7714 0.867602 -0.107264 0.557838
232 1 3.69084 2.2661 3.40389 0.825346 0.760737 -0.154435
233 1 9.32331 1.43685 4.53958 0.112741 -1.59561 0.151893
234 1 7.57136 4.7086 2.52408 -0.892935 0.333083 0.363357
235 1 7.92177 0.668021 1.62641 -0.576994 -0.980714 0.811324
236 1 2.7815 0.965756 5.81836 -0.598442 0.403868 -0.187717
237 1 0.211214 3.26277 6.17904 0.0906788 -0.872799 -0.592242
238 1 3.96925 2.0979 7.82657 0.344827 -0.744958 0.604015
239 1 5.11845 0.939274 7.06249 0.0484508 1.55855 1.05603
240 1 0.173347 9.29033 1.3815 0.451803 -1.47319 0.295531
241 1 2.14859 7.78018 0.123243 0.378864 0.770858 0.238323
242 1 4.38714 6.11628 3.66293 0.400176 0.151156 -0.260731
243 1 8.77214 7.50307 5.8836 1.17219 0.984123 -0.698027
244 1 7.64266 0.490206 7.49031 -1.34327 -1.2188 0.0624331
245 1 8.65069 1.8652 7.32414 0.518847 0.291317 0.443324
246 1 1.43068 5.53783 6.92647 -0.418656 -0.757805 0.273741
247 1 3.32266 2.69277 7.58278 -0.926062 1.61009 -0.442297
248 1 6.67452 2.0319 1.56732 0.546877 -0.100744 1.29925
249 1 7.07565 5.37875 4.78345 -0.652937 1.13154 0.205797
250 1 2.02073 2.40677 1.39943 -0.0727442 -0.347081 -0.509484
251 1 9.11767 3.53436 1.2862 1.05153 -0.0497706 -0.0495831
252 1 8.60056 2.86106 7.01322 1.45378 1.0131 -0.0149836
253 1 0.0770199 9.14807 0.281186 -1.37976 -0.335975 0.0954507
254 1 0.784834 2.03277 5.261 0.120791 0.93913 0.321792
255 1 7.04308 0.888213 0.158836 0.631892 -1.12985 0.418165
256 1 4.1237 0.999974 2.95983 -0.44971 0.512301 0.623958
257 1 8.62505 9.33459 8.49745 -0.398844 0.46111 -2.2756
258 1 3.01186 3.51485 6.57345 1.22765 -0.311639 -0.144494
259 1 6.7442 4.82166 0.298478 -0.130099 -1.32183 -0.802055
260 1 2.6847 2.55883 8.61422 -0.170311 -0.172053 -1.03634
261 1 5.1061 0.708137 8.01626 -0.270364 -0.77928 -0.953423
262 1 7.15312 2.91609 2.13733 -0.647869 -0.545758 -0.245713
263 1 3.77298 8.98888 8.7483 -0.345429 -0.393168 -0.623484
264 1 2.31099 2.53198 7.61075 -0.408064 -0.217088 -0.450704
265 1 0.742502 8.2187 5.56456 0.298366 -1.41603 0.210247
266 1 6.68929 8.18331 7.24398 1.1173 -1.07319 0.637491
267 1 7.61524 6.75541 9.37064 -0.465644 0.450951 -1.13749
268 1 1.84197 2.91143 4.13022 0.0462576 0.451386 1.24105
269 1 0.270446 4.59859 1.87508 -0.283052 -1.01109 -1.6168
270 1 8.86712 5.93043 4.92765 -0.136146 0.0558727 -1.18994
271 1 6.90501 6.67852 1.56036 -0.393721 0.0865387 0.422166
272 1 9.18218 0.0492737 7.34868 0.94171 -0.488263 -1.26224
273 1 4.09963 6.03716 2.71327 0.889083 -0.828913 -1.81641
274 1 3.47275 5.36885 0.840904 -1.15118 0.108877 0.651628
275 1 6.50019 5.33565 7.54249 -1.41737 -0.172982 -0.881489
276 1 4.04743 5.96241 1.78547 0.177056 1.17696 -0.656678
277 1 4.82875 0.852882 8.83245 0.773806 1.35318 -0.137927
278 1 6.38268 7.08095 6.13715 -0.156789 -0.081693 1.0179
279 1 3.5864 8.03525 3.38024 0.726112 -0.97865 0.0108474
280 1 8.02543 9.22394 2.08126 -1.09994 0.980308 -1.14328
281 1 4.69457 3.99003 4.95279 0.908447 -0.943553 0.519978
282 1 6.71394 7.92328 6.22322 0.988033 0.272045 0.00573245
283 1 7.71824 4.46291 6.63503 0.186855 0.339905 -0.157043
284 1 1.01512 2.43342 2.15209 1.04904 0.534959 -0.0113449
285 1 1.10693 7.62535 3.96933 -0.592182 0.873638 -1.01038
286 1 4.57861 8.34025 2.74072 0.382451 -0.266714 -0.299533
287 1 0.138125 6.26937 2.56066 -0.445043 0.400231 1.64139
288 1 3.09877 2.41243 9.37777 0.0773605 -0.0324451 0.191598
289 1 5.86194 1.93442 0.990103 -0.227618 1.61127 -0.379274
290 1 5.75903 7.79373 1.32646 1.2543 1.48262 0.247971
291 1 4.0916 6.34338 8.13641 0.592093 -0.000423562 -1.10781
292 1 6.71104 4.41526 8.60896 -1.05061 -0.409002 -1.18643
293 1 1.90365 6.77815 3.57966 -1.00492 -0.0911719 0.324329
294 1 7.78867 0.286656 4.13041 -1.2572 0.562408 -0.699445
295 1 8.14388 5.42785 2.60414 -0.364024 0.112742 -1.16161
296 1 3.15392 5.79355 7.85642 0.31324 0.0111039 -0.287778
297 1 1.14103 5.68932 -0.0127427 0.0803735 -0.00234716 -1.226
298 1 5.32965 6.98079 4.60579 0.867533 0.342612 -0.171726
299 1 4.10158 8.12151 0.215899 -0.711022 -0.756478 -0.217047
300 1 0.791542 1.36204 0.894552 -0.294025 -1.1074 -2.18125
301 1 8.84623 4.54265 1.46827 -0.71504 1.09457 1.68422
302 1 8.23618 1.43925 8.33197 0.200227 -0.136009 -0.317561
303 1 8.38205 3.35647 3.64791 -0.193876 -0.128219 0.157628
304 1 9.21652 4.84325 6.25303 -0.679281 0.889073 -0.928723
305 1 3.88855 8.91289 3.41109 -1.14645 -0.776243 -0.188357
306 1 4.03292 7.76869 8.43632 -0.595758 0.170579 -0.879607
307 1 7.06707 7.39912 4.61332 0.522768 -1.80328 0.218907
308 1 8.36944 5.99138 4.17874 -0.0944184 0.612551 -0.632483
309 1 5.61977 6.6904 0.636933 -1.04966 0.0742477 -0.0360595
310 1 9.13249 2.7798 5.50156 -0.174212 -0.564308 1.26991
311 1 8.02973 2.60297 5.84299 -0.754304 0.358721 1.01883
312 1 0.548581 6.31119 7.19769 -0.68871 1.29352 0.219699
313 1 7.22912 7.14946 3.35012 -0.7397 -1.01472 -1.0584
314 1 6.42415 8.39399 4.86857 1.15965 0.977282 0.381631
315 1 4.03946 4.9865 6.15297 0.654666 0.592762 -0.0458265
316 1 1.28295 0.660039 0.129521 -0.530097 -0.465475 -0.930318
317 1 8.4764 0.461722 4.66592 0.606185 -0.0105028 -0.513001
318 1 4.36722 3.03496 8.01226 -1.73621 0.078235 -1.82588
319 1 4.29879 1.59053 1.98052 -0.0414118 0.14981 -0.209528
320 1 1.18766 7.00625 1.87476 -2.14225 -0.0276296 0.678069
321 1 5.71933 8.43648 8.52581 -0.817717 0.203599 -1.09861
322 1 5.60146 5.33409 7.83915 0.611713 0.421774 -0.19472
323 1 0.735673 3.75645 3.45184 -0.446281 -1.31072 -0.00632608
324 1 5.22272 7.5709 8.63946 -0.730689 1.22498 0.943452
325 1 8.96146 2.82864 0.198309 1.02398 -0.166274 -1.8234
326 1 5.19108 7.67272 2.91992 0.0171228 -0.09987 0.14619
327 1 1.55186 1.92967 5.6012 -0.578105 -0.19348 0.355615
328 1 2.56716 4.14924 8.92655 -0.888177 -0.717191 -0.490757
329 1 1.69375 1.04161 1.19986 0.543636 0.0131382 -0.273745
330 1 9.2495 8.81802 8.09917 0.521282 -0.452748 0.735803
331 1 6.24809 4.43312 7.78513 1.05944 -0.894034 0.195017
332 1 6.47255 7.77654 4.1234 -0.495617 0.971734 -0.150512
333 1 4.27782 2.07332 1.21966 0.718682 -0.0575196 1.0872
334 1 8.03614 5.61347 8.70817 -0.268043 0.0362138 0.809998
335 1 7.02022 8.57026 5.54431 -0.858898 -0.235364 0.291184
336 1 8.88164 6.73798 2.9674 0.273819 -0.752771 0.634877
337 1 5.55415 1.37455 9.30832 0.502252 -0.1004 0.220243
338 1 2.89965 5.41771 3.59881 -0.669803 -0.130316 0.00476638
339 1 7.22641 3.07793 6.51652 -0.469222 -1.09214 -1.07739
340 1 3.09593 3.35842 8.43473 -0.594967 -0.0732595 0.00373388
341 1 8.72619 0.0626633 1.45279 0.618385 -0.156937 0.311326
342 1 4.9662 8.74272 4.75678 -0.677372 -0.621944 1.19866
343 1 2.29857 9.30171 6.67947 -0.0254883 2.26292 1.69359
344 1 4.85352 3.35135 3.6639 0.684541 -0.537329 -0.362798
345 1 2.32621 1.53323 8.08636 -0.446427 0.941217 0.195824
346 1 7.02227 3.25496 3.20917 -0.145153 0.0338937 0.665357
347 1 8.43975 3.17972 7.8496 1.1818 -0.31643 0.705502
348 1 5.2137 7.56379 0.302209 -0.0382771 -1.45911 -0.562906
349 1 5.59484 7.43781 3.8041 -0.814758 0.941811 0.383705
350 1 8.71494 8.93975 4.84175 -0.487942 -0.670368 -0.0755793
351 1 7.77886 6.71773 4.0011 0.0787947 -0.67135 0.0592163
352 1 4.22768 6.70488 4.66145 -0.286762 -1.37102 -0.721389
353 1 2.5119 0.845243 6.90005 0.0860665 0.0148086 -0.766334
354 1 1.15638 3.35624 7.72615 0.0454084 0.0825276 -0.114265
355 1 2.61917 7.03454 3.94627 0.471722 1.59969 0.803849
356 1 7.86345 9.23338 9.04619 0.0411488 -0.191967 0.0159005
357 1 2.59266 5.29726 9.34538 0.775122 0.166496 0.251903
358 1 5.92305 7.48126 7.07029 -0.094952 0.16355 0.223069
359 1 5.93273 8.18102 3.1857 1.05654 -0.468432 -0.723661
360 1 5.92309 7.8641 9.22634 -0.609032 0.195797 -0.283366
361 1 0.405945 6.45975 4.73228 -1.82617 -0.260375 0.356894
362 1 8.3477 4.82166 9.12824 -0.535034 -0.7696 0.231918
363 1 3.45996 7.10591 3.41974 -1.00291 -0.595495 0.891088
364 1 1.11226 3.9409 0.600301 0.638994 0.0502418 0.923815
365 1 7.5977 4.22598 3.63608 -0.115459 -0.0504388 0.503196
366 1 1.26146 5.99768 1.94851 -1.30697 -0.0761341 1.32407
367 1 2.80577 5.48483 4.94033 0.00252456 -0.181361 -0.078972
368 1 2.18632 4.87544 8.28775 0.514682 1.11271 2.04124
369 1 1.40916 1.4781 7.85765 0.828222 0.715531 0.235119
370 1 2.61462 7.98877 6.70757 0.218679 0.762991 -0.145811
371 1 5.24936 0.837275 3.95306 -0.0246547 0.200767 -0.902951
372 1 3.84471 5.37044 9.3359 0.283968 -0.982703 0.926322
373 1 9.37852 0.411071 8.16433 -0.0845356 0.784078 -0.67284
374 1 9.22773 3.68919 5.01582 -0.631348 -0.201142 -0.0192816
375 1 3.50409 8.35355 7.15273 -0.042177 -0.0587671 1.28306
376 1 4.12357 6.81636 6.79207 0.228419 -0.689547 0.224666
377 1 2.52348 8.33571 1.25365 0.0352628 0.549321 -0.575816
378 1 4.91526 8.37692 9.00509 1.2854 0.861525 -0.411648
379 1 8.98787 5.59224 2.1272 -0.336312 0.00463991 1.26262
380 1 1.4601 7.48974 8.05474 0.282691 0.535372 -0.518225
381 1 6.08899 4.51234 2.72568 0.552615 1.12799 -0.652108
382 1 7.37141 8.22216 0.673049 -0.93206 -0.0559325 -0.480499
383 1 9.06745 8.50041 3.26922 0.593769 -0.0242815 0.369743
384 1 9.15641 0.775607 3.7695 0.0759815 0.520775 -0.0206378
385 1 2.77745 7.73021 4.84687 -0.261256 -0.0776219 0.169552
386 1 1.89005 7.66127 1.37318 -0.936413 0.445489 -0.0417081
387 1 4.2335 1.35705 0.702003 -1.02224 0.319791 -0.870155
388 1 5.06036 4.70012 4.63891 -0.0901387 -0.0915025 1.01529
389 1 0.682713 4.00379 5.3029 0.720202 0.807586 0.473082
390 1 5.38363 3.13696 8.66472 0.576946 -0.212262 -0.241133
391 1 5.22508 6.48027 3.74156 -0.463338 0.161331 0.9459
392 1 1.77653 4.99624 0.497725 0.36179 -1.55192 0.146826
393 1 3.08787 0.380811 0.237043 0.729669 0.15108 -1.12327
394 1 1.37114 4.35404 4.89814 0.962256 1.67144 1.19667
395 1 3.54696 1.36083 2.2588 0.153315 -0.386353 -0.586787
396 1 5.59271 8.54825 0.359243 1.34041 0.106039 -0.36605
397 1 1.23892 1.45271 1.86142 0.574369 -0.93842 -0.525216
398 1 7.99207 8.9144 1.06698 -0.492218 -1.33202 -2.07559
399 1 0.520438 0.792962 1.56535 -1.0141 -0.465557 -1.23753
400 1 9.24474 4.52474 7.30411 0.0354259 0.5983 -0.693828
401 1 8.21234 0.960028 3.81031 1.05288 -1.23721 0.805257
402 1 4.8325 8.8489 0.760538 1.31016 0.117217 1.27734
403 1 7.67639 8.35881 8.7493 1.84821 0.777156 -0.178419
404 1 2.36439 1.88716 0.674801 -0.999756 -0.0850465 1.33671
405 1 8.97809 5.13293 3.61155 -0.0169737 0.548422 -0.408567
406 1 4.74478 8.14497 8.16299 1.21052 -1.11503 0.000567887
407 1 9.09565 1.66968 8.7812 0.334413 0.579021 0.317132
408 1 6.48022 2.85039 7.00675 1.3626 -0.0714561 -0.795852
409 1 9.30216 1.70635 1.16917 -0.980846 0.206859 -0.302663
410 1 0.458352 6.04819 5.6514 0.573843 -1.88053 0.879374
411 1 5.25672 4.59678 3.67172 -0.35531 -0.705052 1.38191
412 1 3.09332 1.91889 8.22005 -0.381082 -0.193122 -1.27277
413 1 4.08959 1.50994 9.24301 -0.220764 0.384634 -2.11871
414 1 5.86685 0.790211 0.472623 -0.126679 -0.537855 -2.43602
415 1 7.69156 4.78247 8.38919 2.09858 -0.597191 -0.259678
416 1 6.35707 4.11842 1.21005 -0.735787 0.860082 -0.721863
417 1 4.53904 0.10018 7.43929 0.988056 -1.3672 0.279229
418 1 2.79513 1.54018 1.78141 -0.520402 -0.431328 -0.125129
419 1 6.31675 3.11834 9.04562 0.889069 -1.14681 0.739468
420 1 4.24158 0.0296198 4.54003 -1.02957 -1.23172 -1.10009
421 1 7.82668 6.86932 1.67633 0.331322 0.13294 1.228
422 1 0.942399 0.193586 0.952616 0.529091 -0.480976 -1.63785
423 1 8.3601 3.46224 0.76537 0.399256 -0.0294076 -0.790661
424 1 0.745475 5.27439 1.93367 -0.863384 0.852172 0.875151
425 1 5.65733 5.25946 4.28834 1.21122 -0.582179 -0.255225
426 1 4.52001 9.17299 9.33158 -1.02294 -1.4726 -0.343277
427 1 8.58615 4.39362 5.03779 0.232072 -1.56261 1.22354
428 1 1.82406 8.36473 6.28247 1.23966 -1.26881 0.0546584
429 1 5.75886 5.23814 5.77971 0.187893 -0.689046 1.53347
430 1 1.54759 0.73131 3.7105 0.209197 -1.50155 -0.255084
431 1 2.4104 7.56952 8.72631 0.224206 1.54816 -1.22459
432 1 5.39191 1.03775 4.88811 0.83262 -0.923059 -0.0925608
433 1 5.31573 9.38824 5.31646 -1.36087 0.122578 -0.884482
434 1 8.86637 8.53379 0.887658 0.308201 0.361243 0.762367
435 1 1.17859 2.17478 8.97727 1.4048 -0.241904 -0.80227
436 1 4.0268 0.706846 1.79242 -1.64532 0.711622 -0.769735
437 1 1.79687 2.23212 8.3129 -0.496485 1.40899 -0.380448
438 1 8.57398 8.91561 3.89313 0.443043 1.88934 -0.38978
439 1 3.84161 2.29421 6.46084 0.146971 -0.0568263 0.713407
440 1 7.34702 8.51691 2.57706 -0.132261 -0.589039 -0.642606
441 1 8.8591 5.47326 6.99636 -0.403102 -0.0821316 -0.02501
442 1 4.00384 3.49989 3.62357 -0.190631 1.11864 0.273819
443 1 5.79805 1.60377 3.35832 -0.0570984 -0.110522 -0.731454
444 1 3.07621 8.71603 6.34725 -0.3684 -0.707079 1.78783
445 1 7.45675 9.11509 6.9747 1.44377 -0.77892 1.08625
446 1 0.240856 8.81362 6.68926 0.346083 -1.46965 -0.0252251
447 1 2.90056 3.78958 5.55342 -0.944765 1.01578 0.179794
448 1 7.31097 8.67517 1.63387 -1.42612 -0.0469617 -0.259053
449 1 8.0368 7.08962 2.98129 0.704762 -1.06069 -0.122566
450 1 2.05299 1.27246 2.88213 -1.08995 -1.14869 -0.478453
451 1 2.75607 0.0317961 3.13129 0.5423 -0.0802889 -1.39434
452 1 0.933148 3.50028 4.41224 -0.185308 0.0553094 -1.0764
453 1 7.35565 7.67931 5.59574 0.996141 -1.01601 -0.170409
454 1 2.92663 4.79602 4.26711 1.24462 -1.12286 -0.325825
455 1 0.919236 0.947784 6.02141 -2.17303 0.933151 -0.000774677
456 1 8.02543 5.10201 3.49137 -1.15405 -1.69827 -0.74296
457 1 0.816076 3.42253 2.16003 -0.265884 0.622105 0.546727
458 1 4.63182 2.57893 6.11337 -0.255062 0.485346 -0.517429
459 1 9.04209 7.01873 0.923007 0.334611 -0.612176 -0.173843
460 1 4.02741 5.29458 8.24962 -0.033396 0.46571 0.402599
461 1 5.05847 6.72196 9.04937 -0.145645 -0.100132 -1.05727
462 1 5.25986 2.491 3.39917 0.794638 -0.828962 -0.294425
463 1 2.24605 6.92748 7.40158 -0.256004 0.079119 0.114617
464 1 4.91323 9.10569 8.38795 -1.10326 0.497942 -1.51862
465 1 0.308088 7.6205 2.74024 1.13636 -0.904617 -1.14491
466 1 2.36415 8.57687 3.14259 -1.03843 -0.368157 0.229114
467 1 1.7489 3.17351 1.96416 0.922305 -0.582767 -0.949453
468 1 0.514162 3.03954 5.06901 0.507236 -0.0370141 -0.715154
469 1 5.89383 3.2242 7.70403 0.0907733 -0.224867 0.328129
470 1 0.350901 3.19126 8.03028 0.479798 0.693344 0.821042
471 1 2.81599 6.84103 8.11668 0.364183 0.768008 -0.865838
472 1 2.11861 3.49787 3.35703 1.08783 0.233819 -1.17713
473 1 5.2947 4.44987 5.48123 0.0100688 0.0796593 0.36557
474 1 7.20992 6.62741 6.28695 -0.461413 -0.235541 -0.783495
475 1 0.204239 7.8372 3.63626 -0.645577 -0.532161 -0.220266
476 1 0.871906 6.55966 6.27177 -0.191785 0.654745 0.22878
477 1 4.568 5.10132 3.87528 -0.653614 -1.19642 0.507677
478 1 2.27093 5.86271 2.78696 -0.305253 -0.319998 -0.397431
479 1 7.64277 3.01743 8.28423 -1.37738 -0.0296992 0.44116
480 1 5.99061 3.60528 1.8893 -0.475968 -0.925555 0.643921
481 1 3.20421 5.22404 6.16071 0.171561 -0.835157 -1.4927
482 1 8.09075 7.11907 0.865827 0.0105879 0.718277 -0.538201
483 1 0.367758 9.38323 4.60809 0.504787 0.481044 0.618234
484 1 1.4033 0.0328328 8.80813 0.0941886 -0.0218704 -1.15235
485 1 0.604324 7.91881 7.61938 -1.31158 -0.0303281 -1.02741
486 1 9.28555 3.66735 7.42129 0.0968205 0.194947 -0.270783
487 1 2.56073 3.44679 4.74271 -0.446791 0.810661 0.619646
488 1 5.26433 3.74829 2.95936 -0.389685 -1.0153 -1.34809
489 1 1.07994 6.42764 3.9305 0.784096 -0.860778 -1.3914
490 1 0.188699 7.36925 1.85544 -0.166171 -0.127329 0.379708
491 1 7.15025 0.828989 5.36156 1.91493 0.620853 0.331606
492 1 9.01797 4.04509 9.26898 -0.822639 -0.192345 -1.33935
493 1 2.82679 1.42235 4.75148 0.714111 -1.09057 0.7069
494 1 6.7282 1.4911 2.49007 0.849015 -0.151032 0.480957
495 1 4.90547 1.66101 3.90169 -0.525721 0.454673 -0.114625
496 1 7.093 8.3912 8.07948 1.46487 1.01189 -0.120966
497 1 0.644102 4.28875 2.64467 0.431992 -1.20309 0.42203
498 1 2.71622 4.28113 7.01668 0.929679 0.759644 -0.673297
499 1 2.10983 3.80977 6.46123 -0.586561 -0.537927 -0.98307
500 1 2.28615 9.11907 8.53819 0.603338 0.866024 0.702827
501 1 1.49148 6.77874 0.50865 -1.08032 -0.171892 -0.387703
502 1 3.83298 1.09602 5.67428 -1.40055 -0.817392 -0.142824
503 1 5.13683 1.92718 1.70047 0.358012 0.295358 0.0359146
504 1 7.74785 5.12647 7.47561 -0.754996 -1.35799 -1.51826
505 1 7.91018 7.68285 2.25602 -1.47517 -1.99301 0.65533
506 1 6.02303 7.00403 1.92523 -1.03933 -0.117675 0.439543
507 1 7.24447 5.37669 3.18243 -0.0766068 1.08051 0.99899
508 1 4.58479 0.125664 1.22525 0.681696 -0.5615 0.814595
509 1 7.3273 1.61645 7.97642 0.837422 -0.815449 -0.442562
510 1 6.28867 6.81474 3.77617 -0.82504 -1.13209 -0.461635
511 1 8.53001 6.78028 9.32127 -0.69324 1.47902 -0.932031
512 1 0.245407 3.33673 0.52948 -0.985284 -1.6128 0.126549
513 1 6.1515 2.68446 1.44764 0.187785 -1.09947 -0.121533
514 1 5.9368 2.24415 7.88951 -1.10939 0.109869 0.397667