ITEM: TIMESTEP
386350000
ITEM: NUMBER OF ATOMS
1000
ITEM: BOX BOUNDS pp pp pp
0.0000000000000000e+00 9.4000000000000004e+00
0.0000000000000000e+00 9.4000000000000004e+00
0.0000000000000000e+00 9.4000000000000004e+00
ITEM: ATOMS id type x y z vx vy vz
1 1 1.22009 2.96111 7.31838 0.0519472 0.203613 0.111216
2 1 0.314658 5.20024 6.24005 -0.0107214 -0.0671739 0.14381
3 1 9.2555 7.29893 6.048 0.559699 -1.2104 -0.0948764
4 1 1.22532 7.18282 7.20203 1.33879 -1.21455 0.829304
5 1 3.99058 5.42068 0.110133 -0.54201 -1.24677 0.428726
6 1 3.52259 1.7492 6.20678 0.0986263 -0.670574 0.714845
7 1 1.02986 4.48113 5.81109 -0.648717 -0.470842 0.267889
8 1 5.62381 0.951057 6.78303 1.84043 0.271843 -0.130062
9 1 4.17275 2.47926 2.58085 0.192356 1.74808 -0.323302
10 1 6.47387 9.04074 9.05338 -0.179479 -1.22407 -1.23881
11 1 5.32765 8.54853 9.09108 -1.82789 -0.663287 1.55256
12 1 7.90741 7.56677 5.96485 -0.0744125 -1.17026 0.762412
13 1 5.20488 6.80945 2.52034 0.502606 1.23401 0.968239
14 1 7.62076 7.31244 2.88565 -0.819457 -2.17757 2.39079
15 1 6.26706 3.68041 6.64268 -0.753744 -0.0016457 -0.271993
16 1 8.19639 8.01694 9.10719 0.121405 -0.560074 0.515497
17 1 8.01853 1.55206 3.4427 -0.713227 -0.630286 -0.609114
18 1 0.82969 2.10957 0.109011 -0.38986 -0.298873 -0.455576
19 1 6.21192 7.58725 7.66205 2.15582 0.984473 0.893027
20 1 4.11166 3.63105 6.44388 -0.671255 -0.0627027 0.316743
21 1 5.97499 7.3903 2.0774 -0.34342 0.531488 1.15801
22 1 9.3797 0.0547507 9.19413 0.798327 0.507636 -0.887578
23 1 6.40969 9.13387 7.98707 0.312452 -0.948061 -0.911833
24 1 5.37894 5.60495 3.85974 -1.01434 -0.113821 1.33712
25 1 8.79345 8.34835 5.11208 0.189818 0.638263 -0.566566
26 1 1.18319 6.42393 1.70456 0.504779 2.05022 -0.606938
27 1 4.86845 7.25374 3.25747 1.12821 0.178855 0.111055
28 1 9.0963 5.2506 1.7357 0.322806 0.267463 -0.938753
29 1 1.8007 6.99215 8.87147 -2.11076 -0.773772 0.714592
30 1 7.28291 4.61242 4.23917 0.125516 0.550493 0.293641
31 1 2.9971 6.08139 3.92502 -0.249251 0.97416 0.018489
32 1 1.99507 8.0274 1.35938 0.788036 -0.172014 -0.719382
33 1 0.433953 7.45145 6.86185 -0.312983 -0.651174 0.161847
34 1 1.88241 3.43182 2.80871 1.68357 -1.05057 -0.419158
35 1 4.2746 4.05262 8.21024 0.26059 -0.431953 0.838896
36 1 5.06206 7.50141 9.015 -0.322982 0.12422 0.0999174
37 1 7.30385 2.40088 7.76264 0.0902449 0.42974 -0.00215543
38 1 2.47072 0.538633 0.705152 0.483146 0.194293 -0.454041
39 1 3.24917 8.61982 0.216355 0.25512 0.238659 0.601192
40 1 4.07975 6.98404 6.10188 -0.34717 1.36647 -0.0583172
41 1 4.04739 7.89756 4.81775 -1.10339 0.0660662 1.52268
42 1 6.23708 1.29784 0.0139423 -0.25724 -0.37403 -0.281659
43 1 7.296 1.93021 6.87554 -1.15341 -0.0596039 -0.374162
44 1 6.57657 2.02645 8.49581 0.652849 0.913965 1.77948
45 1 2.07141 4.79047 0.057875 1.06947 -1.97407 -0.0203232
46 1 2.21452 5.82447 4.43208 0.0921386 1.0979 0.711141
47 1 8.70898 6.90542 1.1119 -0.10207 -0.128069 -2.24591
48 1 5.00872 5.06322 4.5868 -0.515993 0.144057 0.319802
49 1 0.78002 7.71876 3.59539 0.764213 -1.31442 -1.27663
50 1 8.95227 6.39218 6.10597 -0.667457 0.593099 -0.538611
51 1 8.7904 5.19861 7.4671 -0.628048 0.592188 -0.197008
52 1 9.04143 8.38589 9.11967 -0.515954 -0.901865 -1.29032
53 1 2.82979 9.26373 4.75805 -0.171585 1.21532 0.654624
54 1 8.8859 2.09184 4.29419 0.827279 0.0622966 0.709601
55 1 5.78696 3.0202 1.6264 -1.42239 0.108422 0.647111
56 1 7.26717 4.31503 7.7501 0.0853892 0.10058 1.00525
57 1 5.63083 4.80661 2.1587 0.879599 -1.24257 1.34525
58 1 1.56494 9.02559 1.07618 0.480504 0.0942144 1.09138
59 1 0.869019 0.148273 5.74362 0.281699 0.928883 0.0382313
60 1 4.24154 8.68764 8.954 0.0487085 0.17203 -1.01408
61 1 6.90201 6.43548 8.65623 0.260488 -0.784115 -0.91842
62 1 0.863999 1.87814 8.53648 0.376358 -0.258104 -0.0851131
63 1 0.722443 1.08999 4.01898 0.528995 -0.707123 0.582829
64 1 3.40138 6.0278 0.0275795 -1.21371 0.514798 -0.176017
65 1 5.54189 3.90022 7.11334 -0.903855 0.750818 -0.224429
66 1 5.3172 3.19437 2.58925 -0.753618 0.406802 0.131348
67 1 3.42312 6.0396 1.91597 -0.834269 -0.394062 -0.318839
68 1 1.46055 5.86647 7.40004 0.774652 0.072794 1.70367
69 1 3.51652 3.55448 3.73251 -0.481941 -1.02835 0.571875
70 1 3.45649 4.31075 6.62761 -1.38141 0.206208 -0.637047
71 1 6.99013 5.24344 7.51531 -0.397747 1.37939 -1.0856
72 1 8.41787 1.71187 7.46721 0.490372 -0.471846 0.202568
73 1 0.728197 9.04331 4.43225 0.121413 1.04334 -0.236698
74 1 3.35589 0.853551 9.10507 1.13981 0.883387 0.381968
75 1 2.11232 9.14386 7.14759 -0.956042 -0.0657359 -0.607244
76 1 7.84462 1.57861 0.472917 -0.153359 1.30103 1.16877
77 1 8.98543 9.12331 3.66314 1.26154 -0.290261 -0.66181
78 1 4.79497 2.4622 4.6951 -0.0643642 0.92513 -0.244498
79 1 4.79213 1.25516 6.79657 -1.19403 0.0814896 0.479056
80 1 0.0766873 8.48686 4.16558 0.487131 1.12213 0.534571
81 1 1.01375 3.88434 7.91253 2.10427 0.273653 0.297428
82 1 5.3918 4.05315 1.66512 0.701359 -0.259184 -0.142061
83 1 0.951349 7.27631 0.220762 1.90462 -0.158172 -0.220572
84 1 2.64996 0.316781 2.74848 0.486378 0.406524 -1.24088
85 1 3.7908 1.63821 1.22377 -0.628248 0.178821 1.35731
86 1 6.40734 2.35227 1.65093 0.366354 -0.282127 -0.632927
87 1 9.25232 7.45379 3.49301 0.784648 0.362779 -1.03909
88 1 8.49724 5.56579 9.31913 0.322276 0.90943 0.204178
89 1 7.32514 9.09785 7.67481 -0.534357 -0.0873758 0.253085
90 1 1.86961 7.68272 5.79897 0.234421 0.393431 -1.27571
91 1 0.787269 6.35759 8.12217 0.113375 -0.504638 -2.12203
92 1 1.33786 8.91167 2.78026 0.469071 -0.397618 0.113073
93 1 4.76434 2.5629 1.91236 -0.397048 0.764161 0.823263
94 1 4.77555 7.54367 6.52036 0.239741 -0.0439775 -0.00136857
95 1 4.9201 9.09901 7.82464 -2.7344 0.0679647 0.732197
96 1 7.18817 0.445455 1.47226 -0.107109 0.743817 -1.53042
97 1 4.85754 4.62807 3.82515 0.579698 2.0704 -0.708639
98 1 8.54122 5.62896 6.50719 0.573044 0.625772 0.395474
99 1 1.58936 4.11247 8.60766 -0.693846 0.291452 -0.124493
100 1 2.30508 3.27884 1.90268 0.935473 0.851683 -0.629149
101 1 4.81808 6.42111 6.3312 0.241547 -0.52295 2.45182
102 1 0.737456 5.80353 2.42048 -0.593965 -0.0198187 1.07816
103 1 8.72513 9.19728 4.74125 -1.06195 0.413245 0.716413
104 1 6.1315 8.53324 7.27823 0.26172 0.466235 -0.61005
105 1 1.30622 4.63947 7.59795 -0.437272 -1.31923 -0.407635
106 1 7.71944 5.00666 9.34034 0.0783824 -1.22541 -0.030641
107 1 7.21425 4.93445 0.725989 -0.0497371 0.181828 -0.483464
108 1 9.31698 6.0798 8.92617 0.137879 0.24988 1.4696
109 1 6.45156 6.7687 0.978346 0.405616 0.0293582 -0.0617217
110 1 2.29303 8.03738 2.31122 -0.0329017 -0.760427 0.806294
111 1 0.0749829 4.65035 7.5216 0.972081 -0.297221 -0.0975466
112 1 8.7462 4.53241 1.24428 -0.63054 0.703276 -2.25331
113 1 2.16055 1.25588 0.0707611 -0.4393 0.348867 1.93864
114 1 4.90559 5.72789 5.38719 0.274723 0.842823 -0.212023
115 1 3.73062 0.696106 0.766707 -0.10594 -0.351661 -0.0517969
116 1 2.73951 4.96779 4.93702 1.74408 0.57561 -0.400883
117 1 6.45866 8.99187 3.9706 2.95951 0.762926 -0.867611
118 1 1.8761 8.43115 3.17734 -1.26784 0.381732 0.0783711
119 1 9.32327 5.53143 0.302432 0.385049 0.656796 0.773658
120 1 7.81043 6.6333 0.871846 -0.0524666 1.12205 -0.0309532
121 1 7.74503 2.38455 5.42797 0.625953 -0.86714 -0.0607883
122 1 6.45758 2.83352 6.93551 -0.83428 0.402724 1.1169
123 1 7.06214 8.38887 7.21562 -0.117205 0.193867 0.604651
124 1 5.73469 1.49567 8.52251 -0.232562 0.171743 0.00836192
125 1 6.27806 5.1744 0.53781 -1.20727 1.45349 -0.453993
126 1 6.72843 7.76314 6.70059 0.705391 -0.826209 -1.14433
127 1 1.10899 8.3062 4.95113 -0.916308 -0.749628 0.0649217
128 1 8.77385 7.30528 9.25546 -2.05607 -0.0363839 -1.73735
129 1 8.52314 8.5364 3.20092 0.153085 -0.0782482 -0.312207
130 1 7.58119 3.84854 4.08317 0.309979 -0.407501 -1.47078
131 1 4.06433 6.39467 8.83492 -0.43032 -0.173582 0.311057
132 1 1.15288 7.1837 6.20471 -0.914237 0.487009 -0.711507
133 1 7.97233 2.15102 8.31339 0.814077 -0.197336 -0.950698
134 1 1.39762 2.71173 2.00342 -0.289076 -0.393986 -0.146943
135 1 9.1662 4.42769 2.2824 0.713363 -1.2809 0.0675294
136 1 8.79747 4.13513 7.4037 -0.916536 -0.13056 0.176251
137 1 2.4121 8.25783 9.33096 1.35545 -1.8873 -0.00325397
138 1 4.44892 0.418224 5.10132 -0.459601 0.454963 -0.701364
139 1 0.171559 8.15272 6.34441 -1.11136 0.168797 0.434923
140 1 1.51115 5.63352 1.60816 -0.927903 -1.31168 -0.159474
141 1 2.57548 3.98938 0.457239 0.514112 -0.0964196 -0.100885
142 1 9.23618 5.15425 4.61055 0.0585521 1.01155 -0.560365
143 1 2.38551 5.90415 5.31501 0.877267 0.659821 -0.114969
144 1 8.30669 8.96604 0.0600628 0.172681 0.463941 -0.325232
145 1 6.97357 8.61615 5.33705 -0.574103 -0.536654 -0.459521
146 1 8.70163 2.78754 5.01527 0.0602906 0.0515688 -0.31734
147 1 2.39709 5.93585 7.6983 0.486271 -0.239636 0.269534
148 1 7.38714 5.89083 1.72929 -0.464231 -0.864269 1.00223
149 1 7.51773 2.41501 3.67964 -1.05024 0.369889 -0.686605
150 1 5.76729 3.26697 8.25665 -0.104472 0.627108 0.41472
151 1 2.50068 6.79569 7.16872 -0.199558 -0.170645 -0.150539
152 1 5.68649 6.82316 0.132354 0.366683 -0.140709 -0.0992793
153 1 0.934047 8.89098 7.80048 0.0884835 1.17819 0.814218
154 1 0.0155001 5.91505 5.27361 -0.926849 -0.805298 0.547942
155 1 8.2678 2.76581 6.10244 0.426013 -0.254073 0.740185
156 1 4.14685 1.66785 3.01314 0.0366972 -0.972182 0.940157
157 1 1.6487 5.9978 8.44989 -1.65076 0.692646 0.326313
158 1 0.165734 1.68689 6.63138 -0.214214 0.551031 -0.712597
159 1 6.38199 0.565608 7.387 -0.808302 0.498709 -0.225945
160 1 4.57092 2.4141 9.40978 -0.531226 -0.0598546 1.20068
161 1 2.05574 5.74302 6.06582 -0.446116 0.811036 0.321699
162 1 0.458557 2.97404 1.44317 0.850358 1.24766 1.26025
163 1 4.97173 2.37296 3.05333 -0.354944 0.23124 0.617918
164 1 5.16852 0.180681 2.96978 1.36232 -0.282023 -0.402432
165 1 7.57521 0.803809 3.44676 0.282935 -1.18974 0.249606
166 1 9.26402 1.15643 3.45847 0.0515115 -0.59848 0.321631
167 1 1.02476 3.1043 8.35722 -0.27058 0.0551482 0.194961
168 1 0.0450788 8.47033 3.20435 -0.0880979 -0.632604 -1.41111
169 1 3.48608 5.15947 5.66841 -0.158878 -0.0469514 0.587656
170 1 8.56062 1.39884 9.10146 -0.170004 -0.434787 1.0222
171 1 1.19183 0.972035 4.78256 0.649677 -1.21362 -0.0265177
172 1 5.72224 4.13746 4.99209 0.795209 0.600398 -0.678296
173 1 5.82422 0.49257 9.1488 -1.15072 -0.6372 -0.516476
174 1 8.87605 3.01661 8.76903 0.721997 1.03611 -1.20292
175 1 5.24654 8.58638 2.66993 -0.368347 0.497816 -0.610807
176 1 0.109392 0.666891 6.40735 0.433983 1.42317 0.40076
177 1 6.40518 8.33432 0.720009 -0.89552 -0.0182066 -0.424638
178 1 1.56617 0.988862 8.48619 0.559886 0.0812335 0.274903
179 1 1.8729 2.47118 4.26147 0.375258 1.30286 0.757083
180 1 0.984881 5.34083 0.735004 -0.0892717 -0.607233 -1.39322
181 1 0.220822 0.474723 5.2016 -0.497128 -1.06508 -0.74252
182 1 4.78278 8.02402 3.5582 0.518169 0.109813 1.15812
183 1 2.05172 7.58209 6.76562 0.44435 0.421249 0.599637
184 1 8.44618 5.86483 5.3804 -1.26603 0.00263139 -0.656112
185 1 6.39531 7.05608 5.38651 0.422638 0.0207002 -0.311011
186 1 6.94894 4.04077 2.58401 -0.232199 -0.715106 -0.221758
187 1 7.75717 3.20224 3.22845 1.19667 0.10616 0.475715
188 1 7.92195 3.40559 0.826978 0.327163 0.743343 0.188454
189 1 8.26304 5.67072 2.44221 0.442989 -0.0927567 -0.0562441
190 1 8.68149 5.36991 0.964643 0.553353 0.395412 -0.20768
191 1 3.88789 2.60269 6.20713 0.36864 0.143245 -0.484073
192 1 6.63537 5.68259 8.19064 0.413464 0.565957 0.338243
193 1 4.70221 7.22122 5.04333 -0.0348423 -0.448444 0.5604
194 1 8.96052 6.80622 8.30031 0.929401 0.190729 -0.0409458
195 1 3.10759 3.57526 6.22055 0.246982 -0.17671 -2.01479
196 1 5.45294 5.5807 8.39666 -1.23549 -0.881792 0.283888
197 1 4.4682 8.85124 6.12225 0.662717 0.660488 0.0459386
198 1 5.27306 5.81477 7.52396 0.952316 -0.67116 -0.844309
199 1 8.34598 0.442541 1.4791 -0.412044 -0.589085 0.275639
200 1 4.10875 6.46772 5.0905 -0.66852 -1.02203 -0.182795
201 1 3.69199 3.95521 4.51508 0.327896 -0.141622 0.542492
202 1 6.71325 3.06063 2.44971 0.0916546 -0.00768537 0.992734
203 1 6.77835 9.35765 5.98384 0.274849 0.35302 0.530127
204 1 0.574675 3.70634 0.729891 -0.00170415 1.79293 -1.03875
205 1 6.37879 1.66534 5.49175 -1.11188 0.0226349 -1.49572
206 1 7.85678 9.26289 3.2559 -0.654062 1.15082 1.22317
207 1 2.72104 9.28035 8.97902 1.22504 -0.253608 -1.04367
208 1 5.54156 7.66697 2.78671 -0.291877 1.43703 1.27143
209 1 0.315372 4.57625 5.08891 -0.395428 -0.386377 1.12915
210 1 1.9455 1.95486 2.5863 -0.804459 -1.0331 -1.17931
211 1 4.9691 3.00964 8.0893 1.34364 -1.0867 0.445849
212 1 1.28811 8.26066 6.83931 -1.7752 -0.105891 0.0455164
213 1 2.35442 3.08553 5.49705 -0.0451677 0.197485 0.208448
214 1 5.98698 5.00459 7.98933 0.297372 0.294709 0.973078
215 1 6.00923 0.719549 5.67317 -1.06012 -0.00470535 -0.67781
216 1 1.09504 8.57557 3.69271 0.566402 0.312088 -0.308727
217 1 1.07523 2.36527 2.88526 1.45583 0.775661 0.393901
218 1 6.05284 6.30115 7.72859 0.346661 -0.784136 0.198762
219 1 2.00126 3.76349 6.17319 -0.94924 -0.549459 0.146767
220 1 7.91626 6.11545 6.95913 -0.354469 -0.898961 -0.405564
221 1 1.10494 4.53995 4.85196 0.835925 0.758188 1.04847
222 1 1.46496 4.71595 1.4324 -0.736323 0.747036 -0.865853
223 1 5.93424 0.206107 6.3506 0.577765 0.928425 0.0243696
224 1 5.32287 5.82379 9.24414 -0.386943 0.392061 0.85051
225 1 5.7728 6.44583 1.78277 0.473076 -0.122304 0.960049
226 1 2.01114 0.415975 8.925 0.453251 -1.11081 0.593912
227 1 3.89957 0.0668015 7.52256 0.069843 1.98915 -1.02152
228 1 2.49773 5.98333 2.67898 0.804673 0.588574 1.95868
229 1 0.504986 4.17273 8.65051 0.537359 -0.0782294 -0.401636
230 1 0.0225548 5.06082 3.57182 0.216528 0.931144 -0.520149
231 1 5.1879 0.133118 5.63774 -1.38471 0.225869 -0.239636
232 1 1.26974 9.33669 8.61432 1.33373 -1.07197 0.435733
233 1 6.20805 5.5475 7.10291 1.30021 0.491171 0.431517
234 1 7.07257 0.380306 2.39487 0.288746 -0.491324 -0.472104
235 1 0.833376 6.69355 8.97915 -1.53553 0.844201 -0.62766
236 1 2.84476 8.84908 6.64624 -0.0278618 1.17932 0.0495249
237 1 3.26013 2.57863 7.76048 0.33988 -0.548075 -0.725362
238 1 0.171821 8.82195 5.01303 -0.133887 -0.634361 1.33659
239 1 4.13849 5.93245 5.94925 0.129535 -0.393407 -0.423407
240 1 2.92079 6.94717 7.94673 0.0113114 -1.00558 0.32867
241 1 0.313868 7.32113 8.54206 -0.704394 0.659442 -2.3228
242 1 2.25442 4.3276 7.64463 -0.49761 -0.135063 1.51775
243 1 5.2298 3.82434 0.452779 -1.52532 -0.356102 0.99299
244 1 8.01686 6.46184 3.56582 0.485814 0.51102 0.948787
245 1 4.72261 2.67759 6.69904 -0.371345 -0.0682306 0.213066
246 1 7.1504 9.34265 8.5167 -0.231222 0.586426 1.06023
247 1 3.03109 7.65289 9.41464 -0.397829 0.0245936 1.04234
248 1 8.0291 1.2888 1.41455 -1.08631 0.585597 0.184471
249 1 8.32306 3.92487 8.16525 0.711173 -1.15284 -0.606094
250 1 0.746241 5.31255 5.2646 0.00411402 -0.637523 1.26975
251 1 7.61641 6.89576 8.19912 0.0593567 -0.849805 -0.313032
252 1 6.01958 0.173067 3.55129 0.229683 0.652625 1.71076
253 1 7.74705 0.0903355 6.91567 -0.77046 -0.41712 -0.766811
254 1 8.43205 7.15181 7.60409 -0.430753 -1.28067 -0.209587
255 1 2.58469 4.09706 6.80662 0.461999 0.208899 0.0283858
256 1 6.65508 0.949068 8.43625 0.413339 0.380894 1.65055
257 1 4.04767 4.88806 7.44192 1.41506 -0.236284 1.67183
258 1 4.45077 3.16842 8.86571 0.569376 -0.754683 1.20927
259 1 3.14958 4.14562 1.25723 -0.220284 0.891861 -1.18713
260 1 5.44253 2.93879 7.26838 0.628193 -0.732608 0.388971
261 1 3.40455 5.45586 8.22691 0.216661 0.489928 0.487642
262 1 5.288 4.71944 3.05936 0.329104 -1.60248 0.572313
263 1 1.51399 3.38535 5.5505 0.324884 0.373359 0.33671
264 1 4.19285 4.78188 6.29964 1.30444 0.274826 -0.0237316
265 1 9.10039 6.9778 1.95573 -0.325493 0.114943 -0.680759
266 1 1.56074 6.87759 4.27483 0.228772 1.07087 -0.428617
267 1 7.66746 0.49049 0.469385 0.00861756 0.300441 -0.915672
268 1 1.7878 8.49641 8.00712 -0.658939 0.758059 0.728624
269 1 2.06619 1.68854 7.26517 -0.0188902 0.483892 0.726641
270 1 5.83696 7.90846 9.30499 0.185739 1.51274 0.479306
271 1 5.72643 1.85958 6.18438 0.524591 -1.04384 0.348635
272 1 1.03201 4.64288 9.22218 -0.636756 0.129714 -0.352238
273 1 4.28235 7.16236 0.982518 -0.632761 0.657522 0.314354
274 1 3.1046 2.09781 2.30139 -1.25226 0.334914 0.406164
275 1 3.36016 3.60768 8.85713 0.424162 -0.0730332 1.68308
276 1 0.853529 2.08399 1.48479 1.29172 0.256316 -1.12685
277 1 8.75054 1.37238 0.733481 -0.73006 -0.0325074 0.776673
278 1 0.0538381 0.986436 0.23102 -0.393133 0.105425 -0.501491
279 1 7.12796 5.19408 2.22944 0.715477 0.444192 0.697011
280 1 3.63182 6.10055 3.09143 2.20266 1.36709 -0.305226
281 1 4.61946 6.93302 0.101461 0.115603 1.96576 0.310473
282 1 7.88967 7.44391 4.19573 -0.60455 -1.28806 1.43597
283 1 9.39432 2.30861 1.56652 0.611102 0.970668 -0.687429
284 1 7.09537 6.95609 5.93179 -0.420681 0.0137602 -0.305944
285 1 3.28488 3.48586 0.408865 -0.287291 -0.355618 1.07952
286 1 1.01257 2.87161 0.703981 -1.14558 -1.75499 1.14823
287 1 3.84266 4.30928 1.9148 -0.424612 -0.294214 0.394141
288 1 3.33094 0.295918 1.53957 0.479445 -0.494343 -0.184871
289 1 3.89163 0.211057 4.20181 0.938932 -0.705855 0.751767
290 1 8.56179 0.918511 4.00985 0.458153 0.501364 -1.27246
291 1 0.115342 5.91301 7.81851 0.617018 -0.107698 -0.182437
292 1 0.162283 8.68361 7.12921 0.562071 -1.13446 0.381459
293 1 6.35736 1.44658 3.35811 0.540167 -0.507648 0.38689
294 1 0.847694 0.825224 2.97507 1.55082 0.653571 0.486499
295 1 3.11931 2.76625 5.77245 0.189301 1.63554 -0.707695
296 1 8.77978 0.936361 2.07506 -1.01004 0.619 -0.0863484
297 1 2.2379 8.88057 2.51158 -0.762564 0.593652 -0.833883
298 1 1.21691 3.00109 6.44539 -0.586161 0.884428 -0.0200949
299 1 0.0897366 5.24645 8.36834 -0.953376 -1.31198 -0.355789
300 1 7.27526 3.70849 5.88481 0.522503 -0.0186452 1.19841
301 1 5.81265 1.3857 2.47423 -0.196733 0.516273 -0.333767
302 1 6.79067 3.18456 3.39849 -0.00504608 -0.167063 -1.31524
303 1 4.01332 8.36601 3.15097 -0.0596069 -0.0987107 -1.1847
304 1 4.24635 4.27927 3.2618 -1.68524 -0.242439 -0.536975
305 1 8.55174 0.533288 6.27905 -0.345033 2.25219 0.605476
306 1 6.99643 7.83156 5.79301 -1.16023 0.257833 0.234897
307 1 4.81554 1.6491 4.23847 1.18452 -0.526957 -0.786541
308 1 3.64513 9.11283 3.61501 -0.248411 0.475463 1.30611
309 1 4.44754 0.833607 3.8129 -1.33939 -1.60077 -0.358929
310 1 4.36303 5.60706 7.84209 -0.73982 -0.468477 -0.31758
311 1 4.52678 5.6751 6.91988 -0.431104 1.1487 -0.878047
312 1 2.6074 7.06544 3.90085 0.0930303 0.464148 -0.0773059
313 1 2.06012 4.69892 5.89476 -0.0479262 -0.114658 -0.41476
314 1 0.787185 7.9161 7.62275 0.0743257 1.07466 -0.486136
315 1 2.4061 6.66106 5.73209 0.273897 0.532809 1.22636
316 1 0.720355 8.21115 2.67876 0.826765 0.534563 0.0915761
317 1 0.341402 3.07166 4.6988 -0.356528 0.350995 0.015391
318 1 0.775522 0.675915 9.02143 0.610798 0.191952 -0.423407
319 1 8.67564 3.77077 6.58576 0.825057 -1.19307 0.0746757
320 1 3.00784 0.0106562 7.93609 -1.08125 -0.32445 1.35341
321 1 2.86239 0.597516 3.64025 -0.641106 -0.254045 1.83755
322 1 2.89784 4.87927 0.568495 0.524621 0.557714 -0.180351
323 1 4.83586 8.17146 8.12849 -0.640534 -0.437366 -0.539609
324 1 6.94977 5.62566 9.08879 -0.0555139 -0.401587 1.24529
325 1 1.4003 5.10197 2.34869 1.58446 1.14065 0.0334619
326 1 5.22349 0.918026 1.61865 0.228123 -0.994326 -0.0339877
327 1 2.53014 2.18606 9.00153 -0.228599 -0.564519 -0.464919
328 1 3.62391 6.80073 2.27722 0.184705 -1.81563 -1.89754
329 1 9.19724 4.8575 9.18271 -0.267613 -0.665434 -0.536205
330 1 8.11736 4.87259 6.09277 -0.0898564 -0.314752 -0.57696
331 1 7.4102 6.80482 6.84972 0.110157 0.428974 -0.629757
332 1 4.86557 0.542145 7.41125 1.94441 -0.821675 -0.0620671
333 1 8.11915 7.39342 0.464437 0.218229 -0.347175 0.569473
334 1 5.69875 8.25716 5.56121 0.841729 -0.377395 0.420956
335 1 0.276166 2.64452 6.82429 -0.383497 1.12658 0.59288
336 1 0.649985 4.44295 3.89938 -0.79413 -0.141373 1.14106
337 1 0.547944 5.82592 1.47256 0.513321 0.902748 -0.576669
338 1 8.47428 6.64473 2.56388 0.813014 1.57222 -0.00432464
339 1 6.35817 8.49215 6.24015 -0.70807 0.551503 -0.179693
340 1 6.36813 6.80637 4.54097 0.485401 -0.421275 1.59078
341 1 8.69207 1.27495 4.90637 0.622027 -0.809126 -1.60463
342 1 2.98179 1.35964 0.543856 -0.733233 -1.37614 -0.150684
343 1 7.54516 8.88572 6.30601 -0.693384 -0.499226 1.26199
344 1 2.0729 9.03653 0.140782 1.35961 -1.50448 -0.0307135
345 1 1.31522 6.21675 5.88483 -0.716645 -0.253047 0.0854285
346 1 5.6663 4.91988 9.19808 -0.0982557 0.0683383 0.486922
347 1 6.64465 2.1631 2.80115 0.437983 -0.00537843 -1.95998
348 1 7.12288 1.90747 5.9915 1.26588 0.0427323 0.142339
349 1 7.87877 5.58343 0.726611 -1.14104 -0.660497 0.0969391
350 1 5.71086 2.93516 3.58302 0.14389 -0.565901 -0.614666
351 1 7.86096 3.62286 6.90021 0.0482839 -0.347128 0.119952
352 1 8.93153 2.52109 7.8531 -0.162122 1.05915 0.774057
353 1 5.85275 4.73206 6.51298 1.30585 0.194784 -1.09953
354 1 3.9257 4.34962 5.49033 0.0180098 0.141514 -2.0126
355 1 5.47988 8.78446 3.53432 -0.701639 0.595078 -0.408868
356 1 0.652837 6.75409 5.37133 -0.231902 -0.646487 0.418475
357 1 1.62602 2.43356 5.59767 0.561807 0.714909 -0.950999
358 1 3.59721 4.17695 7.50746 -0.629395 -0.952965 0.532069
359 1 1.8774 3.67865 3.85491 -0.409094 -0.255008 -1.02702
360 1 4.48773 6.8108 1.88658 1.26167 -0.115713 -0.357442
361 1 2.74098 3.27626 1.07061 -0.00110601 -0.667959 -0.223576
362 1 2.29251 2.0867 6.33451 -0.0408505 -1.011 0.896926
363 1 6.43212 2.31658 3.7479 0.648823 1.56613 0.278185
364 1 2.90357 1.38571 2.93167 0.177325 0.299046 -0.0339523
365 1 5.38964 7.05093 5.75852 1.00543 -1.14968 -1.36319
366 1 9.1473 3.55528 5.27681 -0.635249 -1.80294 0.721664
367 1 2.34034 1.88277 3.47422 0.102599 0.68859 -0.481922
368 1 4.48513 3.82281 4.08044 0.356636 0.608657 0.340186
369 1 4.35745 0.325806 8.29378 0.334909 0.870637 -1.66328
370 1 3.73691 7.76818 7.79955 -0.94099 -0.280022 0.0116084
371 1 1.89936 4.24841 2.29267 -1.33007 0.938622 -0.444032
372 1 0.455636 2.11406 4.12214 -0.795823 -2.4007 -1.15107
373 1 3.68416 8.71644 1.35228 0.94707 1.13724 0.323611
374 1 1.79046 1.28664 6.56599 0.792506 -0.230215 0.04904
375 1 6.50787 0.747707 0.799322 -0.55511 -0.515441 -0.149319
376 1 0.0380272 2.30859 5.04599 -0.97903 1.06791 0.0438815
377 1 3.63957 9.3222 2.31811 -0.0943532 0.997429 0.791334
378 1 4.60109 1.96046 6.05601 0.0924353 0.130809 -0.115171
379 1 2.05046 4.15639 5.21276 -0.689823 0.194326 0.579562
380 1 5.57879 5.87549 6.51643 -1.74767 -1.14267 -0.099168
381 1 9.18879 6.07202 2.13073 -0.263342 -0.28321 -0.235019
382 1 5.26225 6.84277 1.05231 1.32513 -1.72949 -0.419683
383 1 4.67685 1.58356 2.09157 0.0614917 -0.296028 -0.441787
384 1 3.39398 2.06265 3.3373 0.402652 -0.295719 0.690818
385 1 3.21975 8.69671 7.51805 -0.0428381 -0.00370428 -0.835112
386 1 6.71587 5.34424 3.66083 -0.798341 2.22852 -0.215533
387 1 0.523001 1.87489 5.58709 0.575133 -0.783764 -0.57693
388 1 7.62799 5.92854 5.10347 -0.252409 -0.297935 0.88073
389 1 1.78478 8.23881 0.546896 0.0717073 -0.433991 0.725404
390 1 5.83595 2.10029 9.22563 0.0731291 0.878219 1.69606
391 1 1.99864 3.48412 7.50442 0.508834 0.359013 -0.415861
392 1 4.86846 4.14425 5.03294 -0.934472 -0.604927 -1.46716
393 1 0.967764 8.02443 0.804894 0.760382 -0.334869 -0.697279
394 1 7.36607 5.04028 8.43095 -0.834243 -0.125923 0.503772
395 1 5.5344 1.99215 1.5077 -0.775978 -0.371468 0.795669
396 1 0.0107415 6.70993 0.254151 0.185534 -0.922 0.447914
397 1 4.28551 5.40159 2.30275 0.271803 0.298473 0.204811
398 1 4.03848 5.25048 1.473 -0.588186 -0.788346 -0.0841717
399 1 6.16017 0.351375 4.41431 -0.149685 0.545645 -0.925524
400 1 0.674429 2.79872 5.62951 -1.05778 0.454647 -0.000409868
401 1 1.96922 7.46068 0.237368 -0.139149 0.498413 -0.0476867
402 1 8.65006 6.14527 7.46425 0.192944 -1.0406 0.408548
403 1 3.72014 6.97219 0.309632 0.988988 -1.49694 -0.584363
404 1 6.4058 4.4334 7.17717 -0.234188 0.330775 0.748163
405 1 8.29083 4.92785 8.35316 1.63285 -0.472561 0.703115
406 1 5.01611 4.77721 7.96434 0.801797 0.542621 -0.13865
407 1 8.60625 5.83301 8.32575 0.654228 0.473427 -0.449791
408 1 7.04261 4.52962 1.61596 -0.52448 0.883762 1.21921
409 1 1.46188 3.84238 6.96197 -0.469309 -1.0815 -0.709753
410 1 3.45956 0.601598 6.24733 0.0926544 0.814971 1.00741
411 1 1.03065 1.11682 0.841421 0.457878 -2.23394 0.39036
412 1 2.59439 4.06313 8.88005 -0.444149 -1.20672 -1.70452
413 1 7.25269 2.78729 8.79924 0.74508 0.194707 -0.145765
414 1 2.82663 1.20224 5.92015 -0.146079 -0.269248 0.154251
415 1 1.66402 0.667677 1.27414 0.691141 -0.338535 0.676036
416 1 4.47991 0.770906 2.90217 -0.211005 0.0767553 -0.391061
417 1 5.32773 3.22297 4.60173 -0.448206 0.0940936 -0.44945
418 1 1.14759 1.83229 4.97914 -0.32106 0.0580705 0.233249
419 1 6.94247 0.896196 5.87719 0.242188 0.268094 1.44564
420 1 6.33528 5.78878 2.23684 0.0247407 -0.28674 0.330194
421 1 3.46163 0.8023 4.76771 0.379904 -0.367006 0.480845
422 1 7.75175 6.85939 5.27885 -0.162832 0.0173296 -0.81741
423 1 3.50309 2.68316 0.855528 -0.968878 0.0149331 -0.391189
424 1 7.23867 2.99532 0.560934 1.51405 0.195174 -0.239206
425 1 6.75265 6.58635 1.91219 -0.247901 0.925582 0.0796025
426 1 4.13296 1.35148 5.45231 -0.828409 -1.2544 0.272398
427 1 5.38354 8.47012 0.87454 -0.506444 -0.187067 0.215249
428 1 6.81339 6.13739 6.5985 -0.141331 -0.066854 -1.09163
429 1 4.99486 8.29064 7.11499 -1.00632 0.0268328 0.342715
430 1 5.8075 4.13836 4.02086 0.210005 -0.245257 -0.677195
431 1 6.23056 8.3318 3.46478 0.12905 0.375653 2.04808
432 1 6.0207 0.554235 2.5207 -1.17754 -0.00421245 -0.133424
433 1 3.03857 6.94073 2.94537 -0.0512119 1.46438 1.57045
434 1 6.99621 5.45091 4.49619 -0.385827 2.47368 -0.713865
435 1 1.62433 5.12793 8.73584 -0.800757 0.932119 -0.0341154
436 1 6.28662 1.72391 0.885815 0.191366 -0.774103 -0.0653881
437 1 6.99624 8.22295 3.87702 -0.571893 0.935952 -0.17865
438 1 1.30541 8.76393 5.69881 0.986666 0.281442 -1.31348
439 1 4.0918 2.98932 4.321 0.81977 0.0130203 -0.515868
440 1 4.68053 7.45989 7.49447 -1.13748 -0.289841 -1.43765
441 1 7.1928 0.214436 4.11945 -0.398589 -0.412279 -0.85202
442 1 1.90417 8.81798 8.76599 1.30475 -0.331465 -0.708599
443 1 6.81377 1.87512 0.0997892 -0.947072 -2.48008 -0.269704
444 1 5.31375 0.0740165 1.93841 0.493835 0.894367 -0.709329
445 1 1.82639 4.72564 6.86551 0.129079 -1.82779 0.315786
446 1 6.46445 4.35428 0.756937 -1.14419 0.703035 -1.24543
447 1 5.36169 4.4868 5.66861 0.86175 0.871704 0.281649
448 1 4.00278 4.85161 4.15671 0.968985 -0.488727 0.65813
449 1 4.34534 0.896844 1.60841 0.545813 -0.359023 0.0450062
450 1 0.305449 5.83577 3.1883 0.326513 -2.18828 -0.0694405
451 1 1.79407 2.87057 1.14066 -0.244317 0.402729 -1.1731
452 1 9.03884 8.36316 2.3222 0.787587 0.906393 -1.14824
453 1 5.40125 6.40158 4.43824 -0.164864 0.39883 -0.628433
454 1 5.4662 0.80062 3.82597 -1.30641 -0.588111 0.857848
455 1 8.91224 9.03823 1.42685 0.76028 -0.337085 -1.212
456 1 7.06952 5.71501 5.80859 -1.05157 0.222133 -0.117696
457 1 7.7838 8.30114 5.40669 -0.329641 0.103205 0.27987
458 1 4.11371 0.59379 6.89348 0.905756 1.31045 1.03917
459 1 7.74777 8.18337 0.524792 -1.75359 0.23988 1.83775
460 1 9.33978 9.24151 6.10583 0.108172 -0.911279 -0.492222
461 1 1.80248 1.83193 8.31822 -0.0101969 1.06211 -1.00771
462 1 4.56938 4.33398 0.972904 0.645222 1.16851 -1.15837
463 1 3.39946 5.78338 0.835634 -0.81701 -1.50456 -1.05061
464 1 9.22549 6.15065 1.12394 0.293745 1.18701 -1.12473
465 1 2.7566 6.08138 6.54051 -0.61205 0.268061 -0.515809
466 1 1.07969 3.67087 4.43814 -0.707834 0.712018 0.441232
467 1 5.07781 4.10348 8.82543 -0.0892634 -0.184006 0.398361
468 1 7.64951 0.208813 5.66435 0.40825 -1.42308 -1.2321
469 1 9.30869 0.151271 7.11645 1.07945 -0.545018 0.795366
470 1 6.59437 7.34989 8.43532 0.910027 -0.950425 -0.903627
471 1 4.7669 4.15367 6.80566 -0.492841 -1.82154 -0.141429
472 1 2.08854 5.29076 0.9134 -0.0239563 -0.14674 -0.537177
473 1 8.39094 0.581046 3.1624 0.219106 0.50983 0.625871
474 1 2.91783 1.62433 7.03048 -0.110977 -0.591779 0.39459
475 1 5.59676 7.4219 4.94399 -1.32061 -0.598868 0.190126
476 1 3.2205 7.35373 4.66597 0.487378 -0.083388 1.15237
477 1 1.76749 7.563 3.43306 -0.683336 -0.192375 0.764819
478 1 1.37146 7.41994 5.01283 -0.283121 -1.13772 0.766479
479 1 1.7915 6.46234 0.83996 0.911519 0.745921 -0.860421
480 1 3.25888 4.91063 9.01292 0.921182 0.961828 0.894425
481 1 4.99017 8.17332 4.55637 -0.0794619 -0.515368 0.200467
482 1 3.53145 1.75543 8.03921 -0.653464 -0.529415 -1.4801
483 1 7.59029 5.63437 3.2037 0.505198 0.0766354 0.477492
484 1 3.81656 3.32934 8.01358 -0.148163 1.19381 0.950557
485 1 3.45947 8.27941 8.51251 1.4685 0.129581 -0.692695
486 1 8.1724 1.06847 8.08527 -1.49413 -1.54115 0.0147793
487 1 4.88426 2.00259 8.72833 0.220788 0.895105 0.0511814
488 1 6.32687 2.9699 9.14812 -0.863174 0.594504 -0.64379
489 1 8.45754 2.68647 3.79489 1.30479 0.406036 -0.950272
490 1 6.14889 5.9202 4.37588 0.375707 -1.26371 0.264567
491 1 3.92941 7.36894 2.93982 -0.0577619 -0.295671 0.159237
492 1 8.0525 1.2884 6.44833 0.292906 -1.23309 -0.0464623
493 1 5.89637 7.54399 1.04507 -0.628977 -0.427565 1.74864
494 1 1.56537 0.0746668 6.50509 -0.63278 0.925666 1.81383
495 1 1.51933 6.26837 4.96988 -0.797229 -0.591694 -0.311711
496 1 5.80262 9.1112 0.192619 -0.410683 0.505311 0.932484
497 1 7.82997 3.14676 7.93955 -0.297302 -0.793192 0.174707
498 1 7.44483 6.328 0.0310444 0.538672 -0.50365 -1.32735
499 1 7.83422 5.39773 7.70248 -0.102187 0.107175 -0.889594
500 1 4.7842 8.0971 5.59195 0.513004 0.558114 1.54947
501 1 7.83272 6.17233 6.09883 0.910883 -1.34062 -1.36615
502 1 6.41982 1.38849 6.50417 -0.182838 0.599913 0.152027
503 1 8.51572 1.96961 5.86316 -0.171626 -0.39519 -0.153615
504 1 2.58836 3.20647 9.29908 -0.103534 -0.419346 -0.120506
505 1 3.47492 0.93613 7.40702 -1.05803 0.0413695 -1.37624
506 1 5.58699 2.36861 2.49006 -0.281492 -0.443382 -1.69127
507 1 8.94085 8.10444 7.69382 0.0740868 -0.489917 -0.0465599
508 1 7.00787 3.38392 4.92608 -0.606205 0.104792 1.22575
509 1 3.31921 6.36481 5.80428 -0.168418 0.0726007 -0.360852
510 1 7.88436 5.13661 1.57109 0.651883 -0.350155 0.492362
511 1 2.58235 5.573 8.91574 1.20237 0.286054 0.747775
512 1 7.19082 2.21352 0.966226 -0.164129 1.24785 1.1368
513 1 4.63196 7.64509 2.45922 2.85142 0.160977 0.821496
514 1 8.4213 4.78398 0.396126 0.965108 -0.661328 1.75365
515 1 3.24732 9.3895 0.708151 0.0823032 0.158569 0.926948