ITEM: TIMESTEP
211100000
ITEM: NUMBER OF ATOMS
1000
ITEM: BOX BOUNDS pp pp pp
0.0000000000000000e+00 9.4000000000000004e+00
0.0000000000000000e+00 9.4000000000000004e+00
0.0000000000000000e+00 9.4000000000000004e+00
ITEM: ATOMS id type x y z vx vy vz
1 1 1.47438 6.46984 8.09278 1.51228 -0.443764 -0.0540523
2 1 5.34409 0.784721 9.01025 -0.586501 -1.17109 0.972466
3 1 1.13961 6.06435 8.84 -0.323299 -0.0519368 1.45434
4 1 8.36336 8.00775 3.27915 -0.71701 0.512202 0.795203
5 1 5.24719 5.28937 6.3858 1.09891 -0.711218 0.20975
6 1 5.51787 2.19558 8.98373 -0.225492 -1.20253 -0.905839
7 1 2.37648 5.76342 1.95153 0.34457 0.249476 0.688145
8 1 4.20206 4.42572 8.48617 0.415569 -0.683206 -0.507233
9 1 7.62009 7.17305 5.05 0.098951 -1.50392 -0.232098
10 1 2.4387 2.90845 1.29452 -0.703771 -0.594728 -0.377182
11 1 5.59633 6.05855 5.01582 1.09843 1.0067 0.031635
12 1 3.03566 3.89271 2.38006 -0.297156 -0.756192 0.241817
13 1 5.57718 8.84975 7.34641 -0.482197 -1.50331 0.922045
14 1 1.36333 6.93128 8.87794 0.782017 0.731306 0.995238
15 1 0.334371 9.26851 4.30132 -0.559115 0.0795403 -0.207579
16 1 8.41638 2.38951 3.03512 0.602689 0.311805 0.131285
17 1 3.71798 4.06638 6.14742 1.79525 -0.488855 -1.2127
18 1 8.33293 5.95528 4.08507 -0.959974 0.248233 0.239178
19 1 7.8785 9.24863 7.14267 1.3222 -0.360937 -1.62294
20 1 2.91409 1.52345 6.91232 -0.509945 1.07534 0.600959
21 1 6.94933 4.82974 5.87567 0.245703 -0.409079 -0.116145
22 1 5.06061 1.0494 6.78456 -0.33192 0.270072 0.293881
23 1 6.63087 2.26019 5.32502 -1.79347 0.940025 -1.21264
24 1 7.99587 2.5826 6.94225 -1.4723 -0.608861 -0.446615
25 1 4.23241 8.7712 4.50296 0.648795 -0.568412 0.102893
26 1 1.94692 7.89875 1.94644 0.157158 0.592283 -0.749814
27 1 0.122691 8.914 1.82039 -0.872594 -0.548139 -1.62425
28 1 4.25252 1.85522 6.54173 -0.59874 -0.145151 0.543773
29 1 5.40124 9.01998 6.38982 -1.73843 -0.476315 -0.271181
30 1 1.12773 8.46904 7.09817 1.04454 0.158912 -0.256082
31 1 4.23953 9.11217 2.54093 1.31287 -0.322141 0.0232948
32 1 8.19855 7.65536 8.548 -1.68169 0.313354 -0.843442
33 1 8.6814 4.16524 2.82069 -0.693695 0.576814 -0.129142
34 1 3.44291 4.59028 8.07131 0.840561 0.305232 -1.07889
35 1 8.9452 8.94302 6.39405 -0.383602 -0.216965 0.725286
36 1 5.87542 3.75085 4.51192 0.133262 0.00718446 -0.146731
37 1 8.72919 0.117216 5.55837 0.767745 0.608715 0.170046
38 1 3.54905 7.05934 3.84105 -0.366775 0.584369 -0.389125
39 1 7.1491 9.08729 6.42849 -0.266744 -0.262584 0.485413
40 1 9.01255 8.16561 1.64314 0.232808 0.257463 -1.64124
41 1 6.84675 6.85406 4.72327 -1.77303 -1.04263 -0.165993
42 1 0.331779 7.37854 7.22584 -0.576604 -0.188169 -0.22219
43 1 3.14189 3.71573 7.03842 0.568039 -0.167184 -0.181229
44 1 8.09931 1.70715 4.48729 -0.232839 -1.41273 0.186964
45 1 0.927753 6.02938 6.28295 1.06752 0.926519 -1.22709
46 1 8.18429 0.308779 8.00547 -2.48014 -1.62053 -0.633766
47 1 1.98774 6.20876 5.45338 -1.6562 0.0703894 0.148422
48 1 3.61342 3.59702 1.69308 0.344656 0.0449587 0.0407817
49 1 0.221284 4.03549 7.00755 1.09737 -0.5232 0.542564
50 1 3.77113 7.7092 4.81618 0.0519491 0.521044 -1.39842
51 1 3.91685 7.9251 7.65744 0.451311 -1.58362 0.936345
52 1 0.147189 0.435114 7.60962 -0.354004 0.133526 -0.496036
53 1 8.81758 9.18232 3.24453 -0.298276 1.40913 -0.525352
54 1 1.10771 1.61322 1.81818 -0.0321538 -1.38654 0.913096
55 1 3.94142 1.98653 4.90534 1.29513 -1.46531 -0.224127
56 1 4.21278 0.865908 7.07776 -0.617153 0.250994 -0.178266
57 1 6.42506 8.35563 6.16713 -0.80656 -1.33612 0.399878
58 1 4.88489 1.43072 5.16288 0.699544 0.370135 1.23423
59 1 0.791318 3.18556 8.5558 -1.14748 -0.193742 -0.668357
60 1 0.566588 3.09994 4.76993 -0.914646 -0.486841 -0.243483
61 1 4.67625 3.7692 6.66194 -0.376595 -1.66697 0.196536
62 1 0.948012 7.83794 2.16763 -1.78997 0.295498 -0.83324
63 1 1.53307 6.73394 2.99616 0.585719 1.05155 -0.799052
64 1 0.279619 8.91353 2.87387 0.459383 0.430275 1.32965
65 1 7.8689 0.741185 4.38042 -1.00509 -0.825463 -0.944177
66 1 2.47698 7.26369 3.6206 0.631086 0.478967 0.542418
67 1 2.26033 4.21371 2.62352 -0.352566 -0.026754 -0.612454
68 1 1.11158 4.79051 8.2752 -0.108073 -0.0455059 -0.722262
69 1 2.74521 7.81893 8.60169 1.22416 1.0021 1.05868
70 1 3.14778 2.17365 3.71806 0.749449 0.539925 0.841853
71 1 4.56721 9.17594 1.56491 -1.20774 0.434588 -0.612086
72 1 2.06924 5.12709 2.41599 -0.181735 -0.0662219 0.503355
73 1 2.85135 6.31134 3.59832 0.506079 -1.5878 1.07758
74 1 2.51805 8.16153 4.18053 -0.710752 -0.272632 -0.529969
75 1 7.38933 6.44646 6.70951 -0.184437 0.122908 0.92312
76 1 2.33074 3.08519 5.00738 -0.765626 -0.0966469 1.29252
77 1 0.170727 3.51552 1.28888 0.184611 -0.688601 1.54954
78 1 4.49817 6.37399 7.12757 0.700541 0.737722 0.244618
79 1 0.0762345 7.62645 3.96606 1.41557 1.29534 0.47203
80 1 0.482172 2.16575 5.2152 -0.323602 -0.475241 -0.596373
81 1 7.82481 1.01301 8.24482 -1.84954 0.875368 -1.21788
82 1 0.877875 1.70782 0.999197 1.04521 0.482265 0.583194
83 1 8.01255 0.121193 1.27721 0.446243 0.143134 -0.077658
84 1 6.62693 7.70309 0.861894 0.208951 1.58745 0.170119
85 1 0.791863 0.908825 0.566978 -1.23193 0.184608 -0.692333
86 1 5.50256 5.296 3.37682 -0.196477 -0.129532 0.0847932
87 1 8.23785 8.60385 4.08473 -0.708047 0.155769 0.230222
88 1 4.72485 3.62622 4.10054 0.0707929 0.740402 0.0158434
89 1 7.02508 7.69488 2.50725 -0.995697 0.410879 -0.0673054
90 1 4.40558 5.69344 6.41123 0.838454 0.420465 0.140578
91 1 6.59534 1.85102 6.07671 -0.0294737 -1.76046 -0.39564
92 1 0.193573 4.67229 4.56275 1.27549 0.627124 -0.55845
93 1 7.82036 5.09019 5.87618 -0.371561 -0.400027 1.38614
94 1 7.08378 3.97744 7.39429 0.0238495 1.46057 0.60284
95 1 9.39747 8.37317 0.790344 0.55783 -0.205258 0.523291
96 1 2.79613 3.70063 6.15429 0.735799 -0.918658 0.330731
97 1 6.13957 4.75166 6.38637 0.432371 0.332687 0.143948
98 1 7.76441 7.1818 6.55593 0.0332963 -0.132977 0.19153
99 1 3.05529 7.2128 6.92456 -0.233577 0.650867 0.771601
100 1 2.63941 4.57785 4.16351 0.39083 0.469171 1.31098
101 1 4.59737 1.35569 8.89025 0.100237 0.874052 0.878339
102 1 6.25356 4.84058 2.76774 -0.88106 -0.142998 -0.700991
103 1 3.29315 6.89631 0.0218877 0.596259 -0.289731 0.118577
104 1 8.86737 0.75805 7.1666 0.621276 1.60982 -0.492557
105 1 4.38249 1.10455 1.23828 0.379983 -0.461589 -0.904148
106 1 6.52851 8.45683 2.7501 -0.886485 -0.65691 -2.19098
107 1 4.46535 5.67076 4.21433 0.916159 -0.955344 1.39434
108 1 4.19686 2.09417 1.50519 -0.339769 0.627608 -0.00739359
109 1 0.865 6.4808 3.61475 0.503323 0.191341 -0.331787
110 1 0.398853 7.3915 0.0179992 -0.923296 -0.622405 0.825413
111 1 5.47653 3.69026 1.53461 0.948862 0.182145 0.8996
112 1 5.99965 7.63524 5.43366 0.650411 0.278143 0.823136
113 1 6.51623 7.56397 8.86938 -0.187317 -0.606185 0.370923
114 1 1.0238 6.69479 5.52549 0.450987 0.335685 -0.949338
115 1 1.67605 4.58554 1.60095 -0.239305 0.889242 1.82849
116 1 3.75808 5.00234 5.91136 0.894516 -2.08061 0.358978
117 1 0.637477 2.00121 3.44324 0.163225 0.453122 0.417762
118 1 8.3074 1.77815 8.46438 -0.604776 -1.09935 -1.52784
119 1 8.66901 6.63792 5.75256 0.289827 -0.465582 0.326534
120 1 0.0278269 1.71932 4.26064 -0.181989 0.756591 0.868085
121 1 5.79617 5.81086 5.84452 0.117968 0.182557 0.734941
122 1 5.55992 5.32641 2.46066 0.234059 1.39319 -0.0600692
123 1 0.724917 3.42447 0.445426 0.511429 0.315598 0.461486
124 1 4.59921 9.26457 6.8263 0.85691 1.15983 0.338748
125 1 8.81944 1.49056 2.39295 -0.394122 0.356077 0.363054
126 1 5.83795 7.16551 3.45599 -0.0592406 -0.859617 -0.964216
127 1 5.65552 2.0986 6.69586 0.315058 -0.113551 0.906223
128 1 3.79185 0.15901 7.66806 -0.00916406 0.15418 0.158934
129 1 9.36709 0.448024 2.52681 -1.2905 0.171955 1.17754
130 1 0.718369 8.20203 3.64171 -1.2842 -2.19682 0.0667684
131 1 3.52115 4.23273 3.01896 -0.306143 -0.566426 0.722402
132 1 2.59098 2.62922 8.2919 -0.337454 -0.858505 -0.850653
133 1 8.39809 1.10287 5.18442 -0.935758 0.615383 0.262235
134 1 4.87679 8.23126 9.08605 -1.07239 -0.898566 0.593284
135 1 1.45448 3.34951 4.83694 1.39883 -0.253233 -0.742408
136 1 7.2774 8.78759 7.62195 -0.830011 0.0646606 0.475057
137 1 7.11817 0.412506 1.12043 -0.628623 0.397933 0.993016
138 1 3.91826 4.16441 7.16908 1.16747 0.75499 0.54611
139 1 8.1906 7.7966 0.0971935 1.19092 0.240986 -0.251623
140 1 9.0615 6.95122 0.565363 -0.13701 1.74491 0.289946
141 1 1.03578 9.04637 1.90835 0.80469 -1.02474 0.0965003
142 1 2.37542 8.69882 0.304654 -0.3779 0.741991 -1.01829
143 1 5.13569 6.59533 0.0668336 -0.392831 0.553841 -0.480133
144 1 9.11254 3.68746 0.591315 1.55317 -0.921107 -0.875771
145 1 6.84262 8.85217 8.92734 -1.83001 -0.791098 0.525855
146 1 5.50066 4.41214 5.03382 -0.615581 1.4492 0.798716
147 1 5.4758 6.03874 8.61722 0.63061 -0.882162 0.396699
148 1 8.40369 3.00108 2.33697 -1.44047 0.249988 -2.04288
149 1 7.10423 1.84608 8.73646 0.529023 -0.0665082 0.221158
150 1 5.37758 6.85349 4.68474 0.120244 -0.0852223 -0.675797
151 1 3.76179 7.95678 1.2825 -0.00978907 -1.11969 -0.448147
152 1 8.78496 7.31462 1.46998 -0.972033 0.054256 -0.60681
153 1 5.69815 3.40945 9.28144 0.607419 0.206996 1.02336
154 1 1.08955 2.00045 6.97022 0.152071 0.201716 1.41137
155 1 0.477314 0.402368 1.60686 0.250012 -0.274226 1.0399
156 1 4.52136 6.59835 4.21882 -1.01873 0.436206 -0.39592
157 1 7.8138 7.85368 1.40993 -0.799918 -0.667007 0.267273
158 1 1.56595 5.10419 3.801 -1.25111 0.148179 0.0815129
159 1 1.94925 0.855432 8.09352 -1.71622 1.29698 0.371625
160 1 1.87674 8.13934 0.918522 -0.11381 0.147298 0.465194
161 1 7.95163 0.749186 6.96657 0.447323 -0.798414 -0.743796
162 1 1.23001 2.82513 0.123615 0.655972 0.512647 0.343567
163 1 1.16113 0.306642 4.55273 -0.439735 -0.429142 -1.57402
164 1 8.39759 0.0870441 9.17754 0.334041 0.335012 1.30113
165 1 1.59682 4.65582 5.48088 -0.330185 -0.361273 -1.57212
166 1 9.27554 6.31871 3.8586 0.159972 0.860404 -0.242487
167 1 1.48345 0.393288 3.1433 -0.251182 0.174648 -0.0578056
168 1 1.37544 2.23989 4.98119 0.165834 1.1445 -0.442507
169 1 3.33351 2.41459 6.64332 0.401226 -0.908104 0.001102
170 1 6.34339 8.76067 0.986036 -0.615247 0.320089 -0.852708
171 1 0.530824 5.53675 0.46162 0.770643 -0.272319 -0.488663
172 1 6.1022 8.5639 8.22172 0.00925117 -0.0528455 -0.333703
173 1 4.10502 1.37475 8.02475 1.19054 -1.00872 0.693739
174 1 6.45795 9.29921 4.4729 0.390856 0.0773145 1.07546
175 1 4.84731 0.531646 5.00024 -0.175723 1.07101 -0.59767
176 1 9.23156 1.58233 6.48214 -1.03522 0.914744 -0.317592
177 1 5.62161 0.0299617 4.57473 0.89746 -0.333913 0.0953415
178 1 0.0100349 9.19402 0.14196 0.235343 -0.37014 -0.270471
179 1 4.93369 8.10015 5.39014 0.595211 -0.570807 0.488454
180 1 8.61562 1.71106 0.0169306 -0.920677 0.92539 -0.223503
181 1 9.26033 2.476 3.47437 1.79705 -0.184988 0.199447
182 1 4.47262 5.93765 7.98722 -2.4798 0.730775 0.776086
183 1 6.02996 2.72583 2.32587 -0.10162 0.994049 -0.19111
184 1 7.30511 5.57525 1.4244 -0.114097 0.340274 0.250755
185 1 3.19847 2.73884 4.7289 -0.456845 -0.481601 -0.0813348
186 1 8.43431 0.660799 0.467934 -0.521901 0.431472 0.386104
187 1 8.25977 9.38211 2.11344 0.591327 -0.359758 0.29796
188 1 9.1692 4.99024 7.05721 0.521699 1.65854 0.862875
189 1 0.195653 4.88654 2.78294 0.00413423 0.871653 -0.394755
190 1 0.804869 8.52569 5.37806 -1.1425 -1.07872 -1.64656
191 1 1.98161 3.72092 1.71571 -1.09917 -1.36507 0.0347724
192 1 5.92234 8.14556 3.88706 -0.11298 -0.409449 -0.703485
193 1 1.80985 5.88386 6.47799 -0.17105 -1.23019 0.813803
194 1 0.290685 4.04657 2.94501 -0.513502 -0.666558 -0.177446
195 1 3.83754 0.452118 3.461 0.902302 2.00753 -0.244159
196 1 1.26688 6.69272 1.70566 0.68703 1.85754 -0.109173
197 1 8.02658 7.04463 7.40942 0.315234 1.22778 -0.150174
198 1 7.12466 6.42523 1.06258 0.481021 0.602456 -1.39369
199 1 0.135212 5.93081 1.1273 -0.0838466 -0.422286 0.19544
200 1 1.14127 5.00176 4.65847 -0.326257 -1.3613 0.576298
201 1 3.09435 5.76191 8.54445 1.04176 0.834879 1.32597
202 1 5.0881 1.45325 1.64322 0.940403 -1.29088 -0.33769
203 1 6.83524 5.08295 4.31346 0.153857 -1.34284 -0.759935
204 1 2.78089 1.38133 0.328958 -1.52217 -0.503956 1.01466
205 1 4.40651 5.55845 2.96123 0.99602 -0.817716 -1.0065
206 1 2.45419 2.26939 6.62791 -0.0339548 -1.9405 1.01682
207 1 1.86882 7.60118 3.07062 0.614209 -0.821818 -0.645609
208 1 5.22132 1.67796 5.92463 0.556713 -0.173095 -0.228935
209 1 7.35288 3.1359 7.59042 -0.262652 0.121079 -0.186918
210 1 3.30698 8.33435 9.15404 0.449009 -0.211677 -0.28804
211 1 1.84506 8.03945 8.11899 -0.0262658 0.361492 -0.215974
212 1 9.22818 2.41824 5.77053 0.66926 0.552505 0.465573
213 1 5.14908 4.58772 6.98223 0.351874 0.00403037 0.699231
214 1 4.87099 7.73166 8.2755 -0.0719352 -1.69198 0.236306
215 1 1.31904 7.56449 5.50006 0.442419 0.132433 0.320846
216 1 8.9226 7.20284 3.03517 -0.296854 0.0642092 -0.756861
217 1 0.639076 6.43958 0.101671 -0.596977 1.47552 -0.166294
218 1 4.28523 7.36994 5.66634 0.496099 -1.31512 -0.376392
219 1 5.39186 5.79371 7.71823 -1.02176 -0.424784 0.250231
220 1 9.17448 8.55355 3.8545 -0.543881 -0.159085 -2.05424
221 1 0.0866401 3.37318 9.07702 -0.827896 -1.41402 0.234136
222 1 6.54266 4.40075 3.80965 0.202267 -0.496899 -0.461649
223 1 6.82499 6.45149 7.3359 -1.56338 -1.17216 0.31688
224 1 2.06546 6.56982 4.02223 -0.292186 0.983929 -0.415461
225 1 0.346594 3.28501 3.86454 0.157519 0.282946 0.382098
226 1 7.63224 2.68234 0.605689 0.135486 0.522483 -1.25023
227 1 4.16808 0.428237 0.536641 -0.123789 -0.537014 0.534818
228 1 5.94677 4.91155 4.19656 0.968371 -0.261257 0.251548
229 1 5.7364 5.85359 0.312051 -0.517833 0.152627 -0.0716183
230 1 7.94822 4.48503 0.879548 -0.628872 0.235603 -0.607804
231 1 7.46574 1.32619 0.623789 0.0704189 0.628288 -0.562565
232 1 0.730261 6.88497 0.884214 0.110779 0.480203 0.795004
233 1 9.16096 2.75341 4.34165 0.326936 -0.0830698 -0.214028
234 1 8.0791 6.13959 2.54706 0.00730225 0.700906 -0.891327
235 1 8.5853 7.03899 3.81675 0.703486 0.807315 -0.530017
236 1 6.29307 6.11861 8.17401 0.568086 0.755771 -0.286138
237 1 5.16952 2.35473 2.16246 0.266166 0.366849 0.589894
238 1 0.923184 2.4478 4.22963 -1.00414 -0.48008 -0.336077
239 1 2.13264 8.86113 7.97671 -1.08266 0.108473 -0.55426
240 1 0.121732 6.51887 6.22535 0.379367 1.49727 -0.882635
241 1 1.93021 9.12526 4.13888 0.717124 -0.241314 -1.32617
242 1 7.58917 3.15091 4.31091 0.000734248 0.331683 0.808753
243 1 5.61503 3.02315 3.07328 0.170554 1.35184 0.257581
244 1 7.81405 5.95196 7.57678 1.26809 -0.382828 0.955124
245 1 1.82983 1.61713 6.42829 -0.429183 -1.28826 -0.13765
246 1 6.25184 4.27188 5.70823 -0.592565 0.17142 -1.52207
247 1 6.96133 1.98858 0.173374 -0.601363 -1.96592 0.196395
248 1 0.992286 7.22879 8.04506 -1.3824 0.486421 -1.42921
249 1 8.47981 1.90535 6.00842 -0.863581 0.360332 0.213316
250 1 6.0331 1.40392 9.05565 -0.468136 0.0701204 -0.47562
251 1 9.31992 3.71752 6.24947 -0.48742 -0.100487 -1.67725
252 1 1.82742 1.32391 5.3114 -0.270302 0.0511159 -0.419902
253 1 4.13504 7.95375 6.47316 0.779577 1.52852 1.65474
254 1 7.37018 1.18342 5.05756 -0.411916 1.9024 -0.170833
255 1 6.10103 9.05957 3.53381 0.58304 0.129025 1.00189
256 1 6.31669 5.64505 3.56597 -0.318284 0.449544 0.247803
257 1 2.75399 7.4776 5.62081 0.480502 -0.388986 -0.882673
258 1 3.4798 0.104775 1.00874 0.269284 1.36822 0.799414
259 1 2.05873 8.53564 7.05774 0.183427 0.219857 0.734377
260 1 4.51767 1.01205 3.96115 -1.59742 0.625335 -0.0706232
261 1 7.68652 6.56822 0.203066 1.07055 1.23499 1.08999
262 1 5.81416 4.94814 7.46947 -1.49781 -1.19768 0.305151
263 1 6.76982 1.28671 7.95323 0.23839 -0.648192 0.641656
264 1 1.60469 6.82317 0.694148 -0.810057 0.773827 -0.749418
265 1 3.76786 6.36214 8.55807 0.642712 0.270032 0.797291
266 1 0.125901 5.5898 6.52408 -0.859302 -0.247785 -0.839621
267 1 2.12752 0.913357 7.19374 -0.791659 0.842742 -0.283865
268 1 8.60353 2.60204 0.963164 0.199684 -0.33753 -0.999207
269 1 5.26879 7.09297 5.80513 0.397453 0.650408 0.340235
270 1 2.00377 2.68171 7.40804 -0.942082 -0.510514 0.365603
271 1 2.07779 5.31951 1.06608 0.354868 -1.27676 -0.758176
272 1 5.22185 1.01262 3.45373 0.0117405 -0.787553 -1.0454
273 1 7.6905 4.69368 2.57461 -0.905834 0.992413 -0.422343
274 1 4.615 1.95969 0.818176 0.269939 0.0068756 -0.971071
275 1 3.57832 5.92037 7.4851 0.3732 -1.34592 -0.760895
276 1 5.90844 0.0692034 5.56826 -0.0258777 -0.940749 -0.637108
277 1 8.85388 2.09565 4.91459 0.563333 0.021749 0.138891
278 1 3.08582 4.9972 2.51347 -1.39394 0.196045 -0.66678
279 1 5.53496 2.97204 6.95247 -1.15351 0.62754 -0.346836
280 1 7.42586 0.130366 9.04651 -0.793551 0.308039 0.373675
281 1 2.01023 4.18547 0.735944 -0.617882 0.374889 -0.342683
282 1 9.06061 6.87712 8.16852 0.609511 0.681598 0.116711
283 1 6.35715 5.73766 6.91575 -0.678254 0.811851 0.667051
284 1 5.01874 6.06031 3.43524 -1.18282 -0.825787 -0.53319
285 1 6.96916 2.31702 4.27333 0.294352 -0.183399 0.132662
286 1 3.19257 5.03181 9.14738 0.23141 0.196689 -0.953918
287 1 8.91493 5.86382 2.02199 0.697137 1.39442 0.639826
288 1 3.6105 7.92537 2.25678 -0.850415 -0.701718 -0.289728
289 1 4.51137 8.22213 2.6281 0.156887 -0.413031 -0.395998
290 1 1.24698 0.854592 1.47598 0.875881 -0.688228 -1.78715
291 1 0.970319 3.98436 4.49812 -1.20012 0.711026 0.828227
292 1 7.26233 4.98653 9.27396 -0.0679257 -0.082899 0.79513
293 1 6.67952 3.67545 8.26123 0.238317 -0.0251922 0.533967
294 1 2.64316 7.9857 7.42557 -1.41972 1.17001 -0.578987
295 1 8.87013 9.27536 7.44581 -0.760584 -0.80987 0.243349
296 1 9.30559 3.55325 4.61292 -0.657093 0.158448 -0.588129
297 1 2.3828 5.02865 6.74833 0.00413645 1.55356 0.600056
298 1 4.29231 4.56567 4.57005 -0.140976 0.0680168 0.323887
299 1 6.33562 2.60387 9.01713 0.157432 -1.50715 1.47321
300 1 6.14274 6.38475 3.14111 -0.586373 1.28783 -1.04547
301 1 0.0894484 6.7136 1.54873 -0.337817 -1.58392 0.203233
302 1 2.11831 6.99066 9.35178 0.0827801 0.113014 -0.758849
303 1 4.80761 6.21377 2.55246 -1.00524 -0.466465 -1.19442
304 1 8.85494 0.898382 3.93003 0.640963 -1.08998 0.234683
305 1 3.43647 3.22126 2.86764 0.352061 0.536107 -0.70304
306 1 3.58306 6.43596 0.914739 -0.382555 -0.389043 0.0881713
307 1 1.81873 0.112442 0.150557 -0.90979 0.814943 -0.907101
308 1 4.14011 2.75637 2.08501 0.376424 -0.414032 0.643277
309 1 8.73771 0.625137 3.05232 0.747593 1.09448 -0.260683
310 1 5.12306 8.72851 2.19992 0.531724 0.156573 -0.234412
311 1 5.42598 6.20996 6.60708 -0.00431152 0.259767 0.456753
312 1 8.33205 2.73421 7.77064 -0.845241 0.831393 -1.16986
313 1 7.2095 5.51985 6.67235 -0.376392 0.283399 -0.295601
314 1 0.430809 5.96317 2.06561 -0.354885 1.73666 0.475906
315 1 2.67928 8.41793 3.16781 -0.244764 1.4468 0.893508
316 1 7.25058 1.99697 1.25323 0.476616 0.319154 0.394709
317 1 6.01851 2.4481 0.41854 -0.2905 -0.156188 0.384997
318 1 7.0268 1.2795 3.04772 -0.111184 -0.52503 -0.197919
319 1 1.95927 5.74239 7.35895 0.274892 -0.0428208 0.699436
320 1 6.19259 5.02801 0.29494 1.00826 -0.629192 -0.528492
321 1 9.10251 0.655373 4.85748 -1.15542 -0.319357 -0.28356
322 1 8.78811 7.1499 6.84483 1.19708 -1.04004 0.111591
323 1 7.92779 5.59383 0.707395 -0.67499 0.291345 0.404625
324 1 2.22434 5.37393 5.79769 0.742891 0.435543 0.0168247
325 1 6.06402 1.02879 1.87192 0.398249 0.176506 0.849594
326 1 9.2876 6.37199 7.18371 0.353269 -1.45303 0.585819
327 1 0.515408 9.03583 7.07722 0.246358 -0.218559 0.0986252
328 1 9.18459 4.77776 6.16712 0.523502 -0.285885 -0.779274
329 1 1.20008 3.9249 8.43726 -0.352746 0.602868 -0.841769
330 1 4.9741 7.99036 3.43217 0.372829 -0.227959 -0.999518
331 1 3.47229 4.41353 3.91908 0.992475 0.99511 -0.0309465
332 1 2.92648 5.18633 5.00082 1.16357 0.1928 0.185093
333 1 6.7293 7.92421 7.77729 1.26181 0.292108 -0.537674
334 1 4.985 1.81828 8.10892 -0.0619587 -0.184944 -0.152085
335 1 2.07116 4.0739 6.74471 -0.440791 0.651534 -1.26397
336 1 1.50321 5.94985 4.72489 0.93111 1.08914 -0.612784
337 1 8.16701 8.05474 6.64419 -0.020309 -0.674519 0.133699
338 1 8.4207 3.18145 6.4188 -1.09913 -1.08413 1.12977
339 1 1.73336 4.36751 3.36843 0.0537237 0.14899 -0.120073
340 1 4.30179 4.7989 1.46889 0.178288 0.430126 -0.358236
341 1 5.5845 0.928015 1.01866 -0.113613 -0.351358 -1.26511
342 1 8.53753 6.17216 9.39354 -2.19704 0.946202 -0.202111
343 1 8.12401 6.63465 8.455 -1.04439 -1.56653 -0.396882
344 1 6.03118 6.67059 9.30428 0.677913 0.420207 -0.444938
345 1 8.12795 1.8781 0.903815 -0.550021 -0.327246 0.194012
346 1 4.30913 6.60262 3.15346 0.25669 -0.324059 -0.286644
347 1 1.92976 2.70743 8.88638 -0.894979 -0.384633 -0.822195
348 1 1.03433 7.28256 6.47089 -0.838824 -0.70468 -1.33932
349 1 3.72458 7.37517 8.74923 -0.72542 0.334885 -0.463428
350 1 6.77336 9.19157 5.61132 -0.431592 -0.805829 0.00350343
351 1 4.6919 2.71544 3.16321 -0.474723 -0.159861 0.315472
352 1 6.83648 9.39508 0.309808 -0.730929 0.490069 1.28551
353 1 6.48357 5.69627 0.695229 1.44384 -0.824514 0.333468
354 1 3.5248 1.36453 2.92561 0.666193 0.557213 0.476671
355 1 8.69426 5.84432 4.91406 1.25319 0.0228666 -1.14404
356 1 7.25989 8.38685 5.72724 0.780731 0.719211 0.217328
357 1 1.09145 3.7678 3.52574 0.401816 -0.889871 -0.438893
358 1 5.64124 2.10348 4.1868 0.122614 0.647113 -0.786467
359 1 6.41019 8.30951 0.20906 -1.4182 1.52276 0.825195
360 1 0.353111 2.9323 7.41796 -0.46118 -2.40518 0.108654
361 1 6.04915 5.22431 8.30834 1.20546 1.02639 -0.268189
362 1 9.18112 4.34095 1.24754 0.780729 0.809086 -1.00084
363 1 8.93165 4.41198 7.80835 -0.582777 -0.395725 0.746897
364 1 3.55241 4.53292 5.12119 0.522819 1.1453 2.33171
365 1 5.7706 2.02936 2.94064 -0.460635 1.76793 1.549
366 1 4.9303 9.27667 0.491415 -0.849009 -1.68434 -0.849969
367 1 7.47749 8.68218 0.994118 -1.18284 -0.776806 0.381912
368 1 5.25577 4.35303 2.69059 -0.02664 -1.46634 -0.488288
369 1 4.5976 3.04644 1.38235 -0.269791 -0.6715 1.15416
370 1 1.1407 5.32863 5.74803 0.423632 0.890894 -0.713942
371 1 3.67757 1.62428 8.8536 -0.546475 -0.602818 0.469903
372 1 1.48265 9.0728 4.99263 1.37579 -0.79207 -0.111726
373 1 1.86849 8.72996 1.67909 -1.06404 -0.208846 0.474375
374 1 4.99778 8.60711 8.26933 1.35288 -1.60806 -0.0260832
375 1 7.33634 8.63864 2.31284 1.0607 0.429076 0.00743034
376 1 5.63061 2.76126 6.04124 -0.391064 0.699639 0.345062
377 1 4.49677 8.30104 1.63144 -0.317062 -1.34798 -1.57376
378 1 4.8661 7.37622 7.00401 -1.8545 -0.169764 -0.107606
379 1 1.80187 2.20609 5.79538 -1.29655 0.0784551 -0.967847
380 1 1.87411 2.48846 2.57028 -1.01736 0.234851 -0.565482
381 1 7.22815 6.22916 8.2826 0.730561 0.780519 0.932753
382 1 4.55318 2.8399 4.12911 2.04192 0.064338 0.660318
383 1 5.60116 3.60227 6.17498 -1.49418 -0.946303 -0.865929
384 1 3.91516 1.68023 3.71869 0.101259 -0.178805 -1.0839
385 1 3.30063 3.54134 5.32913 -0.49292 -0.508558 0.542828
386 1 4.64703 5.86224 9.08709 0.243537 -0.163787 0.409476
387 1 2.28505 4.20518 8.21145 0.997722 0.606798 -0.929687
388 1 0.949947 9.15688 3.68487 0.546094 -0.674851 0.366731
389 1 8.89592 0.548222 1.52177 -0.241487 0.899084 -0.0189637
390 1 7.70503 3.87958 8.41928 -0.627263 0.413624 0.144656
391 1 1.35075 5.5652 7.98693 -0.00286769 -0.215644 0.415497
392 1 3.98451 5.16241 7.74601 0.199674 -0.249676 -1.12523
393 1 2.49354 4.04719 5.0475 0.292353 0.445379 0.618822
394 1 4.9754 6.79833 1.67036 1.14208 0.659848 0.0973413
395 1 8.21868 2.31163 1.81958 -1.32249 1.4047 -0.437625
396 1 7.96276 0.874584 9.05864 0.622238 -0.335685 0.421255
397 1 8.74729 1.27617 0.993735 1.40154 0.388625 0.233716
398 1 7.83317 4.12995 3.45355 -0.120782 0.593282 -0.236452
399 1 6.41432 6.72081 6.32853 -0.208034 -0.133741 0.244457
400 1 5.65238 6.62241 0.940646 0.0495277 0.790932 0.54991
401 1 1.26619 4.86975 0.575182 0.739107 1.36362 0.39045
402 1 2.7215 4.34335 7.48481 -0.44368 -0.201386 2.11604
403 1 1.75961 1.78333 4.19526 0.48737 0.00160883 0.46474
404 1 3.59363 0.681243 8.29842 2.13517 0.675341 -0.913558
405 1 8.42202 7.50391 5.47031 1.1645 1.04712 -0.197186
406 1 4.83174 5.50462 1.14473 0.0736833 -1.08618 -0.354756
407 1 6.88775 6.9529 0.175446 -0.675639 1.51644 0.863246
408 1 6.62491 6.86869 2.56145 1.04364 -0.437262 1.44074
409 1 1.56427 7.57618 7.32805 -0.902974 0.354997 0.658486
410 1 3.03393 0.763297 5.05656 0.227753 -0.614127 -1.08714
411 1 4.43961 8.59617 0.595996 0.526516 0.00780113 0.590605
412 1 2.64778 8.55633 2.18073 1.57039 0.498802 0.551704
413 1 4.02354 5.38033 8.62161 1.08528 0.696159 -1.2449
414 1 5.40278 4.41867 5.97526 -0.553904 0.367095 0.35047
415 1 8.58183 8.07444 0.865817 0.226727 0.180714 0.341537
416 1 6.79527 7.84983 4.80273 1.05926 1.08331 0.804312
417 1 3.75075 7.167 1.66891 -0.231193 0.798394 -0.671202
418 1 9.06642 5.42131 3.9761 -0.0998858 -0.368377 0.458332
419 1 4.84347 6.35095 0.890082 0.97465 -0.0275593 0.480372
420 1 7.36891 2.70473 2.55004 -0.570432 -0.77176 0.107836
421 1 9.13453 8.53014 5.61079 -0.0859824 0.114745 -1.19648
422 1 6.35486 0.855352 4.65914 -0.448526 -1.16638 -1.13282
423 1 2.60706 9.31374 1.55007 0.547441 0.34509 0.0941207
424 1 5.72999 2.02898 5.09556 -0.623782 -0.614112 0.353638
425 1 7.04783 7.14228 1.66784 -0.491511 -0.596642 0.293776
426 1 3.62316 6.0724 2.94481 0.25281 -0.560408 -0.240202
427 1 6.26276 1.67429 1.2227 -0.481818 0.143749 1.19164
428 1 7.46796 5.66959 3.92817 -0.662019 -0.76806 0.537884
429 1 5.91585 1.9294 1.97561 -0.30329 0.985367 -0.434597
430 1 7.50315 8.22433 3.10985 -0.0445991 0.689435 -0.687043
431 1 6.76493 6.45252 3.88411 0.881933 0.104982 -0.237201
432 1 7.56255 6.91996 4.15063 -0.194697 -0.330646 0.559306
433 1 7.59751 4.62072 6.81649 -0.825399 -0.694496 0.342579
434 1 6.87984 1.24844 6.73341 -0.277605 -0.530413 -0.644034
435 1 0.617109 9.27162 8.1379 -0.297057 0.0966807 0.268905
436 1 5.13539 7.03167 2.99274 -0.769745 0.00982852 -1.51813
437 1 7.61123 8.70514 0.0783087 0.902591 -0.659126 1.09171
438 1 4.59381 4.49618 7.74716 -0.211683 -0.294739 -0.992596
439 1 2.35244 8.79729 8.78324 -1.2946 -0.531442 -0.0322533
440 1 8.73477 8.55301 2.58259 0.615736 -0.0133041 0.229262
441 1 9.08356 5.54008 0.367847 -0.113686 -0.362587 0.523136
442 1 1.72258 2.38362 0.709008 -0.462144 -1.06248 1.10183
443 1 1.1767 0.0589519 5.74354 -0.202021 -0.343036 0.319574
444 1 7.20622 1.42284 3.97218 0.683376 0.261268 -0.902102
445 1 2.09152 1.91817 9.37085 -0.430599 -0.0938597 0.958238
446 1 4.02865 2.2376 9.28719 -0.0316902 0.275361 -0.72571
447 1 0.061979 1.31691 1.40037 -0.582507 0.20796 0.642228
448 1 8.39345 3.50786 4.86377 -0.950492 -0.827828 -0.580513
449 1 0.851693 2.2052 8.75118 -0.928539 -0.766893 0.947396
450 1 3.52296 7.17297 2.89969 -0.264024 -0.522741 1.28101
451 1 2.74216 3.86394 3.48958 -0.355634 -0.818334 -0.636798
452 1 5.64473 3.20446 8.40774 0.282416 2.36648 0.0725452
453 1 3.93018 0.365772 4.37388 -0.574023 1.04515 0.408158
454 1 8.01099 7.68047 4.17317 -0.408306 0.314803 1.80263
455 1 5.75102 7.12284 7.11785 -0.58327 0.47825 0.586077
456 1 7.97058 5.7005 8.55517 -0.0109421 -0.417042 -1.43836
457 1 7.88383 9.13529 2.89573 -1.58127 -0.130004 0.522552
458 1 4.0047 1.6084 5.71761 -1.22986 -0.21633 -0.378758
459 1 4.31205 7.08906 0.681977 -0.28612 -0.00333824 -1.06598
460 1 6.4621 8.81886 7.15238 0.393593 -0.188643 0.683626
461 1 3.22992 3.08705 3.73974 1.00027 0.134424 -0.35378
462 1 3.49233 8.84118 1.57428 -0.321319 -0.542458 -0.165237
463 1 4.79605 0.143623 4.12481 -0.232126 0.275477 0.261979
464 1 2.07223 1.68921 8.5141 0.307812 -0.11761 -0.0531177
465 1 0.488931 5.88782 4.47444 -0.876918 1.17655 -0.206545
466 1 8.61529 4.15581 8.8904 -1.5874 0.00022226 -0.206379
467 1 2.22384 1.84815 7.41685 0.109549 -0.0620628 0.344312
468 1 2.76825 3.61082 8.7926 1.5873 -0.447969 0.328418
469 1 3.32516 0.755669 9.34659 1.24597 0.0483754 -0.379875
470 1 4.29334 3.41581 9.16342 -0.554927 1.17445 -1.44535
471 1 0.579974 3.15796 3.0218 -0.458217 0.67154 -0.708001
472 1 8.75155 6.22263 0.955352 0.127008 -0.203886 -1.07989
473 1 6.18435 4.1386 7.09485 1.00557 -0.571868 1.28566
474 1 5.8232 7.52986 0.273225 -0.723784 0.993539 0.752137
475 1 2.84524 7.12859 1.85109 -0.813504 -1.03174 0.619137
476 1 3.27711 9.28897 4.778 0.552721 -0.479548 0.173901
477 1 5.69403 3.40879 5.28167 1.63737 0.755369 0.601549
478 1 7.32689 4.04347 9.41872 0.905803 -0.859078 1.32023
479 1 6.87362 5.43983 5.22254 0.267779 -0.548189 1.23091
480 1 4.32188 0.819316 6.18285 -1.25891 0.103187 -0.0468094
481 1 5.88544 4.43153 1.96063 -0.26695 -0.195344 0.694577
482 1 1.18806 1.8906 0.162923 -0.432656 0.255359 0.484031
483 1 0.389459 8.8639 6.10229 -1.30007 0.205949 1.38062
484 1 0.326716 7.67709 1.2142 0.89249 -0.583371 -0.229549
485 1 3.62511 6.1224 3.95739 -0.426476 0.803519 0.391838
486 1 5.73549 4.65815 1.10246 -0.00273908 -0.590429 -0.588959
487 1 6.62505 0.507754 2.30353 1.48116 0.485922 -0.752933
488 1 1.48675 8.63273 0.212169 -1.14768 -0.475872 0.433321
489 1 1.85109 0.983468 2.3407 0.509893 0.444777 0.0512648
490 1 5.31297 0.626101 6.0265 0.920679 -1.10299 0.134705
491 1 7.62889 6.09053 4.77114 1.97936 -0.779287 -1.87624
492 1 5.70436 7.89053 2.79782 -0.78273 -0.988353 -0.292786
493 1 7.89921 8.10421 7.72818 2.20351 -0.0791539 0.279484
494 1 8.53327 4.237 6.60047 0.695406 -0.318953 1.82319
495 1 0.489882 6.23848 8.07191 -0.453147 0.0227085 0.937855
496 1 1.27873 0.973235 3.88367 -0.201529 -0.151926 1.46996
497 1 5.93284 5.20499 5.21076 -0.210746 -0.211263 -0.346636
498 1 0.765178 3.08909 2.02129 -0.313682 0.549253 -1.38335
499 1 1.12492 3.67533 2.58898 -0.184113 1.23681 0.606935
500 1 8.95245 3.27382 3.10819 0.840819 1.06042 0.642498
501 1 2.40962 9.05177 5.02633 0.24075 0.850742 -0.9922
502 1 0.343728 9.27931 5.20667 -0.348523 1.28024 -0.854529
503 1 6.28973 5.85042 4.53623 0.512231 0.342599 0.0968125
504 1 2.32997 8.95611 6.18631 -0.16628 0.267396 -1.20838
505 1 2.77018 1.44221 4.52995 0.776706 -0.668633 -0.238394
506 1 1.41118 5.73069 0.393712 0.37696 0.824178 -0.289931
507 1 0.804026 5.89846 7.28037 1.45245 -0.81311 0.785728
508 1 1.85423 1.88183 1.49236 0.198713 -1.10074 -0.2909
509 1 1.1923 4.10814 0.0215683 -0.506031 -0.631307 -0.0514791
510 1 2.21269 7.10645 7.78112 -0.0609538 0.47463 -0.642319
511 1 6.58189 4.564 7.82662 1.23248 -0.638064 0.343417
512 1 3.41597 7.00869 6.11621 -0.698466 -1.01736 -0.20787
513 1 1.54405 4.89017 6.46641 -0.13724 0.162454 -0.465088
514 1 7.00038 6.06602 3.03935 -0.521894 1.52686 0.209811
515 1 2.07568 7.06021 4.88165 -0.251396 0.506461 1.32125
516 1 4.93916 3.40234 0.581609 0.320859 0.0256561 -0.418605