ITEM: TIMESTEP
265950000
ITEM: NUMBER OF ATOMS
1000
ITEM: BOX BOUNDS pp pp pp
0.0000000000000000e+00 9.4000000000000004e+00
0.0000000000000000e+00 9.4000000000000004e+00
0.0000000000000000e+00 9.4000000000000004e+00
ITEM: ATOMS id type x y z vx vy vz
1 1 1.631 2.76863 6.83311 1.59476 0.866918 0.330487
2 1 3.97875 5.91379 7.021 0.682574 -1.05741 0.101143
3 1 1.44524 2.06571 3.65586 2.78061 -0.325141 0.399626
4 1 5.60016 0.507292 3.82829 -0.0304911 -2.36171 0.595893
5 1 6.37859 1.22583 0.102566 -0.624656 0.342049 1.18246
6 1 8.23339 6.74185 3.84492 -0.325058 -0.613531 0.408533
7 1 1.4364 0.879636 5.42644 -0.889166 1.89516 1.21639
8 1 0.0894015 8.62543 3.51306 -0.363606 -0.236131 0.457777
9 1 7.74403 8.28359 0.438404 -1.35124 -0.688741 -0.0303175
10 1 9.16712 7.82863 0.742972 -0.40791 -0.386079 0.128907
11 1 0.377723 8.28478 7.73382 1.74849 -0.123867 0.350454
12 1 1.17966 6.91017 5.16253 0.938281 0.0579469 0.078418
13 1 6.04728 4.00164 2.70392 -0.986325 -0.40325 0.798587
14 1 6.59174 3.36904 7.92975 -0.556893 -0.127484 0.940139
15 1 2.68703 6.73679 4.17126 0.175603 1.06099 -0.183169
16 1 3.23054 3.56083 3.533 -0.578093 0.666896 1.50901
17 1 6.16925 2.83 7.07304 -0.817718 -1.53108 -1.5593
18 1 6.61249 5.93705 9.16892 -1.7671 0.972676 -2.01839
19 1 7.37395 7.90375 2.38561 -0.467525 -1.06733 1.92992
20 1 8.3952 4.59477 1.07539 -0.0315624 -0.957353 0.530339
21 1 3.80457 3.72923 7.76896 -0.812648 -0.984321 -0.138634
22 1 0.94249 9.12966 1.08882 0.0780092 -0.558529 0.591805
23 1 6.83057 0.968945 6.90443 -0.84466 -1.50131 1.18331
24 1 4.51729 7.23294 0.447872 0.696644 0.617052 1.80161
25 1 6.97023 5.43975 4.66849 0.101663 1.50109 -1.37538
26 1 7.96527 7.8526 6.03539 0.167566 0.411028 -0.74078
27 1 1.96957 9.01479 1.48505 0.542304 -0.993202 0.570505
28 1 1.99881 2.96223 4.50069 -0.231889 0.322273 0.728753
29 1 5.44219 1.11013 0.413025 0.197672 0.322742 -0.397055
30 1 1.24695 5.18125 1.72844 -0.356361 -1.31018 -0.67216
31 1 5.62032 2.85939 8.9524 -1.14528 -0.775542 -0.960559
32 1 8.65379 5.67771 8.91589 0.618458 0.243647 -0.362728
33 1 7.76459 8.29098 7.65121 0.119569 0.348019 0.141735
34 1 1.74851 8.14815 4.99741 -1.38207 1.2096 0.256322
35 1 5.97356 8.43676 5.61107 1.35291 -1.25351 0.464151
36 1 8.04596 5.8458 7.12819 0.0253453 0.420888 -0.674823
37 1 0.865109 9.2926 7.93121 -1.28677 -0.435976 0.0608286
38 1 6.19584 8.41613 8.2109 -0.161214 -0.721687 0.595621
39 1 -0.0106262 1.31701 1.57147 -0.645621 0.504331 -1.44276
40 1 3.05744 4.39488 5.49025 -0.0533383 0.37899 -0.294611
41 1 6.07786 5.65736 1.21108 0.377753 -0.27885 0.0820465
42 1 2.09498 4.15881 0.934903 -0.616397 0.871179 -1.30222
43 1 1.05402 0.631591 4.67075 0.0468876 -0.306602 -0.612965
44 1 5.6266 2.05877 6.93286 -0.666589 0.248481 0.672557
45 1 3.0596 0.386223 4.78848 -1.63005 -0.471039 0.205139
46 1 7.81013 4.86747 7.01553 -0.0337922 0.0492365 0.281031
47 1 1.72033 3.63705 0.25086 -1.4745 0.605624 0.427099
48 1 9.0017 3.73305 4.32373 1.52088 -0.143198 0.342692
49 1 3.3231 8.34491 6.98541 0.890408 0.180841 0.132817
50 1 7.27194 7.71739 5.23686 -1.18971 -0.540226 0.568824
51 1 2.24319 3.97818 3.66019 0.289381 0.36998 -0.291663
52 1 4.85196 0.721772 8.72518 0.270088 1.28235 -0.175154
53 1 5.99065 2.72353 5.30328 -0.138304 0.439993 -0.35253
54 1 8.94318 7.60592 4.13603 1.92303 -1.48704 1.32757
55 1 9.16557 4.46399 3.6217 -1.01595 -1.33337 -0.172021
56 1 9.14178 7.43524 6.51944 0.320862 0.883525 -0.613182
57 1 3.31738 3.46379 6.17429 0.175216 0.704102 -0.0900091
58 1 0.299768 5.19939 4.03018 0.810734 -1.42623 0.0553759
59 1 2.61471 6.17828 5.84069 -0.481209 -0.0792759 0.401754
60 1 4.56075 8.20667 8.89691 -0.630875 -0.227056 -0.323969
61 1 7.2625 0.987185 4.3332 0.37147 -0.129498 0.527532
62 1 1.30407 4.92728 2.76061 0.104667 -0.510687 -0.879519
63 1 4.68524 0.7725 2.2378 0.265005 -0.185842 0.525885
64 1 7.47043 5.50229 5.44043 0.931923 -0.202843 0.102656
65 1 0.203645 3.74987 8.95706 -0.650802 -0.161254 -0.451085
66 1 2.958 0.529886 7.59104 -0.117404 1.32608 -1.15413
67 1 1.8431 5.39749 5.1665 -0.582193 -0.352112 0.903846
68 1 0.211777 0.0947079 0.632664 1.2882 0.140242 0.0504992
69 1 9.15739 2.815 6.83611 -0.420156 1.10522 0.512212
70 1 3.71876 1.94423 0.0537662 -0.903786 -0.794798 0.175003
71 1 9.31678 7.25241 9.23369 -0.947964 -1.35518 0.0891108
72 1 0.671033 3.18378 5.79526 0.0541984 0.0394452 -0.578859
73 1 9.31587 6.40145 8.80249 0.539927 0.516444 -0.701328
74 1 3.11505 4.10627 8.52964 0.444422 0.0251156 -0.00578571
75 1 6.4326 7.66587 1.53365 -0.15494 -0.57548 2.04043
76 1 7.12043 2.06594 2.81281 -0.320737 1.02758 0.0476429
77 1 1.11397 5.00487 5.57079 -1.05516 -0.954902 0.629953
78 1 1.61339 6.30849 9.00619 1.14089 -0.432476 0.577143
79 1 8.60391 4.03452 8.92052 -0.515215 -0.320119 -1.09555
80 1 7.78713 4.20217 2.37889 0.306803 0.85466 -0.184872
81 1 6.29013 7.64855 5.04239 -1.16856 0.793209 -0.184933
82 1 1.28569 4.78385 4.61431 -0.424411 -0.692387 0.45974
83 1 1.84828 7.12717 7.15333 -0.174959 -1.6972 -0.173019
84 1 4.47073 8.08017 1.08196 -0.483952 -1.78551 -0.864547
85 1 6.91712 4.38474 5.08403 -0.669111 0.664901 -1.57529
86 1 7.13526 3.68257 1.97453 1.39027 0.12956 0.532883
87 1 8.2327 8.37982 2.14626 -0.854856 0.842019 0.0678534
88 1 2.32643 1.12824 8.0041 0.710173 -0.591617 -0.283846
89 1 8.45509 5.33123 7.77094 -0.138826 -0.0967044 -0.300949
90 1 5.13256 8.29529 1.88223 0.634964 -0.557922 0.004836
91 1 5.58356 0.066007 0.350228 -0.798081 0.161335 -0.624089
92 1 4.81844 0.443571 0.198921 0.158848 0.931945 0.320421
93 1 4.76484 2.63618 1.62681 0.741396 0.444598 -0.330315
94 1 3.7766 1.08455 1.72327 -0.722508 -1.15588 1.27419
95 1 6.25307 2.47622 2.47497 1.969 -1.40254 -1.23799
96 1 -0.0212295 5.31686 1.50553 -0.595529 -0.477271 0.176068
97 1 8.40324 4.24666 6.36985 0.268944 -0.720947 -1.22006
98 1 1.64565 5.08412 8.37485 -0.965673 -1.10358 -1.38445
99 1 0.408166 8.06821 9.23238 -0.814128 -0.669602 -0.101029
100 1 5.09458 6.58213 0.694476 -0.79359 -0.350408 -1.43082
101 1 8.42095 8.96062 7.43407 -0.0639152 -0.136921 0.799004
102 1 8.93352 2.61822 8.94827 -0.235623 0.231554 -0.135928
103 1 2.15546 0.867527 7.09917 0.476775 -0.856541 0.532328
104 1 3.09362 7.49039 7.19639 2.17119 0.900661 0.214575
105 1 9.18211 0.524087 4.0593 0.648997 0.260227 0.12307
106 1 0.224649 8.32926 6.10806 0.0487625 0.194006 1.58717
107 1 0.2308 3.26783 1.17777 -0.62668 0.526872 0.659895
108 1 3.41466 8.57259 5.06598 -0.648672 0.880522 0.85012
109 1 5.60622 6.45631 4.413 0.783883 -0.00312314 0.257334
110 1 8.87655 0.615768 2.94321 -0.530523 0.428933 0.00972813
111 1 9.39837 2.8637 3.95546 0.705036 0.354877 -0.598646
112 1 1.8347 0.0685513 2.46511 -1.21504 -0.793341 -1.36936
113 1 0.679456 2.88844 3.31146 -1.37557 -0.250073 -1.16394
114 1 7.99683 1.70728 0.568622 0.805221 0.570616 -0.614389
115 1 6.09354 3.22883 5.99179 -0.145296 -0.57188 -0.712562
116 1 5.11792 3.19195 2.44909 -1.39072 -0.25476 0.0537217
117 1 8.16667 0.494211 3.57319 0.746093 0.829832 0.934022
118 1 0.915611 5.53854 0.645794 -1.09372 1.18268 -0.482953
119 1 3.23785 5.48048 1.45103 -0.745663 -0.216359 0.197792
120 1 0.878991 7.37771 0.326641 0.658011 -0.987234 0.359101
121 1 1.65691 3.57358 3.13648 0.247966 1.85051 0.737293
122 1 5.28277 5.15963 6.99448 0.972381 -1.47133 -0.314797
123 1 8.38999 6.97473 0.626639 0.112788 0.148297 0.199958
124 1 3.34473 7.93718 2.47678 0.557709 0.675825 0.297799
125 1 7.42299 0.627311 0.983714 0.250472 -0.831892 -0.564435
126 1 4.76136 0.143448 5.03207 0.42268 -0.144669 -1.0559
127 1 1.79307 5.80832 2.73666 -0.977437 0.539282 -0.159505
128 1 2.56556 2.89188 6.20693 -0.210446 -0.490928 0.259154
129 1 1.82081 2.6274 3.02415 0.397704 -0.288755 0.551166
130 1 7.3325 6.66917 3.71009 -0.790817 0.0120203 -1.22717
131 1 6.01447 4.13206 3.77376 2.07143 0.0303726 0.53135
132 1 9.13728 2.90468 4.92464 -0.547024 0.44334 0.784091
133 1 1.75007 5.15469 0.777818 -0.360948 0.0416241 -1.13115
134 1 7.11527 2.62796 2.11407 0.919752 0.0897913 0.317807
135 1 4.73803 6.55539 3.20779 0.557558 0.158432 -0.0842312
136 1 6.89314 5.97344 7.54565 0.1622 -0.542607 -1.00504
137 1 1.86926 9.20912 7.1957 0.339056 2.10328 0.0865206
138 1 6.66742 1.29511 1.02117 0.336128 0.284971 -0.448573
139 1 6.10671 0.239954 2.02551 0.638018 -0.594806 0.435379
140 1 6.60427 7.28621 8.50657 -0.857986 -0.740061 0.535711
141 1 7.8658 8.75406 6.66043 -0.803631 1.43376 1.50797
142 1 0.921547 1.55673 4.60255 0.135641 0.104546 -1.13821
143 1 1.01011 8.22768 0.805181 -0.420161 -0.263879 -0.725325
144 1 4.66968 8.41802 5.4932 -0.073807 -0.171446 0.411721
145 1 7.0777 8.7858 7.82015 0.0628938 -0.135246 -1.54237
146 1 7.20217 8.71215 9.20129 0.845075 0.527888 1.07878
147 1 5.03867 6.59287 8.2123 0.786568 0.527933 1.20208
148 1 2.45321 1.53966 0.779382 -0.317265 0.695491 1.69035
149 1 0.0295396 3.62959 3.25957 0.168119 -0.920402 -0.468458
150 1 4.7815 4.16761 8.23786 -0.0548746 -0.104059 0.893866
151 1 1.81794 7.11866 3.95073 -0.885912 -0.445688 0.602094
152 1 4.20438 1.90025 3.10157 0.581243 0.814164 0.671066
153 1 3.40784 9.15705 8.46294 0.59397 -0.832914 -0.370538
154 1 2.75701 3.70555 7.64453 0.128973 0.643482 1.24898
155 1 2.76837 8.56989 0.955806 0.990816 2.07473 -0.577996
156 1 6.79245 7.31667 3.504 -0.598723 0.690175 0.165516
157 1 2.80953 1.81345 8.24894 0.570951 -0.0256584 -1.92172
158 1 0.561481 1.79172 7.95924 1.44842 0.260259 0.188892
159 1 2.57715 3.45255 1.49812 0.91782 0.000996266 0.723481
160 1 3.61386 2.99557 4.64611 -0.378816 -0.294664 -0.174518
161 1 3.75272 1.30354 0.804018 -0.794584 -0.587893 0.240216
162 1 3.15949 5.40375 8.22219 -0.276853 -0.823804 -0.277769
163 1 7.14637 0.858564 2.52357 -0.00873895 -0.0808683 0.209745
164 1 3.5484 3.75209 1.60235 0.0483338 -0.55712 0.623804
165 1 1.624 6.31091 1.41753 1.75031 0.0467602 0.250982
166 1 7.7071 1.20017 5.10338 -0.340958 0.466524 -1.23261
167 1 3.5213 9.17584 1.2541 -0.734536 -1.39967 -0.0111115
168 1 2.04863 0.542877 6.25255 1.11323 0.350114 0.0995629
169 1 8.39322 2.575 0.816717 -0.96252 -0.870921 -0.196853
170 1 0.794101 0.258067 3.87065 -2.01237 -1.7037 -1.37368
171 1 6.45795 9.26724 0.0364948 0.370196 -0.965158 -0.930847
172 1 2.145 2.02043 6.59032 0.344502 1.44475 -0.865174
173 1 3.31245 5.22954 4.06951 0.339261 1.18682 1.25751
174 1 4.21787 4.79044 0.149102 -0.892891 -0.690538 0.600874
175 1 1.10583 6.34635 3.38544 0.244438 -0.595476 -1.24469
176 1 3.00575 8.70201 6.25911 0.0764775 1.44396 0.151963
177 1 8.48302 0.0587242 6.0386 0.7302 1.07728 -1.00762
178 1 6.22189 4.78851 5.3758 -0.0890669 0.374314 0.291708
179 1 6.46478 6.06224 5.16578 0.559007 0.367486 0.887522
180 1 4.01475 2.47139 8.64204 -0.759959 1.83816 0.960003
181 1 1.98353 4.05038 7.48704 -0.40182 1.32494 -1.05422
182 1 0.278091 7.64044 1.59613 -1.72551 0.829645 0.979209
183 1 8.90767 8.41249 4.57275 0.66215 0.146876 -0.607744
184 1 7.45448 2.45882 1.21132 -0.937797 -0.107155 -0.635217
185 1 0.421253 2.37764 6.17927 -1.65098 -0.0153327 -0.517404
186 1 8.21263 6.62787 2.2281 -0.662952 0.286384 -0.812608
187 1 8.6281 7.61831 2.27305 -0.887524 1.00126 -0.627376
188 1 4.99907 2.37646 8.48402 0.495489 -0.38987 -0.495838
189 1 4.39638 5.22486 7.53568 -0.284896 -0.062275 0.693293
190 1 7.50189 3.90308 8.38587 -0.459786 0.321192 -1.10108
191 1 6.63742 6.65806 7.12667 -0.187535 0.354488 0.414744
192 1 6.2199 6.58217 2.9229 -0.551495 0.961004 0.7026
193 1 7.3896 4.42765 4.20684 -0.602765 -0.620354 0.285282
194 1 8.6947 8.2888 5.90996 -1.20285 1.28119 -0.653129
195 1 0.772425 7.00237 2.88529 0.237092 1.05885 -0.115806
196 1 4.42532 8.0267 7.91082 -0.300651 0.954878 1.0566
197 1 3.48035 7.1517 4.07429 0.804679 0.0740814 1.03156
198 1 4.89334 6.78273 5.07054 1.18956 0.235833 0.213128
199 1 9.07518 7.19186 7.38152 -0.103041 -0.342063 0.570263
200 1 0.213652 3.386 7.87142 -0.252915 0.0576136 0.340647
201 1 8.38408 7.67774 0.043585 -0.332142 0.389968 -0.146571
202 1 8.82933 8.94065 1.59054 0.137741 -0.715797 -0.730912
203 1 5.87527 6.4397 7.5743 1.04438 0.312995 0.66349
204 1 9.11759 5.51552 3.19581 -0.405934 0.70183 0.776248
205 1 2.84598 2.31465 0.557105 0.448729 1.03773 1.1024
206 1 5.05869 9.02704 4.27409 -0.428343 0.988921 0.690028
207 1 0.234712 3.08714 0.142912 1.10836 -0.842804 0.0665543
208 1 8.00824 2.89597 4.986 -0.723752 0.718335 0.993877
209 1 5.14083 0.34359 7.12363 -0.869915 0.0385653 0.0890367
210 1 2.74465 3.15463 9.25267 -0.130368 -0.173582 -0.198494
211 1 3.43506 6.02378 2.29 1.07793 0.976043 0.205302
212 1 5.18719 5.86202 7.52527 1.3743 1.23755 0.564048
213 1 9.23142 0.68318 6.19658 -1.52148 -0.470361 -0.233356
214 1 0.127495 2.22049 1.77921 0.17108 -0.738354 -0.717685
215 1 8.57715 5.74232 0.784449 1.43493 -0.405376 -0.308105
216 1 0.799666 1.21961 3.67984 0.549223 1.62753 -0.117636
217 1 4.18431 6.23171 0.415616 0.260397 -0.65907 1.25423
218 1 4.62394 0.0362293 1.52185 -0.116872 0.53634 -0.692455
219 1 1.43869 8.15912 4.1233 -0.515636 1.44764 0.112885
220 1 4.08119 6.98613 8.29962 -0.120943 -1.42525 -0.649401
221 1 4.51393 4.41767 4.47034 -1.24405 1.03695 -0.697123
222 1 5.39572 3.13775 3.36889 -0.164445 -0.126271 0.463115
223 1 0.317764 8.63296 8.50628 -1.53111 0.206381 0.165522
224 1 8.90294 1.53652 2.46193 0.92878 1.5512 -2.04328
225 1 2.77829 4.73534 1.44329 -0.291097 0.452565 -0.5633
226 1 1.36862 4.2771 8.98627 -1.16409 0.453209 -1.19223
227 1 6.4278 3.23239 3.06568 -0.346119 0.192631 1.07801
228 1 8.83422 3.83172 7.19727 -1.21477 1.03288 0.879015
229 1 1.52714 7.90084 2.25318 -0.00205574 -0.657716 0.554195
230 1 2.29687 4.77774 6.82847 0.183738 -0.944591 -0.891163
231 1 4.34147 7.49734 3.02934 -0.412425 1.19732 0.636051
232 1 5.90874 8.49587 1.50782 0.0033263 -0.426682 0.422957
233 1 3.71973 3.77353 2.56935 0.397609 -0.979686 -0.765769
234 1 1.13071 1.98973 0.286632 0.207171 0.1445 1.33806
235 1 7.75702 6.98316 5.99596 0.73006 -0.767115 -0.185567
236 1 4.07787 3.38658 3.37076 0.516091 0.368675 0.867503
237 1 6.76754 5.46794 8.35025 -0.673983 0.906705 -0.683098
238 1 4.3902 3.45839 4.60501 -0.97335 0.746395 0.0598545
239 1 9.13478 6.43632 0.356878 0.0245324 -0.721396 -0.490072
240 1 7.04531 6.10135 2.98978 0.502322 -0.641371 -0.228157
241 1 5.94704 4.94401 8.81023 0.471111 -0.0778724 -0.0517608
242 1 4.29658 1.45038 6.96465 0.441265 -0.174996 0.700756
243 1 2.39248 0.756121 8.89275 -0.60483 0.108847 -0.452473
244 1 2.60417 1.282 6.1956 -0.0511963 -0.912702 1.9063
245 1 4.43143 9.39646 3.65895 0.325219 0.298462 -0.557641
246 1 8.39215 7.78314 5.11678 1.2192 -1.18222 0.589725
247 1 0.626541 7.29922 7.76068 0.146092 0.68195 0.490733
248 1 2.70243 6.7832 6.72276 0.217499 -0.132105 -0.839679
249 1 7.42772 4.51342 0.560517 -0.891851 0.634981 -1.23188
250 1 0.127899 9.29569 4.70133 1.02696 -1.8094 -1.00155
251 1 4.46863 4.05625 2.10055 1.7141 -0.523938 -0.40964
252 1 5.19415 9.21876 3.2857 0.607288 0.267639 0.0919198
253 1 6.45428 2.12947 1.39385 0.0269382 -0.106389 -0.205791
254 1 4.18995 8.76287 2.05393 0.521914 -0.38869 -0.212836
255 1 9.27794 2.64743 2.55915 -1.06572 0.591342 -0.643159
256 1 7.65757 4.50403 9.05119 -0.574323 0.32554 -1.06695
257 1 6.77647 4.34421 8.54996 0.0468425 -0.620552 0.980543
258 1 5.16485 7.88313 0.369473 -0.982658 1.50735 0.460115
259 1 3.0908 6.27978 4.93693 -0.599897 -1.60856 0.447705
260 1 2.88147 1.02356 2.83022 -0.47973 0.348931 -0.560463
261 1 3.74679 8.29624 0.347642 0.0911341 0.214633 -0.620168
262 1 3.72503 2.97244 0.0811823 -1.36381 -0.53131 0.713171
263 1 5.87765 7.41237 6.03759 0.465958 -0.0331925 -0.334601
264 1 5.04373 5.57809 0.778296 0.129554 -0.0559685 0.022404
265 1 1.96251 3.30675 8.69801 0.609521 -1.36177 0.575254
266 1 5.71887 6.99678 8.40407 -0.394707 0.786754 -0.217809
267 1 5.4964 0.885397 2.67318 0.112825 -0.0461042 0.322867
268 1 8.90574 9.00327 8.29183 -0.551878 1.44975 -0.741435
269 1 8.02344 8.59992 3.03766 1.12422 -1.14475 -1.72561
270 1 9.39269 7.65691 8.39996 1.33176 0.486805 -1.47641
271 1 8.81369 3.43485 6.41452 1.42761 0.472836 1.21823
272 1 5.64029 6.8678 6.74448 -1.57938 0.17655 0.490261
273 1 4.31872 6.18928 2.38656 -0.0147387 0.57967 1.1414
274 1 9.30271 9.28073 6.71363 -1.22867 -0.193051 -0.184188
275 1 5.83038 4.25902 6.03026 0.916758 -0.608832 1.41739
276 1 0.972345 4.62107 1.04412 -0.261647 0.629976 -0.167456
277 1 2.65306 7.98658 8.64855 -0.183306 2.27922 -0.103907
278 1 8.89713 5.04692 6.17715 0.7037 1.09425 0.721418
279 1 8.02562 3.14923 6.01895 0.938093 -1.66318 0.0870483
280 1 4.56506 0.357507 6.42094 0.368313 0.319765 -0.709198
281 1 4.18111 0.765181 4.42808 -0.275909 -0.432239 0.556648
282 1 4.2991 3.40447 6.07962 -0.541639 -0.459144 -0.508629
283 1 8.21396 2.91286 7.75434 -1.11099 1.23592 0.443798
284 1 7.0484 1.4505 7.5819 0.751483 -0.271604 1.20926
285 1 9.36486 6.3822 7.78048 -0.495036 0.34371 0.630013
286 1 1.7304 2.64314 9.28091 -0.754352 -1.05662 -1.15218
287 1 3.65686 0.310273 9.11032 -0.167625 -0.444075 1.14313
288 1 7.22249 0.252232 9.21389 0.883116 0.367886 -0.227659
289 1 3.68975 1.16041 6.12516 0.744757 -0.198981 0.113611
290 1 6.04996 0.488258 1.12974 0.075825 0.700891 0.0659822
291 1 3.03656 6.83482 2.79488 0.303368 0.600298 0.492596
292 1 6.32759 7.85236 9.43776 0.46524 0.188671 1.20225
293 1 2.4514 1.9781 3.06147 0.411747 1.25267 1.17688
294 1 5.14593 1.57998 3.11186 0.0520787 0.892468 -1.47227
295 1 8.06535 1.24933 7.8154 0.700803 0.239174 -1.0596
296 1 1.93168 0.702362 3.08423 -1.34093 -0.855571 -1.25264
297 1 8.9434 4.92725 4.49748 0.779607 0.915783 -0.0332834
298 1 5.91164 3.77115 7.51822 0.219587 1.1874 0.158243
299 1 7.72359 7.43979 0.944853 0.440874 0.972312 1.0223
300 1 7.31732 4.58452 1.41727 -0.487229 -0.421657 0.743704
301 1 0.201207 7.1042 0.822088 1.59453 -0.198889 0.439992
302 1 7.89808 6.1895 0.533397 0.388843 -0.25912 0.709674
303 1 2.97753 2.43284 8.93012 -0.915898 -1.33527 0.224873
304 1 4.65102 5.53817 3.05765 0.768606 -0.84544 2.43644
305 1 5.65805 8.62596 0.667443 0.117465 -0.229182 0.236464
306 1 6.05674 5.91644 2.20936 0.437913 -0.309555 -1.17964
307 1 7.88097 0.518234 1.72346 -0.289625 -1.48677 -0.635944
308 1 1.63497 6.77038 2.45028 1.01912 -1.49234 0.392021
309 1 3.68101 6.88952 9.30418 -0.689579 1.81195 0.241804
310 1 8.24235 4.32405 3.4536 1.27606 -0.952483 -0.0702802
311 1 3.57527 1.31378 7.54444 0.0778716 -0.284186 -0.836142
312 1 2.06682 1.20387 4.80769 -0.57432 -0.675119 0.038196
313 1 1.19621 3.80809 1.51189 -0.903337 1.64349 -0.949972
314 1 8.30079 3.46165 3.36103 -0.467767 -0.720197 -0.0250692
315 1 2.45227 2.6545 2.30218 0.938686 0.558612 1.40236
316 1 5.25722 2.19725 0.0913552 0.209049 0.943563 1.24996
317 1 9.35991 9.37921 7.57344 -0.0876671 0.229642 0.59639
318 1 6.38108 0.223044 6.51402 -0.268821 0.772445 -0.397812
319 1 8.3567 5.35443 2.71925 0.326475 0.380588 -0.180968
320 1 3.45126 8.37184 9.00054 -0.285045 -1.55259 -1.5303
321 1 0.257628 0.636946 7.02302 0.571665 1.12125 1.07222
322 1 5.37059 7.80218 3.06784 0.418605 -0.328719 0.320636
323 1 6.66845 7.17166 5.74439 -1.02231 -1.30784 0.104742
324 1 6.88175 0.0196654 2.40591 1.23787 -1.12786 -0.79046
325 1 7.78994 3.62632 6.85207 1.08307 -0.416012 -0.306711
326 1 2.22013 0.361364 0.476081 0.237678 0.228134 0.38212
327 1 4.81454 7.23073 8.85854 0.0135575 -0.465032 -1.34694
328 1 2.68588 5.34578 5.60025 -0.715051 0.958124 1.23034
329 1 5.31672 1.50227 8.99713 1.78433 -0.757484 -0.867621
330 1 3.43531 0.544089 3.95965 0.474365 -0.0513166 0.188169
331 1 0.829766 1.73556 5.52155 -0.366616 0.10213 -0.636709
332 1 0.611873 2.4387 4.5889 0.43977 0.00333871 -0.726991
333 1 8.80661 1.28233 5.12068 -0.423584 -0.242633 0.224039
334 1 3.34406 1.78066 2.3817 -0.0528742 -0.642849 0.660256
335 1 7.89069 6.42933 5.05002 0.335921 0.758341 0.325434
336 1 2.41688 5.90167 4.60551 0.409821 1.37502 0.687133
337 1 4.76832 2.72909 6.36406 0.701878 0.192306 1.73102
338 1 0.466029 4.36904 4.27392 0.694381 1.46833 -0.186736
339 1 4.30937 7.8137 2.15308 -0.173729 -0.327292 -0.983195
340 1 7.05981 8.57359 6.98555 0.706718 -0.646778 -0.605126
341 1 7.77158 4.25066 5.35483 0.877358 -1.14484 0.140123
342 1 8.62608 5.55378 5.19682 -0.514693 0.560113 -1.74604
343 1 2.86223 2.50854 4.09739 -0.378303 0.938311 -0.8633
344 1 6.0721 4.1768 9.20284 -0.0041451 0.458951 -1.12658
345 1 2.69793 9.33433 2.19814 -0.18958 0.443821 -0.000304974
346 1 9.27337 9.23774 9.10721 0.424886 0.687545 0.0615272
347 1 2.12141 8.9488 5.71114 -0.410554 -0.483155 1.09719
348 1 1.08806 3.22986 9.18431 1.26418 0.721748 0.773905
349 1 2.6318 7.92653 6.36196 -0.0802673 -0.329876 -0.850085
350 1 1.1698 6.50196 0.600512 -0.337198 -1.09874 -0.124896
351 1 4.23984 8.91561 4.61325 -0.893049 -0.787747 -0.818633
352 1 8.74216 3.35228 8.37161 0.0798935 -0.0503477 0.848434
353 1 1.45469 1.86041 8.75229 -0.6918 -0.0280276 -0.0895896
354 1 4.19157 1.67229 8.16625 -0.577947 0.330774 0.268788
355 1 6.86885 0.22838 4.58294 -0.125387 0.238481 0.440457
356 1 1.00047 5.01858 6.67867 0.299678 -0.500378 -0.741697
357 1 3.28637 7.41614 8.13801 -1.13608 -0.81446 -0.604705
358 1 7.81226 7.21558 8.74578 0.403757 -0.29552 -0.443875
359 1 4.7258 3.98909 2.91177 0.236894 -0.000763898 -0.153605
360 1 3.22227 8.08582 4.00255 0.821256 -1.13348 0.53098
361 1 7.69164 8.69884 5.71466 -0.229804 0.851953 -0.349427
362 1 5.06172 4.04828 3.72376 0.19136 -0.394127 -0.849853
363 1 4.32105 5.21869 6.45334 0.311763 -1.92037 -0.225833
364 1 3.8661 0.648204 5.48496 0.815921 -0.430253 -0.92116
365 1 7.44265 8.08099 1.55435 -0.995573 -0.591639 0.975222
366 1 1.99871 7.2297 1.56041 1.4405 1.20496 1.89849
367 1 5.36402 1.68016 8.0329 -1.09818 -1.21445 -1.30497
368 1 2.97918 0.233024 6.64025 -0.483372 0.389856 -0.440185
369 1 3.30592 6.42488 8.53924 -0.697544 -0.250638 0.356068
370 1 5.82398 6.42345 5.944 -0.559182 -0.502448 -0.469611
371 1 4.2622 9.19389 2.81333 0.301253 -0.479397 0.223344
372 1 4.58679 2.29474 7.47332 0.170519 -0.473991 -0.45949
373 1 4.85115 4.90384 1.53059 -1.35462 0.0475872 -0.437979
374 1 2.01963 4.35473 2.83335 -0.669694 -0.400373 -0.357801
375 1 0.403998 2.20158 9.13988 0.371631 0.361953 0.821095
376 1 9.17565 1.63732 8.67577 -0.814781 -0.748618 0.428956
377 1 6.72483 2.76788 8.69191 0.839419 0.7542 0.321235
378 1 8.64515 7.24495 5.83541 -0.319235 -0.0153247 1.22108
379 1 0.864301 6.32973 8.38579 0.811969 0.940872 0.608547
380 1 7.15825 3.53206 5.38078 -0.0940894 0.908242 -1.17116
381 1 4.47816 4.2863 7.31469 -1.78462 1.02856 0.299613
382 1 4.69306 0.915203 0.941386 -0.0628754 0.648496 -0.949605
383 1 0.179898 6.19997 2.83812 -1.13257 0.274447 0.400843
384 1 6.951 6.41882 1.0116 1.86725 -0.965585 0.914341
385 1 2.82556 1.76072 7.25211 0.249672 0.932631 -0.141562
386 1 7.10717 2.19636 0.3297 0.0161077 -0.107619 0.227178
387 1 0.160666 5.76844 5.92496 -0.576988 1.04882 0.221023
388 1 3.38834 3.26061 6.99356 -0.126385 0.716901 0.247258
389 1 2.79036 9.00666 7.43789 0.475542 -0.772495 0.466988
390 1 6.41293 3.75227 6.83367 -0.593825 0.528388 -0.0955956
391 1 1.01897 5.95232 6.6633 0.510363 -0.0754102 0.0442343
392 1 8.86155 2.04056 7.61062 -1.07558 0.014844 0.263785
393 1 1.42478 2.35312 5.03446 0.435293 0.313315 1.00716
394 1 8.38268 1.18072 4.21396 -0.687062 -0.863073 -0.00957176
395 1 3.58134 8.38612 7.97088 0.74625 -0.325071 -0.761755
396 1 4.91581 4.43274 0.676536 0.257176 0.359493 0.594811
397 1 6.91664 7.92208 4.43425 1.25096 -0.852111 0.805603
398 1 1.60978 6.38504 4.50231 -0.151273 0.211114 -0.375392
399 1 3.39272 8.92984 2.59846 -0.602283 0.358414 -0.718433
400 1 1.9658 8.76757 8.23709 -0.0255875 -0.516992 -1.23495
401 1 7.10083 6.97533 2.78798 0.0092038 0.987174 0.906377
402 1 2.15443 4.47381 5.43358 -1.15989 1.12497 -0.96673
403 1 1.88665 7.33158 0.48105 0.447617 -1.67935 -0.0236222
404 1 7.53938 8.95915 1.565 0.315112 -0.81248 0.589731
405 1 3.54291 7.5024 3.27863 -1.09689 -0.55608 -0.777799
406 1 5.37773 3.07765 0.360825 0.108414 -0.7724 0.569457
407 1 2.71334 5.65077 2.92982 1.50903 0.621691 -1.45988
408 1 0.413939 8.36467 4.26127 -0.205147 -0.179275 -1.35549
409 1 8.00549 7.39853 2.84374 -0.325656 0.560073 0.820031
410 1 8.58269 4.84349 8.46621 -0.276484 0.0435468 -1.05806
411 1 8.50424 0.347704 7.91246 0.719552 1.56398 1.17299
412 1 1.29147 5.57829 4.18878 1.08548 -0.614548 1.08601
413 1 4.14877 6.42577 1.35922 0.357639 0.170354 -0.710315
414 1 3.78349 9.08859 6.51812 -0.619593 0.552301 -0.281224
415 1 3.85417 8.54729 3.48867 0.315854 -0.494547 -1.07357
416 1 2.82012 2.93092 8.20909 -0.76231 -1.01835 -1.0546
417 1 8.64064 0.436295 5.15234 -0.504382 -0.709064 -1.57263
418 1 5.5505 2.55597 6.06056 -0.0352274 1.15578 -0.0568898
419 1 5.57438 7.77242 1.17193 0.457324 0.224094 -0.703414
420 1 1.60917 1.61154 2.90134 -1.0151 1.13789 -1.79658
421 1 6.03392 0.00845669 5.40449 0.355241 0.0345223 0.0244031
422 1 8.3621 2.16779 8.45039 1.25007 -0.935465 -0.311022
423 1 4.45412 7.54706 5.2927 -0.74908 -0.0779013 -0.990015
424 1 9.17364 6.60537 3.81131 -0.104274 0.448235 -0.0350215
425 1 5.11271 1.39794 6.37129 -0.252958 2.20958 0.285794
426 1 5.39431 8.15547 7.13762 -0.275761 -0.0663327 -0.471929
427 1 0.614584 1.24288 6.23395 0.409191 0.911436 -0.252018
428 1 2.23686 2.59677 5.42736 -1.15754 0.663071 1.63431
429 1 1.69098 5.9885 8.10987 -0.7364 1.46129 -1.19535
430 1 0.996471 6.68385 7.22038 0.0807742 0.380246 -1.92387
431 1 3.27863 3.09424 0.861673 0.616134 0.242408 0.591141
432 1 3.04744 9.17864 0.327061 0.187855 -0.222694 -0.790734
433 1 8.38898 8.0922 1.34276 0.162459 0.096743 0.0720578
434 1 4.03442 4.66371 2.78852 -0.0581561 0.141728 0.433922
435 1 1.24179 0.260453 0.410519 1.04826 0.90189 0.730885
436 1 2.29888 8.80762 4.24045 -0.162177 0.786103 -0.149251
437 1 7.82483 1.27956 6.86362 0.394894 -0.559351 -0.289472
438 1 9.06048 2.01223 3.52546 -1.86559 1.08651 0.498471
439 1 7.74716 5.31117 0.920325 -0.640073 -0.66987 -0.00783199
440 1 1.7692 8.84094 0.605298 -2.51968 -0.226999 0.967412
441 1 2.49173 5.99201 8.53038 -1.09338 0.878463 0.375305
442 1 4.58358 6.55896 7.34567 -0.0837413 -0.20049 -0.615866
443 1 8.31974 7.83105 7.09354 -0.654201 0.163372 1.56989
444 1 7.78522 0.389057 4.90555 -0.169806 -0.696303 -1.39442
445 1 0.147195 5.58219 8.45419 0.0188209 0.679779 1.04975
446 1 8.73985 2.8464 1.68122 0.433427 -0.237308 0.741319
447 1 5.44242 5.92818 5.27774 1.13527 -0.0484525 0.947167
448 1 5.23435 8.23415 8.20277 0.111435 0.384048 -0.390137
449 1 0.648181 1.83739 2.93744 -1.9931 1.03203 0.599227
450 1 7.31001 7.01778 7.81804 0.499444 1.5709 -1.09165
451 1 4.0754 1.1151 9.28612 0.869869 0.135067 -0.382468
452 1 9.01728 5.79846 4.12265 -1.32399 -0.981411 -0.289985
453 1 7.01727 5.74194 3.85237 -0.618151 -0.290684 0.506828
454 1 6.57945 0.585922 3.88397 -0.681431 -0.302953 1.69677
455 1 3.53749 4.04901 4.6003 0.139826 0.231703 0.546467
456 1 6.74911 8.51984 5.04024 -0.703501 -0.613214 -0.483856
457 1 6.53243 6.89597 0.0146825 0.363793 -0.710456 0.0711044
458 1 5.68057 8.99811 6.71332 -0.576671 0.276537 1.06373
459 1 5.47268 3.95611 2.02108 1.29994 0.462448 -0.582651
460 1 5.33074 4.25733 6.82785 -0.856259 -0.344536 1.52752
461 1 2.41893 4.85627 7.73338 -1.55745 0.504783 -0.694167
462 1 5.05327 6.00671 6.56495 -0.325427 -0.014919 -1.03532
463 1 9.35006 7.76332 5.40076 0.852934 0.985013 0.939465
464 1 7.11164 6.40155 4.54955 0.243925 -0.962385 -0.429856
465 1 2.34699 7.91242 4.29468 0.0931617 -0.600558 0.233357
466 1 3.59176 3.29795 8.56466 -0.607686 0.267522 -0.404286
467 1 1.81163 7.5744 8.66921 -0.35168 -1.01129 0.214745
468 1 2.55677 4.00622 9.33381 -0.397229 -0.410545 1.78345
469 1 7.5144 4.91682 3.18554 -0.809717 0.93931 0.532237
470 1 2.64931 0.375332 5.52914 -0.656974 -1.35686 0.202684
471 1 8.68468 6.2656 6.43128 0.845476 -0.573155 -0.0105117
472 1 8.13997 8.56846 9.107 0.361989 -0.413935 -0.254019
473 1 4.83279 7.2001 1.49466 0.507223 0.371429 0.795799
474 1 7.89572 5.0064 6.02708 0.499574 -0.759934 0.168519
475 1 3.73648 0.680854 6.8632 -0.605365 -0.662684 0.335648
476 1 5.39555 0.685354 1.72132 -0.877072 -0.301348 0.673119
477 1 0.890919 7.28752 8.68271 -0.988355 0.516659 -0.542034
478 1 8.17859 1.29049 1.3713 -0.264503 -0.169356 0.983153
479 1 6.49391 5.59916 5.99455 -1.20546 -1.58367 1.00661
480 1 1.18383 8.7363 2.59155 0.149722 0.232055 1.20271
481 1 5.31128 1.82538 1.04658 -0.312354 0.771717 -0.0634103
482 1 4.58613 7.66162 6.882 0.402441 -0.574733 -0.530142
483 1 7.57925 0.050361 3.08118 0.203446 0.200532 -0.204148
484 1 6.72354 1.00479 5.12373 0.134148 0.582619 -0.018134
485 1 3.06843 5.98277 7.6303 -0.690949 0.0936356 -0.852048
486 1 8.22704 4.02729 0.337361 0.114044 0.580013 1.17462
487 1 4.36341 8.30086 6.42885 0.226541 -1.55228 0.66452
488 1 2.84995 3.41807 4.38523 0.00517419 2.74937 -0.234349
489 1 6.06107 5.61536 4.26488 0.155999 -0.363592 -1.24204
490 1 0.813175 7.65392 4.69935 -0.547772 -0.163666 -0.19042
491 1 1.39239 7.19487 6.34403 -0.260355 -1.12409 1.09518
492 1 4.71103 8.43337 3.74029 1.8099 0.111752 -0.258594
493 1 4.75184 8.10878 4.62445 -0.876938 -0.77237 -0.0469199
494 1 3.23413 1.97728 5.61502 -0.607263 0.350843 0.425411
495 1 8.73436 6.4891 2.97786 0.972587 -0.574292 0.280565
496 1 3.77742 9.38159 7.47759 0.818075 0.618564 -0.467563
497 1 2.51243 5.18499 8.84695 1.17766 -0.92398 -0.889332
498 1 7.65126 2.47344 3.46721 -0.412249 1.62177 0.00834244
499 1 0.963914 6.22954 2.04486 0.985374 -1.18665 0.226425
500 1 2.57659 0.0442384 8.18655 -0.595462 0.3644 0.971845
501 1 5.0529 3.36687 7.55263 0.413185 -0.924545 0.0100121
502 1 1.18992 8.52283 5.71945 0.374237 1.84851 0.34487
503 1 0.700607 6.8782 4.18588 -1.00479 0.0757624 -0.112551
504 1 3.01816 7.15572 1.68472 1.78714 -0.996759 0.0527778
505 1 7.39116 1.32234 0.0303938 -1.7972 0.64125 -0.256074
506 1 0.687635 1.37154 8.914 -0.40876 -0.423887 0.21065
507 1 1.02963 9.29905 5.13693 0.583687 0.429969 1.03718
508 1 2.63977 8.11391 5.51416 0.734714 -1.6212 -0.242051
509 1 8.53089 6.48801 7.3863 -1.7687 -0.513907 -0.666972
510 1 7.10101 1.97961 4.82731 -0.654919 -0.137039 0.478308
511 1 3.56256 1.47245 3.49072 0.270112 -0.961839 -0.577048
512 1 1.84482 2.22137 0.964223 0.88176 1.22987 -1.11736
513 1 2.28017 5.7958 3.69268 0.0329288 -1.22353 0.390912
514 1 0.514901 8.49786 5.13797 0.53204 0.0215504 0.95507
515 1 5.06377 2.48772 4.84034 -0.935349 -0.520808 0.552327