ITEM: TIMESTEP
246550000
ITEM: NUMBER OF ATOMS
1000
ITEM: BOX BOUNDS pp pp pp
0.0000000000000000e+00 9.4000000000000004e+00
0.0000000000000000e+00 9.4000000000000004e+00
0.0000000000000000e+00 9.4000000000000004e+00
ITEM: ATOMS id type x y z vx vy vz
1 1 4.65188 5.40423 9.22205 -0.589754 0.768181 0.749253
2 1 1.20044 4.51812 0.678227 0.33631 -1.79085 1.12969
3 1 2.05032 5.72889 9.10567 -0.522321 0.438548 0.371027
4 1 5.27245 8.28467 9.1482 0.848816 0.531466 1.57862
5 1 4.49217 3.40245 7.91928 0.317785 0.543214 0.934521
6 1 0.442154 7.15468 7.46394 0.237476 0.397027 -0.606086
7 1 5.91206 3.06005 2.44067 0.125627 1.00124 -0.0471209
8 1 7.55722 7.66366 4.36158 -0.382164 0.47698 -0.0510483
9 1 5.15737 8.29372 2.38368 1.69704 -0.706708 1.02995
10 1 4.69416 0.727778 5.35165 0.179881 -0.303257 0.0979402
11 1 8.2072 2.428 4.93452 -0.733185 -1.27522 0.794644
12 1 3.51321 1.90969 0.152895 -0.0755618 0.438043 0.919837
13 1 2.41583 3.83329 7.18777 -0.367319 0.627854 -0.274795
14 1 0.697472 8.14907 3.79372 2.37848 -2.15001 -0.525352
15 1 2.91504 7.07562 7.38404 0.115837 0.476586 -1.63229
16 1 2.9864 4.484 6.93695 -2.04352 1.0204 -0.0734498
17 1 7.20164 3.91178 1.59774 0.809082 -0.0962481 2.49549
18 1 4.75487 3.9711 8.75124 0.626841 0.40558 1.10551
19 1 7.73171 4.32569 6.66591 0.148588 -1.79342 0.619412
20 1 5.71047 4.91984 6.56703 0.50466 0.146403 -0.650934
21 1 8.36568 1.63825 7.37755 0.0124808 -0.542067 1.81293
22 1 0.885477 8.30313 2.86438 0.0436098 0.884388 0.10323
23 1 5.87688 0.606771 3.28385 -0.890259 1.33223 -0.0396091
24 1 0.224457 5.86784 4.94488 -0.710748 0.041601 0.151114
25 1 9.136 3.6212 5.26786 -0.00436047 -1.58962 -1.31302
26 1 3.53937 0.887887 6.49575 0.589354 -0.511753 -0.979631
27 1 6.09804 4.09154 1.18841 0.318508 1.09022 0.889292
28 1 2.15735 6.63861 7.27295 0.29064 -1.33488 0.0162844
29 1 8.09701 6.74291 3.10515 0.525173 0.408221 -0.0917535
30 1 8.74092 0.704428 7.17246 -0.362503 -0.862784 1.03135
31 1 8.51509 4.79795 6.77429 0.301374 0.307299 0.228359
32 1 8.29147 3.27042 5.02052 1.24892 1.36 -0.396267
33 1 8.62007 3.26509 6.90587 0.866635 0.583304 -0.459334
34 1 0.0826196 2.31111 8.86509 -0.975159 -1.98454 -0.183855
35 1 3.51632 0.757234 2.37857 -0.594035 -0.24362 -0.618465
36 1 1.32623 5.30495 3.52171 0.379229 -0.0221353 -0.229587
37 1 4.89929 0.170751 7.0337 -0.732693 -0.537906 1.49178
38 1 3.99127 4.48689 3.22742 -0.601143 1.40202 0.0885445
39 1 4.37777 1.44599 5.7458 -1.08318 -0.372554 -0.404239
40 1 2.91497 1.57134 8.03737 -0.115267 -0.275802 0.653548
41 1 3.99499 0.272309 4.42323 -0.0476842 -0.644472 0.546351
42 1 6.67324 1.46416 2.8848 -1.3613 1.77572 0.0147749
43 1 7.87511 6.54082 1.21414 -0.689682 0.52896 -0.197199
44 1 0.0396317 6.40288 6.90941 -0.288162 -0.316291 -0.792046
45 1 5.23855 8.12595 5.27355 -1.02242 -0.162518 -0.261583
46 1 1.46477 0.751865 3.07433 -0.0572192 -0.0298131 -1.87871
47 1 2.85349 8.54047 4.46885 0.690611 -0.673743 -0.290227
48 1 1.91583 5.58093 4.23253 1.83302 -0.58399 1.17644
49 1 8.67948 6.29899 5.15361 0.588455 -0.145329 -1.03911
50 1 1.89319 1.55324 6.00645 -0.682544 -0.0517431 1.9625
51 1 0.0092505 1.92087 2.2844 -0.139934 0.0821932 -1.20176
52 1 5.58737 1.41016 5.28688 0.705047 -0.209109 0.372012
53 1 3.72818 5.19937 6.14585 -2.245 -0.0268894 -0.0514737
54 1 6.36512 7.26725 2.81249 0.590438 0.249436 0.669882
55 1 3.20308 6.6567 4.56963 -0.804125 -0.120433 0.580413
56 1 7.0258 5.57023 2.77172 0.199877 -1.68272 -0.522021
57 1 5.24061 4.51429 5.8141 -0.288723 -0.421537 0.459263
58 1 2.05475 7.36948 5.4786 0.0680567 -0.30707 -0.114137
59 1 2.32651 3.29348 3.25349 0.61045 0.101777 -0.443923
60 1 5.18814 7.79128 4.40099 0.896366 0.219319 0.3132
61 1 6.57725 8.823 7.32595 0.0344192 0.590157 0.803123
62 1 0.319511 6.39989 8.7687 0.0520318 0.533238 -0.694668
63 1 6.02286 6.03637 4.84121 0.504049 -0.933369 0.849938
64 1 1.68034 3.04685 4.92988 0.208628 -1.11094 -0.596655
65 1 3.79335 1.66254 1.71635 -0.32818 -0.605475 -0.750775
66 1 1.12685 2.11799 6.67828 -1.36759 0.999892 -0.718802
67 1 5.11841 3.43455 5.71375 0.114851 0.548889 -0.545188
68 1 6.90353 7.16103 1.20944 0.653957 -0.0897449 -0.40549
69 1 1.76585 1.27144 6.87137 1.12751 0.209061 0.455206
70 1 9.22274 8.91802 4.20206 0.497512 0.906992 0.489922
71 1 5.55454 7.79252 8.30848 0.206113 -0.891744 -0.57648
72 1 8.20746 3.91102 4.1422 -0.208409 -1.27649 0.592197
73 1 7.94629 6.13238 7.67948 -0.790246 0.976222 0.236532
74 1 5.59072 7.83551 0.927234 -0.531195 0.575351 -0.646348
75 1 7.26207 4.04889 7.65511 -0.572374 1.3311 -0.0192592
76 1 4.18096 7.33777 8.06417 0.799701 -0.0548526 -0.0140606
77 1 4.51306 1.81504 3.31042 -0.48977 1.42584 -0.475625
78 1 7.05057 7.94007 0.771608 1.03249 -1.12042 -0.53656
79 1 1.31977 6.01143 1.4478 -0.951945 -2.13274 -0.557621
80 1 2.93386 6.14369 7.23125 -1.30599 -0.615242 -0.0334449
81 1 6.09351 0.564832 8.48689 0.729506 -0.735801 -1.45071
82 1 5.75352 7.4781 9.2487 -0.139505 -0.041027 -1.14081
83 1 6.5722 0.784934 6.67306 -0.849329 -1.95508 2.08935
84 1 3.91683 5.75254 8.77885 0.690167 -1.28736 -0.381428
85 1 5.21786 6.67331 9.0677 -0.868943 0.960093 -0.0453513
86 1 0.637603 2.46909 1.2162 1.0591 0.0511556 0.204401
87 1 5.60243 3.84047 4.93988 1.18393 0.380433 0.433244
88 1 6.49962 4.22901 9.35196 -0.0659231 0.893758 -1.15103
89 1 2.68587 7.5881 1.43695 -0.396427 0.547988 -0.666287
90 1 5.27075 4.46035 1.72399 0.0852177 -0.66327 0.419239
91 1 6.97885 9.09622 2.78866 1.12074 0.458991 -0.272251
92 1 2.37339 7.71863 9.34919 -0.449373 0.196107 -0.467058
93 1 2.82701 8.7786 3.34967 1.53823 1.47774 0.617543
94 1 6.0838 5.17351 8.16237 -1.17304 -1.25208 -0.971047
95 1 3.78329 9.11998 8.43475 1.17527 0.741608 0.14718
96 1 4.85894 2.94436 2.15227 0.169591 1.26409 -0.810196
97 1 7.68068 5.84084 0.778755 -0.097562 -0.0627188 -2.17029
98 1 5.34217 8.5952 4.30336 1.37719 0.813966 0.550803
99 1 7.59257 4.77502 1.86167 1.0706 0.574106 0.463238
100 1 5.95281 2.09317 6.2805 0.0443942 0.421395 -0.115901
101 1 7.91155 1.23888 5.00059 -0.959286 -0.128844 0.66173
102 1 5.58614 1.7824 4.47996 -1.00761 -0.0282455 0.481965
103 1 3.80768 4.59508 7.62123 0.140928 -0.758902 -1.05302
104 1 1.17912 7.78374 7.84323 0.604422 1.22202 -0.339531
105 1 6.14402 7.75625 4.79417 -0.183016 -0.0420611 1.19314
106 1 3.27051 6.77231 6.61629 0.0862848 1.05038 2.51876
107 1 5.98069 2.93622 5.91292 -0.510429 0.427355 -0.527367
108 1 4.3362 0.459289 1.73745 0.377645 -0.228936 0.674856
109 1 6.29251 8.2002 8.00981 0.736912 0.187288 -1.405
110 1 1.43744 6.28194 0.0582141 0.557965 0.944614 0.342996
111 1 0.606419 7.67258 1.79261 -0.766361 -0.581647 -0.151093
112 1 5.66813 1.23541 0.963653 -0.436736 -0.287345 0.485599
113 1 7.09171 5.06044 6.25881 0.380654 -0.255223 -0.640002
114 1 6.64715 1.9911 1.52504 -1.43432 -0.23668 -1.00968
115 1 6.98171 5.9267 5.82958 0.916688 0.994216 -0.452688
116 1 2.82711 8.22596 0.691389 -0.774412 0.0982309 -0.217405
117 1 3.27041 5.25388 7.10664 -0.492769 -0.325797 1.06836
118 1 9.22791 0.426101 1.0795 -0.508851 1.69078 0.938077
119 1 7.61872 2.41898 7.647 -0.88667 -0.0300809 -0.0226888
120 1 5.73268 0.858433 6.33926 0.914489 -0.590207 0.740134
121 1 7.29829 4.35274 5.57547 0.191289 0.103613 1.18503
122 1 6.94265 5.66881 7.3831 1.16019 0.246919 -0.587196
123 1 1.63622 5.34328 5.87047 0.0213583 1.02887 -0.439421
124 1 2.09104 1.78172 4.58157 -0.646471 -0.0426582 -0.380655
125 1 4.06199 6.16313 4.2427 -0.705602 1.14652 0.24041
126 1 5.64398 1.40777 2.83954 0.985402 1.43849 -0.884479
127 1 4.05999 0.151608 6.73698 1.00877 -0.781162 -0.951273
128 1 3.76221 6.22467 5.27606 0.928999 1.0829 0.532013
129 1 7.60363 8.5382 0.156542 -0.572591 -0.124458 0.388351
130 1 9.05662 2.30785 1.34136 0.141313 0.806799 -0.503224
131 1 6.45377 1.29556 7.8443 0.06553 0.44053 -0.774118
132 1 2.06433 1.81983 7.61315 -0.695046 -0.173972 -1.0872
133 1 6.02582 3.87619 6.09248 -0.664628 -0.987949 0.680376
134 1 2.04531 8.39212 3.89941 -1.35479 1.70174 -0.734365
135 1 7.38506 7.24295 0.192781 -0.507011 1.16987 0.70595
136 1 7.03099 6.97685 6.01676 0.844808 0.195511 0.629174
137 1 4.52187 4.51539 6.52643 0.0821323 0.211136 1.34367
138 1 0.079899 5.73108 7.93628 0.480078 -0.401523 0.972341
139 1 6.2771 6.64263 5.64105 -0.546831 -1.26354 -0.449677
140 1 7.24606 1.04182 2.03756 -0.602618 -1.01151 0.16963
141 1 2.76926 2.28345 0.538854 0.137993 -1.02771 1.56687
142 1 2.04869 8.09302 7.7685 -0.835033 0.167232 -0.356007
143 1 8.64605 0.794898 5.57687 0.431751 0.0791112 -0.0641834
144 1 5.18136 4.9575 8.57966 0.0238457 -0.396645 0.460843
145 1 9.18249 5.8329 0.466838 0.673497 0.633504 1.1711
146 1 4.71865 5.54528 3.61077 -1.18614 0.0319287 0.784253
147 1 2.48397 8.52145 1.66335 -1.26403 1.07489 -1.51358
148 1 5.23307 6.06038 2.94418 0.746681 0.137184 0.0248558
149 1 6.0137 7.3198 7.45341 -0.59248 -0.274449 0.406517
150 1 3.5878 8.04648 9.14865 -0.945398 0.228182 0.624285
151 1 8.83002 6.15826 1.38505 -0.0461231 -0.237738 1.37489
152 1 2.72943 3.44927 5.60288 0.954992 -0.124364 -0.709153
153 1 5.84971 2.96007 0.839129 0.991536 0.229556 0.514601
154 1 1.06163 0.45514 7.82336 0.0436724 1.92737 -0.943335
155 1 4.93628 0.0357477 4.65463 0.989482 -0.730359 -0.110692
156 1 2.02445 3.49193 1.70921 -1.10811 0.00400314 0.875644
157 1 2.80458 7.88779 2.72874 -0.0945648 -1.14755 -0.0341988
158 1 3.56621 4.96041 2.3989 0.0300735 1.03361 0.160598
159 1 9.32193 1.06178 3.7385 -1.40836 0.497583 -0.756816
160 1 7.15875 0.737185 5.14706 -0.472998 0.234789 0.860918
161 1 4.54495 1.42949 2.27708 0.519209 0.25638 -0.536484
162 1 6.0468 8.04 2.33727 0.471735 -0.612387 -1.07656
163 1 5.8516 5.20436 3.34347 -0.273001 -0.23697 0.817709
164 1 9.3568 0.908102 6.52197 -0.152654 0.515704 -0.0089264
165 1 2.0421 1.65809 1.41426 -0.0683986 -0.232058 0.148849
166 1 5.37111 3.45883 1.60624 0.31408 0.505717 -0.71024
167 1 7.10563 0.184503 6.1017 1.31235 -0.363448 -1.02069
168 1 0.0120783 8.1735 2.44688 -1.99281 -1.91261 -1.08742
169 1 6.00801 3.66968 8.6509 0.286765 -0.0575451 -0.80329
170 1 4.83761 0.481238 0.821053 -1.33797 -0.579628 -0.489348
171 1 3.37346 7.56162 4.4607 0.89772 0.350883 1.05333
172 1 4.79951 4.37686 2.45734 2.23967 -0.946398 0.949998
173 1 2.49157 6.47288 0.298685 -0.572337 0.453876 1.25838
174 1 1.34381 5.91232 2.58394 0.191328 -1.23306 -0.19064
175 1 0.221129 7.69517 5.78652 0.185795 -1.26502 -0.789176
176 1 6.99641 4.00481 6.77395 -0.455418 0.321556 -0.699221
177 1 0.454015 0.360317 0.0659716 0.501235 0.381671 -0.87156
178 1 1.80305 4.63209 6.59379 0.53018 1.06164 -0.555525
179 1 7.18046 8.73411 4.54924 0.340442 0.504703 0.09812
180 1 1.04193 3.41436 5.65176 -0.44383 -0.897375 -0.695089
181 1 8.02556 5.06027 4.15737 -0.0186391 0.524941 0.245841
182 1 0.874233 6.51034 4.68152 -1.2414 0.614093 -0.244143
183 1 8.33946 6.84189 4.53485 0.930344 -0.91651 0.294105
184 1 8.18255 1.81937 9.30294 -0.225391 -0.972882 -0.127856
185 1 7.91743 5.73463 8.6605 -0.531778 -0.346059 0.325574
186 1 9.16274 6.60701 7.79232 -1.57455 0.254438 0.216659
187 1 7.84273 5.15051 5.1273 1.99606 -0.248201 0.589804
188 1 2.24646 5.81278 1.45427 -0.454231 -0.654989 0.232232
189 1 6.8886 0.371849 7.51188 1.766 0.700207 -1.06207
190 1 4.06611 8.78137 0.293347 1.02069 -0.137592 -0.880664
191 1 3.52988 7.74816 2.20025 0.676974 0.405117 0.298855
192 1 2.55695 9.36914 4.26199 0.506483 -0.0991019 -1.26574
193 1 6.3622 8.72792 5.55756 0.602492 -0.465991 -0.286022
194 1 1.4234 7.20272 1.33123 0.414239 -1.4953 -1.06271
195 1 3.77789 8.5782 3.21631 -0.725549 0.119586 -0.548749
196 1 7.67118 3.28552 6.9083 -0.883984 1.16956 0.813389
197 1 1.14429 5.49561 6.60214 -1.45327 1.38957 -0.206905
198 1 1.50624 7.70664 0.390206 -0.00929467 -0.069454 0.548407
199 1 0.783875 1.53171 2.93583 -1.27828 -0.259083 -0.187941
200 1 0.529568 8.90029 4.77753 -1.53675 1.8081 -0.0240879
201 1 0.592676 2.07582 0.21338 -0.840022 0.404518 0.0692266
202 1 3.8583 3.26679 1.56315 0.070404 -0.1651 1.73062
203 1 7.59781 6.64935 2.10911 0.928586 0.55734 -1.09467
204 1 4.92697 1.21689 0.143867 -1.11768 1.47817 0.214458
205 1 2.40037 4.00671 6.33151 0.486538 -0.176267 0.31021
206 1 9.17148 2.74097 4.70937 2.0636 0.383843 0.0711047
207 1 9.04905 3.30178 0.963546 1.24578 -0.143498 1.63297
208 1 3.46433 8.54401 7.24392 1.04584 -0.119445 1.72862
209 1 9.27554 1.56376 0.812962 0.230199 -0.153819 0.196434
210 1 6.69666 2.1953 4.40346 0.378085 0.135872 -1.13725
211 1 9.05997 0.201933 1.95595 -0.598203 -0.924892 0.161456
212 1 1.91961 8.94322 5.85332 -0.911042 1.81947 0.572809
213 1 5.44547 0.741196 2.11482 -1.87782 -0.836555 1.01466
214 1 6.22469 2.9906 4.66247 1.22694 -0.605156 0.42169
215 1 0.432458 7.73921 8.4807 -0.514569 0.580831 -0.255951
216 1 4.78983 1.21493 1.28573 0.459028 0.351618 0.358027
217 1 3.66916 3.88264 0.550422 -1.17742 0.549525 -1.08622
218 1 5.18189 7.27644 2.37355 0.290317 0.320638 0.346044
219 1 7.88901 9.01323 6.2749 -0.597969 1.77083 0.636209
220 1 1.06803 1.34138 8.16949 -0.15893 -0.376889 1.25039
221 1 5.34722 5.7824 8.0127 0.370038 -0.590211 -0.415104
222 1 4.23307 2.97993 5.43678 -0.175546 -1.19621 0.731771
223 1 7.73024 9.32508 0.567977 -0.451979 -0.620496 1.02283
224 1 6.85824 2.90729 2.12564 0.664233 0.251416 1.09715
225 1 8.94872 4.48401 9.20244 1.7934 -0.662722 0.61428
226 1 1.67496 3.4666 7.95251 1.60723 -2.17757 -0.476196
227 1 8.45773 5.97703 4.30874 -0.804094 1.26457 -1.51433
228 1 1.73244 8.32553 6.41085 1.45655 -0.502795 -0.169793
229 1 2.0319 4.50133 1.66685 -0.907478 -0.0965478 0.239718
230 1 1.62844 9.02286 4.93711 -0.508996 -0.117528 0.59466
231 1 3.64617 5.64394 7.91296 -0.224077 0.0243757 -0.666501
232 1 9.31149 6.87357 1.94746 -0.82624 0.875196 -0.331364
233 1 4.56792 7.27721 1.6441 -0.846428 0.206062 0.384476
234 1 5.98686 2.55286 1.69689 -0.727768 -0.342747 0.88297
235 1 8.85213 4.13455 0.846686 0.485463 0.534677 -0.729092
236 1 6.9439 1.65842 6.2099 1.10417 -0.213294 1.16594
237 1 7.67826 2.59823 9.0589 -0.0784497 0.50752 0.395196
238 1 0.371856 5.36589 3.41575 -0.339409 0.0752553 0.563896
239 1 0.206533 3.72097 6.05663 -0.250993 0.716215 1.29298
240 1 5.19231 1.36917 3.68482 1.41113 -0.582134 0.296898
241 1 2.91726 3.21218 6.65856 -0.883777 0.0443565 -0.183156
242 1 4.1477 2.84354 3.52079 -1.05877 1.89087 0.194009
243 1 7.21308 5.4258 4.31525 0.331296 0.159428 -0.655532
244 1 8.29568 3.9518 8.5366 -0.979684 1.48423 -1.67074
245 1 7.0853 5.34498 1.27253 1.35355 0.264767 -0.878489
246 1 2.01512 7.78282 3.2527 2.14191 0.557421 -1.4792
247 1 7.31625 3.5471 4.56549 0.574845 0.67414 0.815114
248 1 3.23857 4.82499 8.18744 -0.176911 0.717154 0.799971
249 1 3.51841 4.16229 9.05785 -1.18943 -1.1348 -0.476826
250 1 6.85243 6.32505 0.86085 -0.860879 -0.0484407 0.625197
251 1 6.1498 7.94366 3.89318 0.362914 -1.47141 -0.10394
252 1 6.72224 6.93247 8.95803 -0.326751 1.11082 1.0737
253 1 8.43658 6.29923 6.51383 0.22081 -0.297143 -1.83059
254 1 5.45619 5.43045 4.32964 -0.118026 0.284428 -0.312817
255 1 5.31739 4.21124 0.760678 0.65183 -1.07892 -0.717145
256 1 6.43461 0.709333 2.34784 -0.112154 0.707573 -1.22104
257 1 1.11057 2.39262 5.77115 -0.455721 0.0619953 0.453816
258 1 5.80873 5.57752 5.68827 0.24171 -0.726085 0.467511
259 1 3.95282 2.11295 4.28439 -0.193266 0.0941941 0.413285
260 1 9.34786 3.56233 7.44417 -0.43657 0.115527 0.473147
261 1 1.97125 4.37956 0.186894 -0.677584 0.188731 -1.16611
262 1 7.24424 7.94815 8.79422 1.40363 -1.28687 -0.0309057
263 1 1.36453 5.16135 9.33937 0.0105446 0.315866 -0.734904
264 1 2.74943 9.29326 5.99067 1.13835 -0.471105 -0.00527617
265 1 8.97837 8.61341 7.57108 0.851366 -0.265978 0.153112
266 1 0.688022 5.29766 2.50394 -1.36129 -0.263573 0.562538
267 1 2.67943 0.900982 6.26116 -0.0104995 0.0763984 -1.56509
268 1 8.68935 5.45722 3.39252 -0.19987 -1.28808 -0.98386
269 1 1.20145 0.0537043 6.92294 -0.938664 1.50706 0.663188
270 1 8.55454 1.29259 3.36673 -0.80075 1.03833 -0.547666
271 1 4.57352 8.75047 8.98374 1.18279 0.556856 0.290908
272 1 0.39718 6.36481 2.73989 0.663504 -0.308951 -0.370528
273 1 7.85611 5.73283 5.93939 0.412484 0.481349 -0.387017
274 1 0.175015 0.904525 7.4704 0.16038 -0.103828 0.320543
275 1 7.99298 7.6719 8.30875 1.21319 0.38938 0.454806
276 1 5.96024 2.33635 0.00862834 1.19342 -0.387386 0.0341414
277 1 8.44291 2.82155 1.96939 -0.0924943 -1.01827 -1.03529
278 1 4.1581 7.28066 0.156742 0.0899139 0.968904 0.0178034
279 1 8.29851 7.57395 0.593127 -1.58745 0.835595 0.575349
280 1 6.89955 1.2914 8.89697 -1.1448 0.389045 -0.201493
281 1 0.447046 3.80744 9.10914 -0.730459 -0.0595035 -0.131035
282 1 3.67092 1.18952 4.88128 0.985214 -0.548435 -0.917373
283 1 3.61028 6.65048 3.61287 0.179144 -0.00566878 -1.94906
284 1 0.490636 7.23522 2.66138 0.600705 -0.803154 0.288858
285 1 5.31305 6.35376 5.2908 0.506449 0.435819 0.522884
286 1 8.27034 8.79448 4.15229 -0.332503 0.116543 0.463649
287 1 5.888 2.96175 7.75534 -1.08405 1.41141 -0.278933
288 1 0.751605 4.77776 8.24448 -0.617427 -1.64598 0.959708
289 1 5.61126 6.31834 2.17602 0.588291 -0.322766 -0.22785
290 1 6.9838 1.7613 7.24639 0.0963704 0.774951 -0.757163
291 1 -0.0153299 1.9059 3.26721 -0.620099 -0.569338 1.46497
292 1 0.780081 5.21743 5.59921 1.2012 0.0212182 -1.15107
293 1 1.88963 2.40695 0.0260231 0.567091 -0.0688758 -1.27338
294 1 9.13675 3.41955 1.88895 -0.975812 1.42394 0.105421
295 1 7.22821 0.787139 3.03782 1.48253 -0.727837 -1.12216
296 1 4.67605 7.85379 0.734821 -0.812718 -0.140072 -0.951266
297 1 8.44589 7.23909 2.0069 1.42895 0.272817 -0.962862
298 1 2.65038 2.57821 7.76288 -0.194306 -0.571985 -0.238454
299 1 4.30486 3.95446 4.72137 -0.383633 0.623673 1.69639
300 1 5.26878 5.09919 2.63299 -0.894885 0.616887 0.633082
301 1 3.01763 8.67399 2.48987 0.132115 -0.699638 0.616676
302 1 1.45625 7.76645 8.82811 -0.911288 -0.348919 -0.726434
303 1 1.98005 0.90549 4.51067 0.146414 -0.054481 -0.117771
304 1 3.40367 9.09936 3.99891 1.02129 -0.522903 0.573149
305 1 3.64526 8.80958 6.2358 -0.248968 -0.0591254 -0.579956
306 1 5.31518 4.03035 8.07115 -1.10167 -1.23558 0.328201
307 1 6.83527 2.52399 5.97723 0.781032 0.706525 1.48707
308 1 1.69501 2.60161 8.34426 -0.18001 -0.383844 -0.734127
309 1 6.27469 1.04258 4.70806 1.53984 0.806783 0.221178
310 1 2.61584 2.65023 5.87077 0.696713 -0.46576 0.728012
311 1 4.96353 6.32846 4.21029 -0.559056 -0.721243 -0.96386
312 1 6.47124 3.86442 2.90848 -1.38983 -0.328546 -0.31179
313 1 4.75305 3.94117 3.86356 -0.012277 -0.645734 0.413771
314 1 3.5731 2.00262 6.11257 0.17124 -1.43929 1.12823
315 1 6.66025 3.15999 9.35142 -0.894086 -0.0856116 -0.899585
316 1 0.45842 2.78778 2.05488 0.226833 -0.0861688 -1.20272
317 1 3.36217 2.45612 5.30702 -0.500176 -0.926827 1.52217
318 1 0.379489 0.517111 2.69112 0.173852 0.125638 0.0746247
319 1 1.32738 0.750075 0.440873 0.307719 0.0593176 -0.60983
320 1 2.22658 7.24093 0.719108 0.533805 0.0841786 0.105235
321 1 3.46246 7.64593 7.72884 0.900513 -1.10673 1.03331
322 1 7.08435 2.64996 6.87973 0.123607 -1.12296 0.423574
323 1 5.81764 4.68954 5.02927 -0.890464 0.0652137 0.496451
324 1 1.34451 3.64185 3.29593 0.835146 0.797473 0.790179
325 1 1.33188 6.38165 6.36389 -0.446641 -0.218473 1.31128
326 1 8.85836 7.57024 7.77239 -0.57653 -0.435267 -1.47732
327 1 2.86803 8.25229 5.67315 1.08638 -0.628671 0.128094
328 1 0.427292 8.9657 9.06937 -0.12581 -0.0620153 -1.41154
329 1 0.562315 9.01499 7.68224 -0.656914 0.113047 -0.655966
330 1 6.41023 1.63294 0.465453 -0.439681 -0.0252446 -0.0815894
331 1 7.56682 1.94916 5.45801 -0.260801 0.725217 -0.500944
332 1 3.74045 3.89043 6.72516 0.522506 0.402273 -0.0651681
333 1 2.74016 9.29253 6.78094 -0.59824 0.0573108 0.2757
334 1 0.6088 0.353537 3.7417 -0.303175 0.35088 -0.675058
335 1 4.74572 2.9389 1.25125 -0.561966 -0.907478 0.305963
336 1 0.305044 2.87729 5.56602 0.177708 -0.355479 -0.0639786
337 1 1.87652 2.73911 6.92608 -0.717392 -0.770962 -0.465445
338 1 8.5929 8.10559 1.88539 -0.500211 0.706116 0.161426
339 1 8.01141 1.6687 1.56428 -0.325227 0.391912 -0.582347
340 1 3.35803 3.30267 3.32692 -0.107484 0.320213 0.852881
341 1 4.14551 5.60661 0.725272 0.0399812 0.265118 -0.0048999
342 1 8.20238 3.40869 -0.00833672 0.819476 0.991587 -0.425644
343 1 4.51661 3.93548 1.45687 0.632574 0.0148981 -0.726578
344 1 3.04469 4.0633 2.8224 -0.167444 0.919675 0.267946
345 1 4.32223 7.62221 5.29224 -0.0679412 -0.405541 -0.791038
346 1 6.56713 5.98799 0.0740275 0.532991 -1.44867 -0.72921
347 1 3.63669 3.30197 7.41319 -0.459813 -0.127354 0.361304
348 1 6.78399 0.859666 0.27947 0.714853 -0.962949 0.494593
349 1 8.55732 4.90479 0.522902 -0.172614 -1.09586 -0.679412
350 1 8.5944 8.83486 2.23615 -0.799591 0.96977 -0.0757236
351 1 2.88607 4.05238 1.94021 -0.46343 1.39546 0.761832
352 1 1.6223 6.47096 3.87595 -1.38075 1.68276 0.377535
353 1 9.34625 8.93378 0.648949 0.668285 0.134881 -1.22594
354 1 6.27436 3.38953 6.75689 -1.54249 0.30834 -0.0638603
355 1 6.36848 7.52149 6.67551 -0.671244 0.836133 -0.133258
356 1 2.8376 0.917302 7.26365 0.329032 1.24004 -0.709905
357 1 6.63442 2.32165 7.89918 0.394981 -0.16473 1.17077
358 1 8.12973 0.300731 8.92418 -0.107911 0.598787 0.251565
359 1 4.42899 2.29441 2.58692 1.12645 0.226465 -0.54322
360 1 0.991135 3.21027 6.47994 0.477339 -0.444024 0.346983
361 1 6.77919 4.77129 2.26462 1.49728 0.915105 0.551053
362 1 5.79342 1.67948 1.93568 0.010351 0.25166 1.21897
363 1 0.628263 3.881 4.73582 -0.315476 0.1322 -0.474825
364 1 7.71968 4.34817 4.81038 -0.246597 0.546396 -0.830819
365 1 7.77854 6.10169 5.08486 -0.219065 -0.211834 0.841758
366 1 9.04629 7.08285 3.86382 0.0448171 -0.538702 -0.643945
367 1 2.74853 5.04118 4.35886 0.391239 0.756161 -0.88384
368 1 5.41269 0.815826 7.65834 0.949769 -0.785514 -0.464469
369 1 3.98604 1.1567 9.2004 -0.00419452 -0.980004 0.7568
370 1 8.03113 1.28747 0.743753 -0.208177 0.5993 0.0793105
371 1 1.37202 9.33672 1.43699 -0.608398 -0.100104 -0.15016
372 1 7.89953 0.166973 5.50341 -0.469714 -0.628962 0.857353
373 1 3.6005 5.32421 5.06416 0.322805 -0.522534 1.15756
374 1 1.92836 3.06303 2.48241 -0.587646 0.306462 -1.12932
375 1 5.40321 6.25649 6.19362 -0.62689 -0.132389 -0.199297
376 1 0.742498 4.48544 3.78735 0.488433 0.16618 -0.176549
377 1 2.56513 2.52199 4.68346 0.700522 0.690105 -0.512394
378 1 1.27427 1.79985 0.79835 0.80865 0.872147 -1.31923
379 1 4.37593 2.39859 8.50646 1.31675 1.13015 0.225714
380 1 7.06332 0.113814 9.20647 -0.00220583 1.23844 0.197962
381 1 7.98654 1.22228 8.55918 1.37028 -0.017757 -0.138288
382 1 4.68659 6.89579 6.91874 -0.223033 -0.546597 -0.509212
383 1 7.02977 3.49853 6.00188 -1.03625 -0.241325 0.326007
384 1 8.581 4.63159 4.69197 0.723932 -1.2704 0.867216
385 1 4.16747 9.13147 1.26844 -0.68087 1.30124 -0.450262
386 1 0.0299348 4.28742 6.86411 -0.493139 -0.284727 -0.664524
387 1 8.8639 7.27671 2.78862 -1.65312 -0.368454 0.346392
388 1 7.7646 1.80008 3.55995 -0.591462 -0.97286 1.08202
389 1 2.7877 4.19582 0.992118 0.602804 -0.514362 -1.23583
390 1 2.27633 1.22807 0.515196 1.54367 0.0630527 1.01449
391 1 5.50337 5.78448 9.011 0.725922 0.609993 -1.14571
392 1 5.24586 3.37478 7.23124 0.443508 0.140884 -0.287273
393 1 1.27809 3.91837 2.11181 -0.389175 -1.10875 1.11086
394 1 2.59763 8.57342 8.90687 -2.03303 0.444825 0.723695
395 1 4.49421 8.47377 6.00575 -0.0134758 0.287671 -0.739639
396 1 3.08172 3.34262 1.27524 0.799246 -0.687417 0.309294
397 1 7.69316 8.84199 7.80264 -0.17942 0.230595 0.64351
398 1 6.75811 2.31504 8.98743 0.142903 0.784145 -0.82838
399 1 6.51978 3.72729 4.1651 -0.882911 -0.112427 -1.50409
400 1 1.18432 5.63992 4.72414 -0.129532 -0.782493 -0.491108
401 1 0.785272 2.20788 3.71515 0.710625 1.56826 1.04632
402 1 3.51368 2.25027 2.35442 -0.239159 -0.500028 0.176903
403 1 8.03188 0.618403 1.41179 0.752274 -0.259488 -0.45655
404 1 7.05015 7.39985 3.46659 0.0759395 -0.389848 0.677892
405 1 5.96455 9.10777 2.66754 1.37543 -0.679592 0.201374
406 1 7.77798 6.04087 3.51289 -0.287388 0.100213 -0.252768
407 1 5.006 0.709577 2.99996 -0.740116 0.776451 -0.0394445
408 1 8.77275 6.94713 1.10202 -2.00691 -0.174497 0.836513
409 1 7.48552 9.39425 7.00918 -1.26562 0.0713855 0.683579
410 1 1.88953 3.1929 5.87626 -0.28947 -0.629076 -0.407117
411 1 6.37975 0.238759 5.42657 0.357532 0.299579 0.343602
412 1 7.40197 8.87392 1.32492 -1.38572 0.289424 -0.62032
413 1 7.08215 6.64521 3.00081 -0.0922791 -1.33507 0.149404
414 1 2.47159 8.97828 5.1217 0.0592237 -0.569942 0.527737
415 1 1.11684 6.94837 8.11697 -0.351284 -0.285936 0.331774
416 1 6.18711 2.33515 7.15819 0.63113 -0.999593 -0.580056
417 1 8.04059 2.78433 4.16222 0.365904 -0.768964 0.198737
418 1 3.36236 4.88638 0.811841 -0.762866 -0.00664246 0.0578277
419 1 7.50883 6.7197 4.12085 0.550119 0.0727269 0.0992406
420 1 8.8759 5.40065 5.34468 0.18861 -1.95536 -1.20816
421 1 5.39498 9.1361 0.0579091 1.30192 0.747595 -0.0435599
422 1 5.70146 1.99095 7.76546 -0.375999 0.143967 -0.196126
423 1 8.08584 8.52875 8.80801 0.708008 -0.268242 0.0861517
424 1 6.09405 6.70831 1.22428 -0.061161 -0.423782 -1.01359
425 1 4.40024 1.94792 9.39002 -0.326337 1.78328 1.76577
426 1 4.55792 0.819902 7.57229 -0.768428 -0.296067 -0.462435
427 1 1.27168 4.40453 5.57689 -0.088411 -1.39974 -2.34604
428 1 8.12742 4.41938 3.06011 1.0221 0.616968 -1.24938
429 1 0.335274 8.22918 7.51981 -0.603826 -0.0628901 -1.15763
430 1 8.67852 1.4484 6.43584 -1.39987 -0.394446 0.554193
431 1 8.59087 2.03956 8.40136 -1.16586 1.28503 0.431491
432 1 1.95387 5.02031 5.00636 0.268075 -1.07494 -0.0996589
433 1 2.59889 1.80081 6.63283 0.793995 0.466961 1.60158
434 1 1.7683 7.49315 7.03145 -0.20705 -0.330026 -2.14289
435 1 3.94281 1.29777 0.780334 -0.265711 1.27981 1.35782
436 1 3.09545 9.06771 1.13528 -0.560464 -0.357014 1.13385
437 1 7.51945 7.98073 5.98622 1.0088 -0.371544 1.70195
438 1 6.91678 5.36291 8.29597 0.914837 1.37526 -2.08342
439 1 5.73108 7.00473 4.53878 0.0248741 0.889748 -0.736514
440 1 5.01623 9.065 2.87175 -0.351335 -1.29479 1.11984
441 1 3.84526 6.42989 1.57966 -1.92365 -0.672502 -0.0820415
442 1 3.26175 2.83408 4.14155 0.227114 -0.72571 0.948451
443 1 8.67371 5.60129 9.2747 0.522464 0.900848 -0.250005
444 1 9.15495 6.93097 0.078482 -0.199737 -0.235592 0.16139
445 1 5.1034 7.11956 0.502954 -0.553389 -0.148083 0.805045
446 1 6.09611 1.50163 6.99845 -2.1974 -1.5029 -0.359666
447 1 3.60598 1.53071 3.01548 -0.449398 0.612715 0.593861
448 1 2.72931 6.61343 8.83231 -1.39629 0.684703 -0.376167
449 1 9.01796 1.0666 2.52187 0.732886 -1.29203 0.632233
450 1 2.79264 2.38296 8.79754 -1.38935 0.859134 0.166766
451 1 0.406944 1.55241 1.54885 -1.67022 0.278067 -1.00834
452 1 7.16367 8.79321 8.65053 0.592428 0.280519 -0.623335
453 1 6.6492 3.14147 1.26737 0.114831 0.0701153 0.826193
454 1 6.42557 9.25323 6.59854 -0.0361728 -0.239334 -0.00523683
455 1 3.03133 5.6396 2.90857 -0.621491 -1.55412 0.702248
456 1 4.72683 5.00522 4.57349 -0.969566 -1.37556 0.797946
457 1 1.9504 9.28399 3.40614 -0.361833 -0.432152 1.03937
458 1 3.7256 6.5079 8.25917 0.849111 0.577431 -0.628625
459 1 2.83344 1.19491 2.02131 -0.595656 -0.520799 -0.819966
460 1 8.92013 2.28335 0.540421 0.921016 0.182975 0.249741
461 1 8.44393 7.794 4.50912 1.31174 0.314141 0.198315
462 1 3.7461 5.64929 3.52322 -0.571998 0.469731 0.452823
463 1 7.52386 7.4794 6.90891 -1.0546 0.856967 0.13556
464 1 8.89114 4.51144 3.73002 0.523515 1.06822 -1.01261
465 1 8.86924 4.40152 5.82448 -0.676102 1.26196 0.576679
466 1 4.47787 3.43179 6.35844 0.735538 -0.625495 -0.269927
467 1 8.22118 6.7482 0.129966 -0.403013 0.426844 0.697216
468 1 4.27805 8.63024 2.11858 -1.49722 1.02316 -0.236508
469 1 5.68102 6.22677 0.480049 -0.773113 -0.528094 0.371703
470 1 6.57828 8.38324 6.46678 -0.501222 -0.525173 -0.123309
471 1 8.68357 0.345805 0.414894 0.0332861 -0.923073 0.830667
472 1 8.54923 1.77922 2.48175 -0.400044 -0.466921 -0.243043
473 1 4.41537 2.53675 7.24864 0.595379 -0.102057 0.711561
474 1 4.20895 6.0952 5.98252 -1.63688 0.338279 -0.724138
475 1 1.22343 4.42337 2.90601 -0.541144 0.607239 -0.615773
476 1 7.91306 2.72423 6.09549 -0.200647 0.531706 -0.643471
477 1 0.259433 3.25827 4.09157 -0.226258 -0.370104 -0.710037
478 1 4.44159 1.23361 4.45985 -1.40205 -0.728124 0.019017
479 1 4.20128 0.962407 3.57814 0.0357798 0.911073 -0.390146
480 1 2.63928 1.65006 3.73106 0.396253 -0.625922 0.437552
481 1 0.608487 0.73176 1.49265 0.38263 0.212474 1.6079
482 1 4.43702 6.15837 7.51724 -0.00779829 -0.467504 0.822789
483 1 3.02421 5.70578 5.84862 0.0152669 0.475445 -0.150792
484 1 1.22632 2.29569 2.29319 1.23369 -0.118267 -0.255769
485 1 8.41727 2.4357 3.34361 0.412028 -0.0296065 1.24807
486 1 1.5477 8.62086 9.31979 0.977965 1.0282 -2.17159
487 1 3.74142 2.99739 0.414111 -0.0159132 0.166815 0.159082
488 1 1.34248 8.40979 7.25096 -0.15114 -1.87014 -0.966803
489 1 9.27272 5.6945 2.64291 0.430791 0.0372775 0.00689022
490 1 1.84311 8.81849 8.38308 2.29464 0.502539 0.735966
491 1 2.69674 7.0574 3.55953 0.875065 -0.596232 -0.141309
492 1 5.88972 4.56828 2.50585 0.118961 -0.0777161 0.356569
493 1 6.03835 2.70784 8.63765 -0.740686 -0.638395 0.504021
494 1 0.908636 3.40852 7.50397 0.161488 0.100394 1.08283
495 1 6.66404 8.65931 3.62072 0.328795 -0.0950346 -1.28783
496 1 6.72186 0.215126 3.40518 0.149397 0.287931 -0.337118
497 1 6.78783 4.55807 4.72681 0.484259 -0.0734405 -0.0564839
498 1 7.37226 9.18623 3.74888 -0.276405 1.27931 -0.844525
499 1 5.76625 7.43552 5.85818 -0.23653 0.392898 1.0395
500 1 4.59172 5.24449 7.80493 -0.266996 0.0191842 0.683458
501 1 8.83137 3.83874 2.60054 -0.619232 -0.558578 -0.0481727
502 1 8.46395 0.500782 4.66415 0.564946 0.575675 -0.0628005
503 1 5.17391 7.31379 5.13542 0.131027 -0.268939 -0.0466958
504 1 6.09828 1.47496 3.71543 -0.820782 -0.68282 0.516593
505 1 0.239003 2.97896 8.19449 0.72508 0.0443818 -0.464141
506 1 1.99308 3.94831 5.374 0.737851 0.37573 0.190496
507 1 1.14534 8.271 5.73745 1.65044 0.118134 -0.80691
508 1 7.164 1.30259 1.09524 -1.37218 -0.152412 -0.380224
509 1 7.3399 4.02318 2.55342 -2.09252 0.0793642 0.749413
510 1 8.18469 2.61979 0.83651 -0.0620912 -0.113813 0.348283
511 1 7.52206 2.87076 1.4601 -0.621042 -0.112304 0.51277
512 1 0.728782 6.55633 3.54697 1.08198 -0.470842 -0.764273
513 1 8.66556 8.52299 3.15922 1.67356 0.809702 0.429776
514 1 4.51417 2.24135 4.9714 -0.381488 -1.11972 -0.953852
515 1 2.24343 5.82249 2.40568 0.4455 -0.354944 -0.20729