ITEM: TIMESTEP
32850000
ITEM: NUMBER OF ATOMS
1000
ITEM: BOX BOUNDS pp pp pp
0.0000000000000000e+00 9.4000000000000004e+00
0.0000000000000000e+00 9.4000000000000004e+00
0.0000000000000000e+00 9.4000000000000004e+00
ITEM: ATOMS id type x y z vx vy vz
1 1 0.855164 7.8192 2.02019 0.217028 -0.21794 -0.681391
2 1 3.56787 3.21847 0.641299 -0.478653 0.629587 1.88898
3 1 7.86962 3.0264 1.41538 -0.910929 0.203068 -0.213968
4 1 2.3292 0.318676 1.67424 -0.112023 0.477607 -0.797727
5 1 5.38696 1.42719 4.76456 0.798052 -0.69289 1.25205
6 1 1.28485 6.25107 1.66601 -0.0856907 0.143623 0.119447
7 1 6.96777 5.542 7.18386 -1.42456 0.673238 0.958494
8 1 4.27484 5.19656 3.85194 0.019394 -0.299925 0.372592
9 1 3.0416 0.404054 7.11397 -0.53793 1.5352 -0.31184
10 1 5.61386 6.94172 3.19289 0.924104 -1.52378 1.09868
11 1 0.231233 6.66993 2.97287 0.516406 -1.19982 0.26351
12 1 9.38413 1.98539 2.38837 -0.152565 -0.41484 0.713077
13 1 6.24568 1.51696 6.14294 -0.520942 0.0372308 0.41415
14 1 7.17945 0.676744 0.286392 -0.175396 -1.72202 -1.43089
15 1 5.70483 5.97266 6.63234 -0.502406 -0.151066 -0.727523
16 1 7.32961 3.38908 0.426167 1.07262 -0.958481 -0.481682
17 1 0.390177 7.02648 5.44192 -0.676546 0.0473083 -0.0858192
18 1 5.52574 8.69462 0.820851 0.794349 -0.248031 0.168498
19 1 9.31534 7.92074 4.53688 0.937083 -0.879587 -0.380687
20 1 4.68503 0.601273 2.33304 -0.238437 -0.0063199 1.05973
21 1 6.85179 1.68475 2.07065 1.10213 0.616993 -1.26076
22 1 7.99237 1.74074 1.62005 0.406352 0.185025 0.266301
23 1 3.18862 7.44834 2.04563 -0.0212252 0.474231 0.314148
24 1 2.37173 4.67244 0.767104 -0.702724 -0.635749 0.0645731
25 1 3.26263 0.655841 8.05361 -1.44441 0.227512 -0.801185
26 1 0.593225 5.4454 0.0178563 0.0360949 1.44735 -0.0147113
27 1 7.85542 8.11996 8.34647 0.151679 0.526517 0.6588
28 1 1.0339 6.77192 6.0962 0.452395 0.651169 -1.06935
29 1 1.17607 5.33197 1.4432 0.0085417 -0.358472 0.209889
30 1 2.24941 4.90718 1.70542 -0.174809 -0.831554 0.453511
31 1 8.34089 0.861489 6.63882 0.768307 -0.107097 1.06857
32 1 4.85644 1.44525 5.76651 -1.63252 0.0508725 -0.976388
33 1 4.53975 0.22306 4.36706 -1.22681 -0.463345 0.0513654
34 1 2.33837 4.39358 4.60153 0.568821 -1.03104 0.127951
35 1 6.36312 4.36254 7.7915 0.314632 -0.794282 1.3379
36 1 4.0307 8.68113 0.822191 0.925488 -0.66491 0.86206
37 1 8.97467 4.61582 5.1386 1.3707 1.46689 0.0758537
38 1 3.35896 6.55873 9.23314 0.357055 -0.213778 -0.73537
39 1 8.16468 0.185395 2.26819 -0.236429 -0.505584 -0.0875874
40 1 3.78089 4.30186 8.42469 -0.0224187 -0.747669 -0.419301
41 1 2.56108 9.38665 5.19418 0.278473 -0.636484 1.0311
42 1 1.37753 2.51411 7.87036 0.625437 -0.213804 0.340459
43 1 4.92511 7.79199 3.87629 0.816957 1.09377 0.667933
44 1 2.24182 0.631149 5.64569 -0.166095 1.12091 -0.0472689
45 1 5.71181 9.24314 2.0455 -1.10442 0.767363 -0.27008
46 1 6.53782 4.16207 3.08834 -0.305686 -0.690691 -1.31147
47 1 5.4748 5.2443 7.81207 -0.0583583 0.22216 0.346005
48 1 0.328165 8.59809 8.20885 1.39723 0.238162 -0.911433
49 1 8.79454 7.41693 2.71445 0.871833 -1.07783 -0.948343
50 1 2.67414 7.25121 6.03125 0.00671793 0.3397 1.23594
51 1 2.31492 8.4933 0.731113 -0.0627726 0.881535 0.287761
52 1 4.45712 0.224499 7.00806 0.368662 -0.415877 -0.497588
53 1 8.68473 3.89362 9.0366 -1.5928 -1.14192 0.0411615
54 1 1.30341 3.88476 5.99621 0.672939 0.0734453 1.0287
55 1 1.35269 9.25802 1.74636 0.594599 -0.110507 -0.818368
56 1 1.58216 5.92804 6.79183 0.907631 -0.27901 0.223529
57 1 2.85234 6.14585 1.3921 0.415257 1.00285 -0.0786796
58 1 0.144912 8.27135 0.754711 0.464742 0.188625 0.572412
59 1 0.925999 1.32431 2.52362 0.462455 -0.00583696 -1.31596
60 1 0.229252 3.52721 8.89339 0.000983305 -0.490889 0.522688
61 1 8.23758 3.42837 4.89704 -0.602534 -0.593331 -0.768488
62 1 7.50449 9.23803 0.557209 -0.0367096 0.547009 -0.201061
63 1 8.95944 3.02308 1.94477 0.989391 -0.596109 0.304928
64 1 3.70986 0.430964 4.04987 0.239762 -0.497756 0.19786
65 1 3.32838 5.36246 3.76427 -0.108745 -0.511558 -0.803637
66 1 2.77541 9.24341 7.84093 1.36009 0.8236 -0.473919
67 1 8.00854 3.51478 3.37803 -1.11884 -0.504251 0.579045
68 1 9.27133 4.40314 3.38124 -0.0201349 0.259362 0.0492106
69 1 6.1863 8.55533 4.01944 0.373195 -0.348692 -1.15361
70 1 1.11822 0.767484 1.06144 -0.295777 -0.393756 -0.356361
71 1 8.28625 5.56475 3.24673 0.289065 1.63183 -0.51405
72 1 3.95801 6.20634 8.65263 -0.735393 0.934163 0.366184
73 1 7.19489 1.1655 4.7713 -0.11115 0.954631 -0.0751521
74 1 6.12696 7.49701 1.18881 -0.396388 0.0831201 1.92108
75 1 0.442572 3.94847 5.30835 -0.982997 0.46185 -0.538924
76 1 5.74322 1.87634 1.90807 0.0315543 0.82261 -1.73618
77 1 7.63159 4.17673 1.45473 1.31398 0.551859 -1.17649
78 1 4.52211 2.94738 8.60367 -0.0300158 -0.262978 2.58063
79 1 4.20197 2.04276 5.65932 0.692681 0.0564236 0.979295
80 1 6.83164 6.14224 8.00472 -0.225588 0.523458 -0.0500894
81 1 1.7947 0.719471 3.71618 0.318215 0.856325 -0.919686
82 1 0.332544 0.185677 7.46236 -0.277768 -1.18418 -0.670857
83 1 6.41652 1.64061 5.20064 0.0912259 -0.388635 0.486937
84 1 3.82944 5.79191 3.25884 1.36748 1.11445 -0.28979
85 1 5.64872 1.70518 8.51368 -0.680734 -0.731351 -1.13182
86 1 7.35866 4.89795 5.20637 -1.59601 -1.63174 -0.645756
87 1 0.520903 4.95526 8.5631 -0.825518 -0.459902 -0.591916
88 1 8.14746 3.38065 0.155401 -0.769344 1.33534 0.789297
89 1 7.5321 7.14558 4.86119 0.0614563 0.2431 0.542239
90 1 0.40952 0.334879 0.184665 1.25842 0.434752 0.576926
91 1 1.37586 2.18905 2.44572 -0.992013 0.532234 -0.357331
92 1 6.04251 7.66736 6.11238 -0.323586 0.283969 0.88642
93 1 5.27229 1.76209 6.58372 1.33014 0.357483 -1.25347
94 1 2.80786 6.27639 5.93024 -0.560685 1.24541 -0.404632
95 1 4.46122 3.76849 7.57159 -0.212012 -0.622784 -0.259761
96 1 1.89522 8.88195 4.80373 -0.28155 -2.0825 -0.26558
97 1 4.44222 2.90584 4.44059 0.782498 1.50865 -0.927351
98 1 5.03148 7.73429 9.35169 0.0169884 -0.105581 0.706361
99 1 9.27439 6.56726 4.69203 -0.546641 -0.854974 0.270161
100 1 0.623374 0.850866 5.11979 0.950056 -0.207386 -1.1555
101 1 7.24902 5.07601 6.14813 -0.68558 0.488491 0.739314
102 1 8.6975 3.88698 1.77649 1.87505 0.618533 -1.45041
103 1 6.72185 4.05644 0.916288 -0.204849 -0.270354 0.896392
104 1 3.58685 6.0372 6.29679 1.30093 -0.267596 -0.369124
105 1 4.64044 2.88449 7.73917 -1.04195 -0.423148 0.673686
106 1 3.09977 4.58762 4.20891 0.827107 -0.259597 0.368776
107 1 9.25235 2.23608 3.60586 -1.1143 -0.727681 0.643119
108 1 2.16636 1.26772 8.89751 -0.926204 0.573791 -0.0962984
109 1 2.93378 3.08299 8.09968 1.13658 0.457411 0.276805
110 1 5.69494 0.756391 8.07328 -0.745285 -0.765785 -0.648158
111 1 1.22118 4.53463 9.05713 -0.686801 -0.0750648 -0.0390666
112 1 1.46015 8.19124 3.43562 0.263899 -0.993845 0.322798
113 1 5.33509 3.46751 7.78459 -0.554804 0.870151 0.242128
114 1 5.16569 6.5113 9.14197 -0.422563 0.00949898 -1.54638
115 1 5.62459 4.19019 3.62968 0.194021 -0.123914 -0.405806
116 1 6.4405 3.95845 4.05266 0.170106 -0.190548 -0.376723
117 1 0.251527 3.57952 1.38773 -0.461531 -0.231928 -0.321564
118 1 3.83601 3.22108 6.25595 -0.511863 -0.761724 0.728476
119 1 0.516778 8.75101 4.7941 0.442941 1.24556 0.0346433
120 1 9.29126 0.992491 4.20476 -1.34444 -0.817243 -0.125968
121 1 5.19848 4.34098 7.3066 -1.07433 0.594428 -1.18872
122 1 6.45181 2.24442 3.62257 -1.24095 0.627288 -0.36179
123 1 7.96875 7.40809 9.24522 -1.6632 -0.26508 -0.853836
124 1 9.02811 2.92961 0.0684996 1.75759 0.41339 0.362897
125 1 8.46686 0.945119 8.14512 0.625606 -1.06596 -1.35553
126 1 2.17802 2.8745 2.23137 0.053406 0.944626 -0.730735
127 1 7.4914 6.4921 7.34084 0.490532 -0.924101 0.548742
128 1 4.90911 4.5423 4.50096 0.154433 -0.294279 -0.613965
129 1 0.965744 1.93394 0.699206 0.533736 0.11645 -0.46096
130 1 8.67011 1.6898 4.19943 -0.209385 -0.76855 -1.06838
131 1 4.17112 4.18393 3.87875 -0.492111 0.513998 0.0101234
132 1 6.15846 1.53181 2.70323 1.26021 -0.0496325 -0.592175
133 1 3.57044 4.9426 0.466193 -0.783478 -1.05333 1.24637
134 1 3.22271 1.75144 1.81721 -1.28229 0.600279 -0.672337
135 1 3.64371 1.52566 2.64824 -0.27696 2.18798 0.274526
136 1 4.68682 4.13471 2.09305 -0.382478 0.310993 -0.504569
137 1 7.79692 7.04247 8.15602 -1.29019 -0.112788 -0.011919
138 1 1.13535 7.13275 1.15339 -0.418659 -0.241678 -0.9022
139 1 5.75792 8.26276 0.047107 -0.904435 0.358584 1.43107
140 1 6.33383 5.10339 3.35111 -0.132751 -1.80199 -0.83997
141 1 1.20819 5.01193 8.01995 -0.698196 -0.602482 -0.343293
142 1 6.60807 8.44793 4.91888 0.870193 0.355789 0.413782
143 1 7.05112 6.50512 8.92887 -0.548491 -0.780943 -0.328239
144 1 1.78337 9.00784 9.38154 0.923058 0.44571 -0.112576
145 1 1.58516 1.01999 1.82453 0.451429 -1.48378 -0.212947
146 1 0.239653 1.77386 6.74984 -0.106943 -0.850651 0.0991339
147 1 1.69993 7.24755 6.8322 1.37304 0.109575 0.541489
148 1 8.02764 5.08394 6.93908 0.433695 0.223671 0.477372
149 1 4.80533 2.08102 1.40738 -2.37441 1.08047 -0.494858
150 1 5.70519 2.59487 8.16928 -0.232183 -0.305559 1.63624
151 1 2.55111 5.48621 6.50023 -0.566769 -0.768838 -0.0369489
152 1 6.41806 4.42857 8.67764 -0.39361 0.144977 -0.229032
153 1 4.19557 7.59035 4.38316 -0.36521 -0.54304 1.14568
154 1 6.14994 3.35948 7.42597 -0.676032 -0.0387268 0.800127
155 1 4.75321 6.49255 8.2998 -1.16376 -0.655359 -0.386588
156 1 0.248622 6.9983 6.46101 -0.338026 0.328774 -0.115176
157 1 6.06523 9.18865 7.74986 0.175453 0.666912 0.741052
158 1 5.6602 1.00312 0.587045 2.06805 -0.755756 -0.0657402
159 1 3.36875 0.421983 5.04902 -0.444315 0.431637 -0.331792
160 1 4.15236 9.23402 2.4963 0.208635 -1.37337 0.152409
161 1 8.7607 5.1977 1.6647 0.20245 1.35361 -0.74266
162 1 7.28997 0.87596 7.00368 -0.704586 0.291484 1.15731
163 1 0.308875 5.77842 1.02062 1.30273 0.649578 0.152405
164 1 0.691653 5.93196 7.08219 0.0998134 1.34235 -0.916491
165 1 5.30905 3.45998 2.19155 -1.41521 -0.117368 -0.355262
166 1 4.93175 3.19562 0.210421 -0.955663 0.211378 -1.15794
167 1 3.82233 9.19903 7.66774 -0.205795 -0.0775402 -0.713171
168 1 6.81084 5.63481 5.45008 3.10901 -0.62351 0.48379
169 1 2.0939 0.194806 7.14449 -0.205093 1.5475 -0.874016
170 1 3.31632 8.3376 9.31644 0.76899 0.270767 -0.341499
171 1 3.88033 8.25554 5.57141 -0.570201 -1.37535 0.308432
172 1 3.0783 2.33641 0.602833 0.957629 1.30183 0.688081
173 1 1.5187 3.88429 2.70023 -1.04741 0.0865949 0.079158
174 1 0.927939 1.78549 7.66863 0.152565 -0.310172 -0.107613
175 1 4.41309 5.43229 1.02548 -0.762345 0.620636 -0.390065
176 1 2.9647 4.7308 9.21979 1.01071 -1.29021 1.36644
177 1 2.34313 9.39174 0.607454 0.656951 0.529157 0.264287
178 1 5.88778 7.35568 2.49247 -0.271404 -1.40009 0.281525
179 1 2.16671 8.57418 4.01266 1.5546 1.81086 1.3935
180 1 5.33265 1.96596 2.82332 0.310442 -1.97344 -0.0680193
181 1 0.555801 7.30407 4.53522 1.94724 -0.313006 -1.00219
182 1 2.73344 0.504053 8.80314 1.75501 -0.237941 0.720454
183 1 3.3252 2.7877 3.66766 0.965943 -1.18734 -0.814667
184 1 1.12202 1.86382 5.23784 -0.470856 -0.131902 0.612097
185 1 4.52508 6.55214 6.79529 0.632247 0.121649 -0.455402
186 1 7.33816 0.386753 4.16476 -1.77024 -0.394868 0.710046
187 1 0.450698 8.06232 9.02699 -0.543344 0.167173 1.24363
188 1 9.22579 7.97923 6.02424 -1.43858 -0.40576 0.819617
189 1 6.23011 4.09172 6.62936 -0.0966658 0.539106 1.0812
190 1 7.30386 2.02119 1.21412 -1.333 -0.215848 0.518482
191 1 0.728549 2.97332 2.88129 0.354622 -0.271287 -1.61043
192 1 0.552559 4.73779 1.28996 1.23635 -0.513397 0.342675
193 1 6.47935 3.5167 4.90077 1.05933 -1.01408 -1.13193
194 1 6.25642 0.609829 0.0898083 -0.589752 0.462729 0.414303
195 1 5.13646 0.000921226 2.83662 1.10865 -0.59543 0.560536
196 1 9.03816 7.42668 0.557407 -0.694227 0.102129 0.857304
197 1 8.68882 1.40938 0.919446 0.782683 -0.152067 0.987947
198 1 3.83092 0.672855 1.25773 0.0905739 0.642211 -0.544699
199 1 2.5537 8.78207 3.04735 -1.30735 0.000451643 0.989615
200 1 2.2047 3.70857 1.40249 0.638915 0.435384 -1.33402
201 1 3.05871 7.17908 7.38101 0.759653 0.33242 0.42691
202 1 9.36408 2.99583 6.84285 1.26496 1.75917 0.428457
203 1 9.06889 1.23609 2.01147 0.344434 -0.374473 -0.168464
204 1 0.643033 0.473554 2.85026 0.566878 0.671613 -0.473231
205 1 9.32097 6.82781 2.14681 -0.277302 0.196601 -0.627726
206 1 6.54174 7.01499 3.7499 -0.191231 -0.419454 -0.4757
207 1 8.5888 8.6223 3.74916 -0.392448 0.038372 -0.507398
208 1 4.25776 3.28166 3.51018 -1.74024 0.050003 -0.344615
209 1 5.63913 5.7091 1.4968 -0.127927 0.187447 1.83345
210 1 0.233467 4.77336 7.44481 -0.710969 -1.73866 2.30506
211 1 7.10766 5.57425 2.13688 0.142317 0.375594 0.335679
212 1 3.91777 5.18258 8.40598 -0.567824 0.307225 0.36844
213 1 5.64788 6.31356 8.0861 -1.14646 -0.71951 0.191583
214 1 4.50432 1.57071 3.1745 0.268896 0.486291 1.11851
215 1 8.09754 4.89664 3.75363 -0.137333 -0.191984 -0.00652551
216 1 6.26587 3.51424 2.1687 0.159072 -0.382207 0.275306
217 1 8.82743 2.77425 2.95009 0.336127 1.02578 -1.2802
218 1 0.299189 3.55358 0.368896 -0.36478 0.679286 -0.856303
219 1 2.11638 1.99262 0.624317 -0.835218 0.433412 -0.406499
220 1 1.80091 9.19884 3.33227 0.210479 1.44001 -0.40573
221 1 5.34875 7.82518 0.924791 -0.184352 0.737365 -0.043328
222 1 8.26625 8.5334 7.3822 0.34068 -0.936047 0.829491
223 1 2.28802 5.8626 2.03098 -1.00777 -1.07785 -0.62528
224 1 8.66152 0.0873879 7.34574 1.16192 -0.0333386 1.10759
225 1 4.04989 8.68856 4.6573 -0.523879 0.308028 0.130899
226 1 7.80691 7.49682 2.36217 -0.507363 -0.81526 -0.417365
227 1 4.03836 7.26376 7.28936 -0.340539 0.548191 -0.77878
228 1 3.41522 6.82275 5.67072 -0.491004 0.693 0.28871
229 1 1.5401 6.25779 3.59689 0.588643 0.282408 -1.24038
230 1 4.28901 7.86066 6.26039 -0.719168 -0.334048 1.54227
231 1 3.56381 0.689082 3.03796 0.895666 -0.209886 -0.814032
232 1 5.50309 6.82909 6.93507 -0.429315 1.07939 0.33586
233 1 7.7646 4.08384 4.07115 1.32606 0.485686 0.793714
234 1 4.59333 2.98221 1.37259 0.706812 -1.17162 -0.215062
235 1 1.97561 3.33512 7.67746 -0.221106 1.05532 0.706222
236 1 2.7396 1.43509 5.27709 0.174809 0.741742 -0.512448
237 1 7.73787 3.95839 9.04462 -0.443054 -0.121398 -0.466707
238 1 8.51206 0.0687377 8.81035 -0.731863 -0.533974 0.385284
239 1 2.36297 7.85832 6.93545 -0.12513 0.652069 -0.496236
240 1 4.87007 1.47129 2.20596 -0.767532 -1.30487 -0.350386
241 1 6.83672 7.0768 1.94147 -0.291889 1.32093 1.48229
242 1 6.44607 8.68635 6.79624 -0.396033 0.103353 -0.367875
243 1 0.691633 3.25842 7.6029 -2.02646 -0.203037 -0.353506
244 1 5.14169 8.20324 6.60345 0.143703 0.666404 -1.06622
245 1 8.23865 4.68895 5.67236 0.382076 -0.0251053 -0.14016
246 1 5.17726 0.126545 7.5781 0.30953 -1.191 -0.0212549
247 1 0.209138 0.963339 8.83795 0.338465 -0.117001 1.04517
248 1 0.918599 8.56977 5.9617 1.76849 -0.0249338 -0.108467
249 1 7.72749 1.5743 3.90892 -1.05534 0.0120436 1.03043
250 1 0.566321 5.58051 2.12317 -0.0757082 0.817871 -0.974956
251 1 7.2114 8.30608 9.38648 0.446442 -0.56859 -1.55413
252 1 8.98052 4.86744 4.25046 0.316487 -0.456606 -0.578981
253 1 5.66306 1.77721 0.988307 -1.20788 0.545568 -0.611245
254 1 0.0114892 9.25254 8.83713 -0.0089205 0.281419 -0.21072
255 1 4.00331 1.31147 7.87575 -0.723162 -0.874868 0.582755
256 1 6.52873 3.62061 5.89092 -0.796817 1.26957 0.720389
257 1 7.24699 4.61557 7.89018 -1.34122 0.125768 -0.258007
258 1 1.42941 8.5677 1.04573 0.663106 1.04956 -0.727178
259 1 1.82844 1.87444 1.56045 -0.16906 -1.57282 0.993749
260 1 1.77792 5.15605 4.80553 1.20056 0.598183 0.20286
261 1 1.69192 6.89691 8.30845 0.972901 -0.0211664 -0.666494
262 1 7.54521 6.07469 6.51121 1.04535 -1.25879 -0.382344
263 1 4.74741 1.93246 0.526025 1.50437 0.353531 -0.293703
264 1 7.62184 2.44831 6.20161 0.817191 0.145009 0.047015
265 1 7.87963 4.21256 6.58737 -0.736353 0.328269 -0.234076
266 1 2.49566 9.26001 6.32308 -0.639539 -0.539223 0.381121
267 1 4.7718 8.6235 1.33253 -1.60838 1.09406 -0.0494445
268 1 0.895154 7.12605 8.96793 -1.8961 0.26283 0.818274
269 1 4.87478 6.68855 4.25687 0.653541 0.93101 -1.26997
270 1 1.30063 4.81333 2.12867 -0.250982 -0.782021 0.655099
271 1 4.90399 7.16488 7.65878 0.757085 1.66973 0.888526
272 1 0.989194 5.50738 4.1823 0.0794778 -2.06138 0.30629
273 1 6.84912 8.04519 1.51911 -0.588964 -1.02676 1.19155
274 1 8.16487 5.12263 0.0462035 -1.09373 0.543135 -0.901501
275 1 2.73811 6.57621 8.06608 -0.443881 -0.190491 0.408723
276 1 4.36569 8.32955 7.29763 1.42078 -0.0730771 -0.138631
277 1 3.78042 6.75923 3.69312 -0.825821 0.653748 -0.908358
278 1 1.5665 6.66568 0.201414 -0.839964 0.131597 0.0174779
279 1 0.171608 2.41885 6.06193 -1.30786 0.542783 1.20088
280 1 1.91084 1.0964 2.68061 0.241216 0.718105 -0.56969
281 1 1.95477 6.57898 6.16075 -0.583559 0.102519 -0.12943
282 1 6.43427 2.22274 1.27605 -0.927057 -0.499088 -0.823464
283 1 8.95051 1.95937 8.67737 -0.00181691 -0.174083 0.770035
284 1 4.50116 5.99641 0.240422 0.880606 -0.413964 -1.06872
285 1 3.20992 5.57193 2.61912 -0.392906 -0.0484232 -0.0382057
286 1 2.06572 2.59062 8.51122 0.172083 1.66351 1.33153
287 1 5.5134 5.76899 5.7452 0.524753 0.361552 0.490466
288 1 4.31369 2.0903 7.17633 1.40198 -0.39793 -0.640465
289 1 8.78656 8.95837 1.98487 -0.923137 -1.65341 -0.691834
290 1 8.54283 1.86513 3.2027 0.957089 -1.06901 0.107722
291 1 7.94206 9.27153 3.70138 0.524409 0.434351 0.223033
292 1 2.95612 1.60829 6.76304 0.203012 0.314392 0.217561
293 1 3.95039 1.38165 5.21037 0.152287 0.906829 -1.21905
294 1 0.648607 2.12076 3.19652 0.088563 -1.68929 1.5879
295 1 7.47759 2.99295 4.31395 -0.347979 -0.535408 0.0499502
296 1 4.577 0.041845 0.591297 -0.766259 0.131831 -0.492767
297 1 2.03866 1.48507 8.02079 1.06215 0.988346 0.725647
298 1 2.08604 2.20825 5.05226 0.0425503 -0.874806 1.01966
299 1 9.23192 3.50203 5.93727 1.20845 0.234424 -0.602812
300 1 7.61053 4.27716 3.15229 -0.251719 -1.28785 -0.116335
301 1 0.25533 7.59607 1.42706 -1.12829 -1.18887 0.955466
302 1 3.59618 0.714146 0.0506996 0.142608 0.395531 -1.42482
303 1 2.60903 0.916604 4.36115 0.250255 -0.416792 1.17133
304 1 0.844513 8.14236 4.1664 0.320314 0.795193 -0.893969
305 1 1.07682 0.366587 8.79281 -0.412994 -0.136971 -0.401891
306 1 1.21224 2.73412 4.83425 -0.252372 -1.16341 0.943233
307 1 6.58111 9.204 5.60605 -0.723384 0.421778 -0.565349
308 1 4.11837 7.69503 3.36942 -1.98364 -0.559516 0.45882
309 1 2.89211 9.30068 2.37243 0.000192774 2.34597 0.495532
310 1 8.41211 7.12406 1.80638 0.58132 1.04702 -0.488066
311 1 4.34858 0.351838 8.10137 0.0512535 -0.718267 -0.247861
312 1 7.06515 2.06122 4.21678 0.0111771 0.78554 -0.298019
313 1 1.30385 8.18333 5.26398 -0.535541 -0.588802 -0.623879
314 1 8.59215 0.341852 3.0664 0.365468 -0.477594 0.031982
315 1 4.28533 7.73237 2.57121 0.100423 0.0794022 0.658773
316 1 2.53672 4.352 7.35417 1.71178 -1.29381 0.410249
317 1 1.92543 4.6895 6.58162 0.995512 -0.188632 0.779988
318 1 7.19378 1.95693 7.1015 1.3782 -0.716211 -0.904434
319 1 7.7926 1.23871 0.940757 -0.687498 -1.527 -0.516286
320 1 9.35709 6.96991 9.03684 1.23547 -0.226419 -1.96021
321 1 7.15807 3.47205 3.69021 0.535528 0.641675 0.19176
322 1 0.836797 4.03934 8.18556 0.271953 -0.146482 -0.801042
323 1 1.40295 8.65714 2.58453 -1.5474 1.52137 1.41214
324 1 8.74434 2.94495 8.64937 0.0586382 0.185327 0.441511
325 1 0.765156 4.75569 4.68425 -0.658951 -0.166721 -0.436553
326 1 6.57121 6.16664 6.53194 -0.381019 -1.46535 0.343866
327 1 4.45563 5.58554 7.90042 -0.0303414 -0.167438 -1.20749
328 1 7.1715 4.10432 5.5347 0.27084 1.01511 0.000711569
329 1 7.70981 2.53968 0.616703 -0.473346 0.489446 -0.186556
330 1 2.20766 0.0947738 4.20152 -0.227175 0.152015 1.44801
331 1 6.76907 1.31634 0.738621 -1.04082 0.858365 -1.05929
332 1 5.72477 3.22422 3.83315 -0.179666 0.49349 -1.85606
333 1 1.64542 7.80922 4.1795 -0.627944 -0.00743433 0.0784107
334 1 7.46409 2.504 2.10114 -0.344148 -0.845078 0.148119
335 1 6.61859 2.67787 5.19069 0.645614 0.302733 0.267419
336 1 7.29269 2.26284 8.03105 -0.181657 0.466692 -0.230098
337 1 3.71109 2.07534 4.48757 -0.00930939 0.145743 0.865644
338 1 1.49406 9.31417 6.136 -0.965247 1.08568 0.130755
339 1 3.46714 7.80401 6.7263 0.131956 -1.74247 0.0489108
340 1 3.21118 8.46507 4.8445 -0.375055 -1.67791 0.419013
341 1 6.30936 0.206784 8.58411 1.11461 -2.02897 0.953269
342 1 1.69281 7.55084 2.90378 0.567535 -1.37852 -0.35103
343 1 7.53049 7.15711 6.75493 0.7589 -0.606669 -0.886131
344 1 3.65159 6.81674 1.33549 0.0653012 0.740129 -0.418243
345 1 3.14483 2.82612 4.66563 -0.618857 0.0332242 -1.09244
346 1 0.805448 0.811336 6.98781 -0.406133 -0.295402 -0.57395
347 1 6.96959 8.35473 8.51841 0.941289 0.348082 -0.247199
348 1 4.48631 8.826 6.24305 -0.0109064 -0.215896 0.321447
349 1 6.48598 3.02613 4.18495 0.0657341 1.23309 -0.142759
350 1 3.91813 6.22337 2.23114 -1.39159 0.204005 1.35137
351 1 7.39914 2.22788 5.11878 0.0942562 0.595633 -0.454552
352 1 5.881 7.7174 7.04026 0.486184 -0.32192 -0.926745
353 1 4.11516 6.79247 0.517512 -0.129958 0.69382 0.394854
354 1 1.19835 3.38991 0.856686 -0.781674 0.682833 -0.0711542
355 1 8.93714 8.43722 8.90791 0.785592 0.693769 -0.519976
356 1 2.75089 7.02713 1.26864 0.994061 -1.10523 0.637019
357 1 8.09064 5.68322 2.28552 0.364348 0.426519 -0.602417
358 1 5.82767 8.51079 3.14029 1.0857 -0.804971 -0.245547
359 1 5.74729 7.32484 0.266806 -0.990676 0.165826 0.331453
360 1 0.405456 2.71397 2.08285 1.30018 -0.237272 -0.0813988
361 1 6.54213 0.453768 2.03789 -0.0352671 -1.02639 -0.417325
362 1 8.94161 0.691436 5.83273 -0.0220725 0.479849 0.604093
363 1 5.65906 5.83884 2.96743 -0.262425 0.161254 -0.360578
364 1 3.02665 9.23243 4.21525 -1.32062 -0.796094 0.454173
365 1 8.55128 6.9714 4.11871 1.29443 -0.150376 -0.718412
366 1 0.759172 7.81604 6.46373 0.0651791 -1.17258 1.26028
367 1 9.17344 4.342 8.14611 -1.25878 -0.90133 -0.199653
368 1 5.59058 6.58859 1.03577 0.740666 1.36389 0.0970352
369 1 5.14498 9.23922 6.65271 0.887329 -0.00842393 -0.585163
370 1 0.377531 9.24292 2.32352 -0.271795 0.113411 -0.465386
371 1 8.62554 0.0507653 4.21127 0.699399 -0.038957 0.261059
372 1 8.87635 6.92759 5.52776 -0.15094 -0.41336 0.245919
373 1 1.35706 5.07829 0.490779 1.28462 0.241837 0.869809
374 1 4.31562 9.07286 3.62712 0.0671028 0.0122121 -0.21988
375 1 0.643599 0.920952 3.68309 0.559889 -1.44775 0.82475
376 1 6.31385 2.32622 7.55583 0.369308 -0.322954 0.912524
377 1 5.85989 2.5521 2.50421 0.302301 0.300965 -0.700215
378 1 6.51136 7.79161 3.154 1.40596 -1.57295 -0.728145
379 1 7.21141 8.50613 4.03794 -0.265476 1.07895 1.19148
380 1 0.509115 8.87168 6.65816 -1.68518 -0.994133 0.743029
381 1 5.23875 8.70443 4.23158 -0.378063 -1.03035 -0.988713
382 1 7.30966 3.35271 6.30719 -0.509043 1.20649 0.360611
383 1 4.28383 2.00666 8.48147 0.225545 0.987488 -0.185602
384 1 2.80627 8.30042 5.6879 -0.617009 -0.227376 0.17101
385 1 2.28476 7.80465 5.06736 0.252682 1.33144 -0.260479
386 1 7.21883 7.54511 8.62863 -0.854699 0.963858 -0.282399
387 1 0.562608 7.71509 3.16493 0.795401 -1.79374 -1.24582
388 1 9.39395 7.74924 8.24454 8.8402e-06 -0.258822 0.567968
389 1 4.7037 6.39418 1.1756 -0.351006 -0.273077 -0.314253
390 1 6.9166 1.09246 8.99728 0.510903 0.114662 -0.770402
391 1 9.15598 8.67504 7.43319 -0.831385 0.434482 -2.11006
392 1 4.18146 7.06553 6.12017 -0.702435 -0.867984 0.180388
393 1 6.43166 8.1965 0.720734 0.184384 -0.556311 0.0285639
394 1 5.93036 1.44732 3.59457 -1.13762 0.748917 -1.48551
395 1 4.79609 1.11268 1.28883 -0.00313944 0.131678 0.225283
396 1 6.83113 7.68085 6.81107 -0.521732 -0.729634 -0.836855
397 1 6.2352 7.87794 8.75339 -1.75817 0.287153 -0.744116
398 1 7.74182 5.83023 5.4625 0.735549 -1.53409 -0.854312
399 1 4.79073 1.29149 8.69099 -1.11476 -1.85479 -0.597169
400 1 3.64065 5.734 1.57775 0.916237 -0.48583 1.09076
401 1 8.83488 6.33055 3.40868 0.326165 0.650715 1.3199
402 1 7.01063 9.15169 8.92878 0.0354872 0.602739 -1.03671
403 1 5.22923 5.29197 6.8352 -0.765497 0.0867816 -0.13021
404 1 4.78508 4.41551 5.40835 0.234106 -0.110653 1.00409
405 1 2.93306 2.10115 3.328 0.0591337 0.421435 0.0274248
406 1 3.92158 3.86035 1.55613 -0.293249 1.38465 -0.454862
407 1 9.08232 3.44632 4.96797 1.21267 -0.0548733 0.579804
408 1 5.79196 7.34416 7.84041 0.35312 -0.892507 0.464123
409 1 8.03887 2.44417 7.0175 1.2303 -0.230433 0.160218
410 1 4.96836 3.68067 3.96074 1.69656 -0.248804 -1.6508
411 1 9.27717 4.46313 2.37962 0.470801 -0.329539 1.30687
412 1 7.66916 4.84155 2.06614 -0.111333 -0.272711 -1.4929
413 1 2.03941 6.17788 4.30979 0.677641 1.95961 -0.138028
414 1 3.68847 9.18687 1.54498 -0.722591 0.730164 -0.0604543
415 1 0.750684 3.74229 3.39887 0.275914 -0.492124 2.18837
416 1 8.4074 2.13649 2.25536 -0.551261 -1.14716 0.341919
417 1 9.2269 1.84633 5.07883 -2.33684 -0.725173 -1.59668
418 1 4.56773 5.725 1.88604 -0.0902783 -1.09065 -0.0685729
419 1 2.65362 6.45733 6.83311 1.7501 -0.670991 -0.0794625
420 1 7.59413 0.400838 5.93718 -1.604 0.118412 0.265201
421 1 8.23698 8.84427 0.556842 -0.184749 1.16739 -0.341457
422 1 9.19784 2.13079 1.32662 0.603779 -0.130845 -0.100109
423 1 8.33198 7.66669 6.65673 0.803141 0.930845 -1.84157
424 1 5.44449 4.37348 8.29513 0.900589 0.172956 0.324412
425 1 5.51937 1.99311 5.61729 0.25241 0.762373 -0.017355
426 1 2.86773 8.60087 7.16036 0.525624 0.141087 0.39262
427 1 0.568608 3.40628 4.63529 0.402509 -0.935957 -0.0749019
428 1 5.5398 0.151364 0.374264 0.660415 0.506421 -0.149696
429 1 3.75392 2.16186 6.45959 0.184885 -0.229698 -0.575194
430 1 2.75234 3.21159 0.733393 -0.533591 0.157278 0.155431
431 1 4.76347 3.82639 8.43761 -0.782308 0.510663 -0.598622
432 1 2.22192 1.81679 6.17897 -0.674555 0.3126 -0.0320322
433 1 4.81344 8.61162 0.068455 0.564463 1.47063 1.13394
434 1 7.4395 7.10382 3.91551 -0.787003 0.133104 0.951974
435 1 1.05295 4.6837 6.22876 -0.378249 0.358961 -0.793251
436 1 8.82683 7.80009 3.5761 0.594593 0.237314 -0.080482
437 1 4.00229 5.03897 5.93319 1.20512 0.0888669 0.970448
438 1 6.62935 1.50803 8.09022 -1.18553 0.608443 1.12759
439 1 2.90395 3.33301 9.04642 -1.31429 0.0560673 0.723013
440 1 4.06505 1.23785 1.90735 0.35489 -0.330304 -0.800594
441 1 6.56734 4.52606 5.94365 0.647665 -0.0698925 0.350514
442 1 5.39298 3.13164 3.01148 1.44221 -0.556883 0.0190896
443 1 3.85394 4.17656 5.82536 1.0265 0.667325 1.03638
444 1 6.9538 3.13692 9.07566 0.961448 -1.76656 0.560211
445 1 7.38388 5.38821 3.72613 0.0932336 0.489037 -1.53346
446 1 7.27259 8.66274 7.22175 0.940033 -1.63625 0.477504
447 1 6.49594 6.70286 0.960225 -0.497076 -1.12392 0.0413696
448 1 3.81389 2.79841 1.49856 -0.272622 0.701608 1.3793
449 1 8.03536 4.06073 2.34133 -0.405818 -0.286493 0.780318
450 1 0.726661 3.54001 6.76951 0.771337 0.969561 -0.742056
451 1 6.67399 8.87949 2.34279 -0.00790291 1.15554 -1.18607
452 1 0.0698189 5.77299 8.70731 0.014605 0.928205 -0.190985
453 1 8.58241 7.79548 7.72868 -0.479919 -1.00109 0.267896
454 1 3.17955 7.60419 5.31901 -0.170048 0.603084 0.677188
455 1 8.68418 8.38185 6.63068 -1.26261 1.078 -0.668069
456 1 0.23804 1.50324 5.81186 -0.393678 0.846353 1.1078
457 1 2.07318 4.56895 9.11592 0.897859 1.37728 0.300375
458 1 6.93734 4.41645 6.98285 0.767342 -0.336108 -1.8814
459 1 7.30536 6.51672 0.629415 1.83759 -0.204575 0.0108479
460 1 8.33489 0.164726 1.25101 0.52045 -0.0245659 -1.07096
461 1 9.29384 2.00882 0.476015 0.0462427 0.325183 -0.195874
462 1 1.44399 4.6118 4.11888 -0.601642 -0.950034 0.301772
463 1 3.02387 4.72993 2.19776 1.04917 -0.860668 -0.668484
464 1 5.77833 8.53112 5.96351 -0.964634 0.636495 0.64809
465 1 3.18734 3.80247 4.67865 0.145951 0.138755 0.599896
466 1 0.759339 5.88855 3.11504 -1.7199 0.268307 -0.508883
467 1 3.90606 3.25797 9.16854 0.952633 -0.586634 0.135832
468 1 6.28719 1.59885 7.00996 -0.358808 0.978104 0.472666
469 1 7.52568 0.766052 3.35554 -1.33238 -0.911003 -0.607974
470 1 5.90498 5.89181 4.86639 -0.275417 0.286826 0.97223
471 1 8.33674 7.94106 1.19086 -1.08121 -1.04582 -0.640226
472 1 0.228667 4.15492 6.30597 -0.274977 0.654874 -0.118864
473 1 7.78369 0.624628 8.9315 -0.0535738 -1.69256 0.237428
474 1 3.01137 4.91943 8.10144 -0.455367 0.496911 -0.0106926
475 1 0.498461 4.85908 3.80738 -0.760628 -1.12774 0.0764008
476 1 1.07168 3.63201 9.34377 0.452786 -0.577496 -0.425191
477 1 2.59105 2.39627 1.50138 0.666523 -0.403573 -0.310154
478 1 1.96532 2.83752 0.976198 0.311762 -1.80793 1.24366
479 1 8.41745 0.0924815 5.36618 0.772133 0.0941287 0.46055
480 1 0.43956 2.89135 3.75518 -0.194632 -1.26312 -0.815131
481 1 8.71381 1.7555 5.98571 -0.387544 -0.233286 0.0102221
482 1 0.108445 5.59562 3.66151 1.33036 -0.144015 -0.348674
483 1 7.14211 5.61484 8.67197 0.56769 0.719148 -0.0635203
484 1 2.81188 1.54654 1.08374 -0.153504 1.31089 -0.754518
485 1 5.08885 7.63381 5.80043 0.528605 1.07303 -0.0343362
486 1 0.160244 4.14454 4.34098 1.33869 -0.000764568 -0.109619
487 1 3.99702 4.51836 4.85532 -1.57832 -0.430761 -0.407891
488 1 4.68662 1.25052 7.31943 -0.298432 0.550178 0.139596
489 1 2.26666 2.15063 7.05368 0.307374 0.0729451 0.685448
490 1 0.664547 6.36134 4.10461 -0.234211 -0.185062 -0.314167
491 1 1.04126 9.29673 5.3705 -0.231397 0.901305 -0.603939
492 1 4.52035 0.0966698 1.6138 0.214891 0.17227 0.482566
493 1 3.24443 7.42508 3.43666 0.44847 -0.444439 -0.552778
494 1 1.85213 0.194223 8.3963 0.563521 0.450225 2.32134
495 1 1.52949 5.65668 2.44199 0.996386 -0.381967 -1.11487
496 1 6.36726 3.06861 3.23982 -1.20047 0.394501 -0.864115
497 1 9.09355 1.0735 3.11461 -0.853305 0.440279 0.0287031
498 1 6.11703 2.6932 9.07723 -0.379024 0.225596 0.118177
499 1 6.96362 2.92731 7.34525 -1.31494 -0.583791 0.182378
500 1 5.33213 5.45839 0.690459 -1.1599 1.36443 1.23686
501 1 5.38062 3.59262 1.36642 0.265178 -1.09031 0.307232
502 1 2.71172 0.784654 2.78259 0.577834 0.640813 -0.271346
503 1 1.08515 6.30931 4.94943 -0.332765 -0.0564215 -0.201221
504 1 5.1936 2.46119 8.9229 0.149273 0.142353 0.653916
505 1 0.158331 7.07047 3.80603 1.23619 0.27596 -0.750776
506 1 1.54036 2.84183 7.00559 0.29783 0.851992 0.754405
507 1 2.83319 2.49649 6.28149 1.43047 -0.0963363 0.505537
508 1 4.91583 2.53032 2.15922 0.395394 0.333616 0.752218
509 1 2.45852 8.20316 9.3233 -0.868212 -0.957843 0.00523932
510 1 8.23513 2.00063 9.36769 0.747864 0.691961 0.469857
511 1 7.23791 1.50842 5.60092 0.731055 0.147403 -0.543847
512 1 8.39663 5.80231 0.739382 1.24725 0.0166989 -0.405346
513 1 1.31391 6.12407 8.72773 -0.660187 -0.213558 0.636927
514 1 6.53011 5.62235 0.876225 -0.628153 -0.259063 -0.199332
515 1 4.33431 6.77179 5.17114 -1.6333 0.0395802 0.750861