ITEM: TIMESTEP
210450000
ITEM: NUMBER OF ATOMS
1000
ITEM: BOX BOUNDS pp pp pp
0.0000000000000000e+00 9.4000000000000004e+00
0.0000000000000000e+00 9.4000000000000004e+00
0.0000000000000000e+00 9.4000000000000004e+00
ITEM: ATOMS id type x y z vx vy vz
1 1 8.81537 4.68905 8.64082 0.127785 1.26117 -0.598374
2 1 4.21211 0.687957 6.02505 -0.494868 0.93417 0.612822
3 1 1.82289 5.65337 0.779963 0.941929 -0.10766 1.06553
4 1 1.44504 6.12579 6.60695 -0.735343 0.140102 -0.881348
5 1 6.00497 3.24775 7.74809 0.979131 0.393154 0.177073
6 1 7.57247 2.23017 7.89926 -0.580216 0.627318 0.123016
7 1 0.556667 4.26147 0.848887 0.696235 0.829825 -0.0765627
8 1 7.27672 7.21421 5.49144 1.24117 -1.5537 -0.924408
9 1 0.0845507 5.97641 3.15665 0.58898 -0.853475 -0.19018
10 1 2.00109 1.38222 7.24671 -1.05472 -1.28103 0.839126
11 1 6.71384 0.778478 1.16013 0.931073 -0.281525 1.23965
12 1 0.886552 7.39507 6.73136 -0.106476 1.2576 -0.0236291
13 1 3.06737 3.00712 3.72414 -0.320303 -0.464992 0.328557
14 1 0.447787 3.77085 6.27393 0.0467901 -0.346826 -0.0887488
15 1 4.21663 8.94901 8.16698 0.400327 0.372948 -0.468059
16 1 6.65186 1.78113 8.42516 0.619991 -0.141973 0.292779
17 1 2.9198 2.54021 0.411805 -0.0953069 0.90662 -1.68448
18 1 7.41577 6.61926 0.643659 1.81482 -1.41665 -1.44911
19 1 7.13569 0.222052 6.08179 -0.58918 0.986354 0.27669
20 1 1.37967 8.28389 3.74643 0.0978653 -0.515131 -0.470158
21 1 9.19215 8.11188 0.699852 0.273601 0.569753 -0.406846
22 1 5.18592 8.55043 1.00213 -0.101572 -0.401946 0.201866
23 1 3.22088 8.25859 2.94511 -0.13766 1.21544 -0.164751
24 1 6.35864 1.63808 0.233651 -0.0830431 1.04082 -0.860831
25 1 1.18428 8.78431 7.82314 0.148168 1.28213 0.184173
26 1 3.36822 3.36166 8.1167 -0.221018 -0.52586 -0.643879
27 1 6.70174 8.19458 2.62773 -1.05085 0.662171 -0.462951
28 1 1.06937 6.28947 0.973219 0.707738 1.20747 0.134006
29 1 5.81508 4.78837 3.56993 0.636439 0.289939 -0.360428
30 1 4.70638 2.71342 5.40817 0.426699 -0.273292 -0.0545477
31 1 4.32524 8.07076 4.69115 0.134716 1.01649 -0.892199
32 1 4.71465 1.30746 5.46897 1.35256 0.423188 -1.3765
33 1 6.74328 7.67945 6.21223 0.430815 -0.898201 -0.428503
34 1 1.08126 9.38321 2.76385 -1.41383 2.15951 0.4058
35 1 2.1783 4.69463 1.13542 -0.681385 1.2207 -0.14843
36 1 7.36224 8.54946 3.11795 -0.33297 -0.86719 1.00549
37 1 6.21168 6.86857 7.23041 -0.375287 1.05365 0.403943
38 1 5.52346 4.56295 1.19281 0.330861 -1.0304 0.916334
39 1 4.90055 7.20848 5.05334 -0.707643 0.756542 0.635584
40 1 8.63551 5.06827 3.33407 1.23772 -0.796493 0.242757
41 1 9.32172 3.53725 7.01116 -0.675218 -0.784684 0.800267
42 1 2.72915 1.24853 2.71484 1.59688 0.0824568 -1.52656
43 1 7.60073 4.3412 2.38682 -0.370692 0.317345 1.15217
44 1 3.69132 3.91873 7.35218 0.351618 -0.230218 0.586734
45 1 0.340913 2.91431 3.11782 -0.182839 0.804725 0.378726
46 1 5.92746 0.543802 8.22293 -0.510765 1.4784 -1.18102
47 1 5.0886 5.23575 3.9192 0.833045 0.120582 0.772831
48 1 2.94832 7.30642 8.16349 0.0917641 0.712601 1.36461
49 1 3.63617 9.12013 6.95149 -0.539725 1.31171 -0.818316
50 1 0.77455 3.90974 7.2171 0.838589 -0.216642 0.63598
51 1 6.79915 5.03733 6.48062 -0.363626 0.830231 -0.702781
52 1 4.44606 1.9271 8.38728 0.697429 1.23919 -0.414378
53 1 3.75032 8.20298 8.87039 0.336587 -0.136879 -0.18102
54 1 0.844876 6.51138 9.01091 -0.500129 -0.508502 -0.564174
55 1 2.56179 5.64295 8.14606 -0.647608 0.414084 -0.768495
56 1 8.01673 4.17297 5.85554 -0.379208 0.923569 0.707626
57 1 0.358133 6.26042 5.58809 0.707304 0.557026 1.50032
58 1 7.68181 7.77329 6.10461 1.95516 0.662813 1.98477
59 1 8.95717 5.77989 3.96865 0.398723 -0.533584 -0.0338063
60 1 4.74819 4.08185 1.03727 0.00672718 0.592222 -0.538044
61 1 3.72734 1.15083 5.46225 0.171028 0.237645 0.45035
62 1 1.23061 5.45668 5.87049 0.304296 1.293 0.401324
63 1 6.59891 7.40795 2.16567 -0.069317 0.143888 0.816546
64 1 7.6189 5.1848 5.12349 0.211212 0.166285 0.079491
65 1 5.40969 2.82767 1.3162 0.373154 -0.0225788 1.57272
66 1 3.14427 4.3916 1.97259 -1.29647 -0.206 -0.635429
67 1 6.39372 9.27376 3.09899 0.327035 0.424023 -0.730292
68 1 2.53365 7.48484 6.40181 -0.502162 -0.0110896 1.40474
69 1 8.89247 4.27814 7.11606 0.565845 1.02751 -0.497989
70 1 6.15361 6.57257 9.06596 -0.587763 -0.0819766 -0.873475
71 1 8.33052 5.77927 6.0875 -0.0541207 0.126903 -0.538849
72 1 6.45339 9.08545 8.19456 0.809104 0.0336172 -0.27418
73 1 2.84706 5.563 3.39391 -0.249415 1.10654 -0.431483
74 1 5.60375 1.05841 1.61618 1.21027 0.0673435 -0.755368
75 1 3.89178 3.04829 1.39525 0.0839537 -0.312743 0.0373151
76 1 5.15566 6.80957 8.67086 -0.387949 0.480299 0.0800258
77 1 8.84541 7.86995 7.47022 0.0566306 -0.119825 -0.067742
78 1 1.50541 1.19072 8.2044 -0.525019 0.768468 -0.73555
79 1 3.48832 3.85188 3.86447 0.505689 0.594732 -0.00437948
80 1 4.53048 4.98448 2.56077 -0.745702 1.37488 -1.80263
81 1 3.06407 3.14534 7.24482 -0.280187 0.719812 -0.0153184
82 1 4.33921 0.829532 0.542843 -1.53044 1.09342 -0.409069
83 1 4.84667 6.685 1.63064 0.4927 0.804115 -0.681805
84 1 3.54853 1.59906 8.42286 0.0351844 -0.531804 0.00544969
85 1 1.51396 1.92155 2.59646 -0.0536545 -0.189024 0.364799
86 1 4.47522 3.70573 6.62663 0.272941 -0.513549 1.2398
87 1 5.42286 1.93628 5.93253 -0.591586 -0.12255 -0.0616966
88 1 4.05143 6.08281 8.68239 -0.897438 1.0459 -0.20986
89 1 3.68874 2.14687 3.21405 -0.717125 -0.505972 0.180699
90 1 6.74896 1.7856 3.06072 -0.308773 0.132128 0.755044
91 1 2.77941 0.987076 8.91637 0.968183 0.470488 -1.13688
92 1 3.35756 4.41659 6.02789 -0.598322 -0.834349 1.82244
93 1 4.51044 6.37702 6.68924 -0.711888 0.907048 0.210096
94 1 4.67419 9.05217 3.16734 -0.89155 0.715618 0.862767
95 1 7.98084 1.15667 7.3823 0.313249 0.377531 0.406197
96 1 4.5737 2.49751 1.14846 -1.0771 0.12278 0.554798
97 1 3.64088 3.23535 6.53702 0.0783766 -1.16722 -0.0418408
98 1 2.12028 3.31907 6.65644 1.61956 0.104471 -0.0636974
99 1 8.84891 0.0896276 2.68726 0.0518922 -0.0227013 0.425474
100 1 6.35267 6.74052 2.8322 0.810964 -0.0643935 -0.67951
101 1 7.23513 0.508989 1.93799 -0.446908 0.296549 -0.0462174
102 1 5.52178 7.04909 6.5329 0.328035 -1.07649 0.761254
103 1 4.87393 7.3994 7.09825 -1.80418 -1.17757 -1.80213
104 1 2.23539 1.66333 8.32223 -0.312868 0.168679 0.507317
105 1 2.11066 5.86297 5.18016 0.917118 -0.289949 -0.345128
106 1 6.63229 7.71155 0.956462 1.57895 -0.12552 0.539954
107 1 6.59931 5.46211 3.181 0.324315 -0.623342 -0.603167
108 1 4.1032 8.27226 6.4416 0.98897 -1.53026 1.58281
109 1 7.36707 3.03134 0.430861 1.29853 -0.0358826 0.608747
110 1 3.76565 6.86197 7.90294 -0.895871 0.269455 0.218468
111 1 2.68611 8.50196 4.1757 0.18116 0.440795 0.940117
112 1 5.16963 1.07116 8.74141 1.29479 -1.64397 -0.471498
113 1 8.89199 5.02459 7.79585 -0.732566 -0.552246 0.925335
114 1 9.27028 2.17463 5.76988 -0.487704 -0.109678 -0.461573
115 1 5.32955 0.492834 0.228523 0.716044 0.510901 -0.415578
116 1 0.489364 3.30514 5.39765 0.278839 0.194912 0.15236
117 1 3.16815 0.286806 5.47896 1.46001 0.37731 0.623836
118 1 5.23092 4.3081 4.34606 -0.804193 -0.653535 -0.704824
119 1 9.08254 9.18657 3.57025 1.23668 -0.378988 -0.356713
120 1 8.15476 1.47119 1.58346 0.829393 -0.0795623 -0.00929122
121 1 5.83198 2.31114 2.70213 -0.193425 -0.838719 0.520312
122 1 3.36801 3.73193 2.93869 1.83177 -0.262 0.414141
123 1 3.50491 3.76953 9.23066 0.0267268 -0.679306 -0.950723
124 1 5.35488 6.54912 0.325777 -0.991487 -1.00935 0.365802
125 1 8.19511 7.00294 1.01598 0.116148 0.690829 0.179027
126 1 6.94836 0.945528 8.69311 0.576108 0.581718 0.785054
127 1 3.26163 5.26445 8.84721 -1.4522 -1.09212 -1.05055
128 1 5.22769 6.61588 3.37299 0.504357 0.24054 -0.600798
129 1 0.781865 0.277654 8.20655 0.211079 -0.361391 1.00832
130 1 2.56561 0.735505 0.516081 -0.998031 0.54649 0.13572
131 1 9.00805 3.08234 5.97987 0.463221 1.05638 1.33187
132 1 5.99906 7.08486 5.41557 0.434784 -0.697249 -0.62699
133 1 1.33512 7.34256 1.32283 -0.682565 -0.267901 -0.579505
134 1 2.03897 3.72166 4.89593 0.264201 0.305718 -0.470153
135 1 2.61307 7.35307 2.77717 0.53893 -0.491076 -1.43369
136 1 4.49427 3.06182 7.53348 -0.631638 -0.6349 0.470009
137 1 7.99866 3.92275 1.51058 0.530385 -0.663316 1.73837
138 1 8.11675 0.612135 0.937561 0.243071 0.34337 0.295849
139 1 5.13972 7.75658 8.44696 -0.202373 -0.167665 -1.10831
140 1 8.79 8.62096 9.31552 0.692608 -0.534869 -0.972388
141 1 6.78051 6.81816 6.35475 0.615633 -1.92966 -1.07342
142 1 6.7782 8.79167 4.49592 0.49744 -0.664281 0.308691
143 1 1.24459 9.29351 9.3822 1.58052 0.959256 -0.722537
144 1 0.740574 2.22545 3.67616 -0.47333 1.3357 -0.0141782
145 1 3.86828 8.41622 1.57871 0.591809 -1.461 0.792312
146 1 0.0227775 2.39701 0.562125 -0.671174 0.190261 -0.0206982
147 1 1.23379 7.2618 2.33552 0.914607 0.488944 0.414163
148 1 4.26968 1.05507 8.21673 0.6058 1.13497 -0.364852
149 1 7.40859 5.98148 6.81134 -0.685219 -0.167889 0.60271
150 1 0.00733122 1.21609 9.08897 -1.17528 0.200011 0.406092
151 1 5.3727 8.12984 4.11763 1.0444 -0.815166 0.210739
152 1 9.41401 3.17354 0.0333143 1.04415 1.32796 -0.248401
153 1 8.82264 1.46009 8.39711 -0.753582 0.474235 1.52885
154 1 0.249593 0.437277 5.37292 -0.880322 -0.425805 -1.22691
155 1 4.62734 0.376968 2.59793 1.5396 0.934475 0.434633
156 1 6.46646 2.39999 3.75942 -0.0537195 1.15073 -0.917257
157 1 6.29555 5.73753 2.32096 -0.18454 0.29878 -1.64837
158 1 6.63024 7.8891 3.65293 -0.812865 1.39013 0.914781
159 1 3.98706 5.61094 3.39161 -0.588873 0.542098 0.684466
160 1 9.26402 0.0420893 9.02522 -0.266434 0.307846 0.610974
161 1 5.86395 4.93596 4.6025 0.441661 -1.53066 0.4182
162 1 4.61125 9.20735 4.92612 0.0401685 1.28398 0.0457446
163 1 7.23578 9.22052 0.262434 0.467753 -0.848768 1.12635
164 1 0.631848 8.89183 5.21652 -0.946706 0.365213 1.62571
165 1 1.10598 6.8203 5.86944 -0.178894 0.322822 -1.76672
166 1 3.64952 1.14279 0.995158 -0.189357 0.261614 -0.476743
167 1 7.85582 7.07664 8.21848 -1.40819 -0.848859 -0.619029
168 1 2.20243 4.09276 5.65348 0.35641 -0.568831 1.00697
169 1 6.92049 5.45338 5.69003 0.541722 0.268727 -0.709132
170 1 4.99433 4.30012 3.48294 0.369963 -0.949813 0.530308
171 1 6.31756 0.213493 2.01636 -0.201321 -0.0800073 0.435178
172 1 1.60099 1.99777 7.73145 0.355512 -1.01766 0.570455
173 1 7.78398 5.36737 1.96979 -1.21441 1.65513 2.27361
174 1 0.0877014 6.35663 2.38783 0.0418582 0.894985 0.887836
175 1 8.59231 5.63672 9.07472 1.61029 0.412309 -0.075922
176 1 8.38664 4.71123 6.46657 1.90986 -1.12575 -0.281913
177 1 8.37883 2.49273 0.280722 -0.20421 -0.442241 0.493688
178 1 9.19699 7.31542 8.07965 -0.811871 -1.41839 0.0516396
179 1 8.63891 0.757024 0.0412193 -0.392763 0.402408 1.12531
180 1 6.58534 4.62534 5.08987 0.715722 -0.921882 -0.309962
181 1 4.80462 7.48822 2.30321 -0.767393 0.62209 0.609467
182 1 8.22541 5.21688 8.40378 1.58176 -0.742971 0.927952
183 1 0.44071 6.58569 0.413761 0.118669 0.80767 -1.32927
184 1 3.39191 1.92433 2.41271 -0.162741 0.139028 -0.699245
185 1 3.34335 8.84307 7.8081 0.343303 -0.246724 -1.75186
186 1 5.54386 4.48188 7.50619 -0.0104463 -1.28288 0.813244
187 1 1.89848 7.98646 2.85334 -0.942488 -0.104366 1.00819
188 1 8.57027 1.6904 9.28917 -0.198603 0.30137 0.378629
189 1 2.77459 4.77227 5.49526 -0.378327 1.11073 0.751824
190 1 1.20746 5.6231 7.53006 1.37886 0.381084 0.324228
191 1 1.84641 6.24835 2.15948 -0.340618 -0.731156 1.2766
192 1 2.19532 4.66191 8.42733 -0.752214 1.25899 1.11162
193 1 8.37851 7.68066 0.446697 0.236727 -0.587864 0.710746
194 1 7.89472 2.64355 8.6794 -0.939085 0.418314 0.319542
195 1 3.57431 2.28493 5.09795 0.313386 -0.960427 1.49453
196 1 7.66292 2.85417 2.2108 0.238383 0.207678 -0.243738
197 1 5.76488 1.62561 8.43549 -0.27817 0.301763 -0.390788
198 1 0.532919 1.00803 7.58768 0.726422 0.112298 -0.528828
199 1 7.81488 5.4005 3.98573 0.049438 -0.2534 1.05713
200 1 4.77646 3.70062 5.07881 -1.20137 0.342488 0.613878
201 1 0.79073 3.53756 1.59631 0.166072 0.885723 0.397453
202 1 0.247472 8.11148 2.4087 0.108174 0.00637641 0.941347
203 1 0.328028 9.0071 2.81909 -0.867115 -0.342108 -0.7145
204 1 2.50991 6.64445 1.61204 0.0140806 0.805291 0.459852
205 1 6.61767 6.36533 5.57043 0.654044 0.807868 -1.24145
206 1 7.51323 2.28768 3.02127 -0.228952 -0.108502 -0.130158
207 1 1.12642 6.69449 3.83347 0.383748 -0.206796 -0.585937
208 1 4.46104 1.93902 5.94469 0.121526 -0.629803 -0.237665
209 1 1.24493 8.33689 4.61211 0.165264 -0.56048 0.84084
210 1 3.90473 0.419618 7.6888 0.614976 0.909804 0.46064
211 1 4.00621 6.75243 2.12719 0.921511 -0.319884 0.780979
212 1 0.593294 1.76068 0.214361 0.80879 -0.93669 -0.368634
213 1 8.94616 0.99858 7.45386 1.0498 -0.258687 -0.295835
214 1 7.49846 4.57466 4.31126 0.349204 -0.152824 1.64722
215 1 0.384539 2.10984 4.59839 1.21126 1.49329 -0.623628
216 1 2.4558 8.44793 6.47726 0.495457 0.117894 0.568267
217 1 5.30498 3.70593 1.6334 -0.467898 -1.09262 1.06713
218 1 9.29365 3.77574 7.84785 -1.00673 0.173294 -1.13079
219 1 2.00912 9.1584 8.05095 -1.45941 -0.366768 0.991989
220 1 0.418402 0.451011 0.374271 0.99581 -0.682373 0.0897787
221 1 0.949645 5.82205 0.203898 -0.49973 -1.50205 -0.871374
222 1 1.1497 8.32322 6.87803 0.142403 1.65167 0.515337
223 1 0.545414 3.92072 2.88322 1.78133 -0.655999 -0.467314
224 1 3.74158 8.65467 4.99509 -1.48599 -0.413772 0.246967
225 1 2.93692 5.54477 7.16929 0.399554 -0.245483 0.906726
226 1 6.77013 8.48983 0.489176 -1.07412 -0.619631 0.294722
227 1 6.66083 0.553781 7.71585 0.312484 -0.566072 -0.420181
228 1 2.84909 3.26786 1.40184 0.512737 0.122603 -0.514637
229 1 4.05145 6.4489 5.8672 -0.819197 1.10301 -0.163692
230 1 6.05164 8.38482 8.8307 -1.10949 -0.0703241 0.0679897
231 1 8.7134 6.43237 5.17004 0.413839 0.137386 -0.386607
232 1 4.54144 1.92816 3.20677 -0.939022 1.31756 -0.458675
233 1 1.91966 7.91792 0.158524 -0.870174 0.113973 0.780343
234 1 0.352557 1.1494 4.76282 -0.003545 0.096177 1.5516
235 1 4.85629 4.79599 1.67636 1.24598 -1.41909 2.30375
236 1 5.90904 4.40896 1.94385 0.465505 -1.08762 -0.623665
237 1 8.08948 4.53456 9.10494 0.584119 -0.468805 0.61356
238 1 9.22223 0.669138 8.2012 -0.181417 0.208567 -0.35954
239 1 0.820226 6.55363 1.93673 0.568865 1.23815 0.583757
240 1 3.32136 8.594 6.1524 0.402635 -2.56939 -0.000666781
241 1 3.88269 1.26486 2.9304 0.41586 0.9072 -0.337435
242 1 7.94703 8.14132 7.14783 0.102993 0.0491065 0.798675
243 1 3.24778 7.84968 4.95262 0.327974 1.4596 -0.14252
244 1 3.46396 5.39553 0.995086 0.091341 -0.630159 0.127857
245 1 2.57142 2.11139 2.82516 -1.41523 -0.128413 -0.52809
246 1 2.78786 3.95385 4.34937 0.50496 -1.0367 -0.228157
247 1 4.0926 5.3946 1.95583 0.949025 0.654276 0.518728
248 1 4.93882 0.678549 7.70386 0.312487 -0.222516 -0.793712
249 1 0.0380763 3.92079 8.78784 -1.18256 0.874666 0.636869
250 1 0.261762 5.65922 7.45098 -0.0697564 -0.605331 1.48907
251 1 7.54318 6.24254 8.3243 -0.682263 -0.742485 1.09601
252 1 3.81032 0.0110009 3.19641 -0.469903 0.0476932 -0.209762
253 1 8.98966 0.703899 0.969695 -0.823614 0.580927 0.0376167
254 1 9.27205 3.66422 4.34154 -0.431884 0.719764 -0.529346
255 1 1.08721 8.02446 5.54023 -0.243557 0.845511 -0.0622982
256 1 8.42814 3.30138 6.94358 -0.52189 -0.398945 0.80788
257 1 8.25482 7.19656 5.45517 1.03211 -0.124165 0.0220021
258 1 1.79087 6.29761 0.0778381 0.603065 -0.34367 0.0502549
259 1 8.3541 0.714979 8.31676 0.237736 0.78143 -0.714269
260 1 2.71255 6.40549 6.76743 0.0098692 -1.40493 -0.772557
261 1 2.24075 0.459706 2.22881 -0.0371141 -0.18051 -0.179491
262 1 1.91579 3.09437 5.57163 -0.35306 1.59673 0.0358243
263 1 2.02117 2.56934 8.67782 1.20648 0.182934 0.283749
264 1 9.39353 1.3002 5.787 -0.213641 0.440664 -0.308058
265 1 2.66906 4.70855 0.255288 0.811776 -0.165136 0.189096
266 1 5.8236 7.89708 5.51739 -1.11185 -1.36623 2.10638
267 1 5.73744 3.90251 8.34487 0.183977 -1.02082 0.240639
268 1 1.0866 3.47443 4.6155 1.02317 -1.3574 -1.07584
269 1 1.3484 0.827451 2.60195 0.52249 0.544312 0.818073
270 1 4.1763 3.92613 8.42044 -0.164416 -0.610565 0.261956
271 1 5.78086 9.2682 1.19441 -1.01463 1.05866 -0.328647
272 1 0.790433 5.10357 6.95713 0.579146 -0.527165 -0.655804
273 1 8.48105 1.15122 5.51959 -0.919424 -1.336 -1.29246
274 1 6.70723 2.14928 2.35672 -0.568205 -0.0973623 -1.00629
275 1 1.40131 7.16426 8.37791 -0.0661232 -0.239738 0.566856
276 1 4.48915 1.57084 1.31469 0.635054 -0.794379 -0.193875
277 1 2.10342 4.71998 4.72468 0.493119 -1.1128 -0.525444
278 1 0.708755 0.217369 6.27126 0.0695708 -0.585835 -0.0706116
279 1 9.28688 9.17178 8.19303 0.441031 -0.199165 -0.309679
280 1 8.04102 4.30962 7.40294 -1.29344 -0.352744 0.233552
281 1 5.33945 3.30991 2.59297 0.0173531 0.151101 -0.658051
282 1 5.52867 8.61468 5.92506 0.110062 0.856973 0.0605984
283 1 0.470653 4.63023 9.37398 0.00485034 0.88271 -0.787836
284 1 6.82975 2.1715 7.15901 0.515723 -0.111023 -0.513719
285 1 5.72593 7.96046 1.35207 0.15618 -0.680712 0.373522
286 1 0.060948 7.68878 6.93525 -0.645184 -0.0713336 -0.530383
287 1 0.590708 7.16507 5.1945 -1.00589 -0.760875 -0.272911
288 1 0.732995 8.06136 1.55892 1.89886 -0.354014 0.660765
289 1 3.98697 8.15032 3.53601 -1.44061 -1.36156 0.641334
290 1 6.32962 9.34226 0.526764 0.0773507 0.776255 0.448532
291 1 6.21487 3.58551 1.65972 -0.408961 0.0729427 0.217643
292 1 4.07937 6.68238 3.05483 -0.048582 -1.39717 -0.496955
293 1 5.7385 8.37993 7.90862 -0.0212587 -0.535736 -0.261319
294 1 8.39649 2.02949 7.6056 -0.337401 0.245538 -1.03742
295 1 4.25538 7.38607 8.41492 -0.582494 -0.177063 -0.670768
296 1 8.97028 2.7612 5.0159 0.0399822 0.0723232 -0.298889
297 1 3.80172 3.72167 0.767318 -0.219843 0.66417 -0.311131
298 1 0.282551 5.92602 1.31949 -0.988301 -1.06392 0.0218175
299 1 3.00455 7.24841 7.18277 0.950021 -0.0756748 -0.313367
300 1 2.09342 3.14599 0.143385 0.319405 -1.21775 -0.178304
301 1 8.14902 3.0946 7.94763 -1.55928 -0.445011 -0.127581
302 1 2.95422 3.43269 0.491388 -1.01404 -0.620526 -0.663999
303 1 1.71226 5.79521 8.50846 -0.328186 0.483635 -1.52768
304 1 6.89636 1.05949 4.06885 -0.594073 -0.723367 -0.996763
305 1 3.84313 1.20642 1.96037 -0.6955 -0.288206 0.0627327
306 1 1.66655 3.85648 7.92169 2.2555 -0.387774 -0.351821
307 1 9.07426 7.37664 1.31231 -1.64769 1.32578 -1.16628
308 1 6.73319 2.90184 2.89559 0.264292 -0.840387 -0.519521
309 1 2.31534 0.081334 5.69063 0.409177 1.84242 -0.310097
310 1 4.8344 2.04019 6.67004 -0.622546 0.0572736 1.12804
311 1 4.38174 7.31938 6.27746 -0.827255 0.0012994 0.929151
312 1 9.11991 5.54406 5.62272 -0.559145 0.342068 0.214541
313 1 4.5988 8.08447 9.11054 0.114446 0.60186 -0.291595
314 1 6.32627 5.22061 0.949857 -0.180076 -0.481421 -1.58151
315 1 8.37134 1.90159 3.64446 -0.182699 0.0863952 -0.324531
316 1 8.89434 4.60082 5.68613 1.38833 0.721368 -0.488239
317 1 1.17327 1.17726 6.92089 1.61691 0.327181 -0.22037
318 1 0.269389 4.63692 7.37804 1.18658 -0.109981 0.290695
319 1 8.99131 5.47972 6.65207 0.236549 -0.830549 0.776634
320 1 2.78885 5.56603 0.198419 -0.286266 0.806234 0.582629
321 1 0.634509 5.68933 2.11989 -0.201737 -0.187539 -0.412427
322 1 6.52598 5.57023 4.85842 -0.692692 0.817994 -0.902832
323 1 7.64518 7.5459 3.78078 0.857566 0.540362 0.569859
324 1 9.33721 0.223207 7.34969 0.266978 0.178956 -0.209698
325 1 6.67429 3.08996 6.87494 0.466878 0.145352 -1.0057
326 1 8.60545 5.16342 5.01962 -0.160207 -0.33549 0.804365
327 1 0.476932 8.74129 6.42403 -1.58582 -0.937741 -0.979658
328 1 5.86738 4.13698 6.72856 -1.04295 2.15481 1.52929
329 1 5.93926 7.10155 0.6632 -1.92488 0.257056 0.169421
330 1 8.19528 7.36906 1.8607 0.295046 1.14788 0.0768445
331 1 0.791677 0.732724 9.08526 -1.08687 -0.877738 0.238395
332 1 1.17792 1.94934 9.05657 -0.277354 -0.287412 0.131446
333 1 3.48953 5.69045 2.61589 -1.87168 0.493817 -0.570433
334 1 7.8113 6.22087 3.58913 1.36951 -0.173685 -1.12404
335 1 1.06588 1.66569 5.07768 0.0153403 -0.253733 1.30437
336 1 4.57382 5.38673 8.17857 1.15081 -0.356824 0.383898
337 1 2.87183 2.84067 5.42765 -0.202292 0.302515 0.581824
338 1 1.62621 7.7592 6.18822 -0.58508 -0.0131984 0.378045
339 1 6.65997 1.76581 1.41317 -0.894583 -0.50942 0.49683
340 1 1.70829 0.903091 9.31216 -0.484911 0.227194 -0.229029
341 1 6.20277 2.05539 4.54121 0.503385 -0.495331 -2.12429
342 1 6.53287 6.21822 0.688578 0.224636 0.301813 -0.206815
343 1 5.40926 3.50452 6.02988 -0.31488 -0.645395 0.394459
344 1 4.05519 4.74553 8.65108 0.151285 -0.382919 -0.906084
345 1 1.67969 0.38747 8.60571 0.420511 0.268498 0.358946
346 1 0.0919357 2.82282 7.51672 -0.307012 0.133473 0.163665
347 1 5.65255 3.70849 3.61503 -0.327189 -0.508259 0.507546
348 1 1.33629 1.47793 0.642768 -0.110286 -0.702728 -0.256279
349 1 6.89087 5.49965 1.59665 1.79268 0.785468 0.31962
350 1 8.33471 5.92838 4.62027 -0.444816 -0.665265 -0.0342339
351 1 0.792292 0.414257 4.66851 -0.241236 0.736104 -0.0381522
352 1 5.17755 4.39858 6.20764 -0.204507 0.816343 -0.516328
353 1 7.2938 8.54351 6.61542 -0.0742448 -0.188852 0.812387
354 1 8.55688 4.5397 1.96292 0.160962 -0.407366 -0.449211
355 1 5.23306 9.32659 8.49864 0.632043 -1.795 1.49202
356 1 1.37265 4.9116 0.544532 0.833084 0.248636 -0.363945
357 1 1.09014 5.00503 8.9442 -0.905003 -0.581152 -0.1524
358 1 0.877961 4.57635 1.65054 0.282627 -0.761007 0.0305115
359 1 3.83367 2.73912 0.244587 -0.9933 -1.8894 0.466172
360 1 2.43867 3.9067 2.59556 -0.652077 0.360079 0.483674
361 1 9.30361 1.22708 1.63753 -0.579385 -0.644246 -0.680739
362 1 4.31765 0.370559 8.97575 -0.11195 -0.102939 -1.04901
363 1 2.8695 7.16865 4.36276 -0.52016 -0.635213 0.064917
364 1 3.44479 0.523818 0.0627889 -0.55033 -0.193567 -0.0987267
365 1 4.62946 4.89458 5.04894 -0.0783157 -1.11844 -1.1538
366 1 6.41106 8.5324 1.42746 -0.668217 0.193009 0.88251
367 1 2.32582 2.05659 1.27694 -0.239822 0.154394 -0.436742
368 1 3.16647 6.9952 0.947093 0.48848 -0.367551 0.293354
369 1 3.25319 6.39522 4.88837 0.180705 -1.27245 -0.999137
370 1 3.4177 2.07916 1.18478 0.142465 -0.356506 1.25259
371 1 5.02925 2.0597 4.97794 0.972201 -1.30039 0.55847
372 1 2.25574 2.53426 2.08152 -0.0491487 0.225987 -0.508504
373 1 1.52821 8.14461 2.03219 0.394825 -0.0517295 0.455897
374 1 1.78316 3.00996 1.39103 0.517142 -1.51409 0.63426
375 1 7.69414 5.2438 6.25051 -0.459314 0.926478 0.586417
376 1 1.62292 3.38249 8.73894 0.535395 0.527218 -0.226538
377 1 8.46028 5.96137 7.73831 0.0624949 -1.00371 -0.332392
378 1 3.60349 7.51002 2.95736 0.200163 -0.186313 1.66796
379 1 6.66578 8.21007 8.11981 0.234215 -0.366975 0.744732
380 1 2.78803 1.51201 0.826272 -0.657302 -0.260113 -0.604218
381 1 5.30454 6.4638 7.23048 -0.792463 -0.255581 0.490501
382 1 2.61602 9.02617 2.55382 -0.840971 -0.790813 -1.58325
383 1 4.28821 0.599462 3.58373 0.877635 0.575246 0.163665
384 1 5.28404 3.00932 4.3828 -0.744448 -1.53603 -0.0767957
385 1 5.89958 0.907517 6.56664 0.269465 -0.932147 0.783575
386 1 7.53245 3.57343 6.65727 1.43243 1.2733 0.146452
387 1 7.72535 2.5907 3.75015 -0.35029 0.0891394 -0.756617
388 1 6.27043 4.50078 0.0147811 -1.0845 -0.867149 -0.0434176
389 1 6.73343 7.00023 8.20418 -0.516282 -0.419985 1.17848
390 1 6.6369 1.83508 6.12832 0.0238756 1.53039 -0.258206
391 1 1.45879 2.16536 1.64354 -0.732245 -0.322479 -0.585347
392 1 5.10226 8.93054 9.34526 -0.295816 -0.496458 -2.06395
393 1 3.63608 6.33125 6.75867 -0.79187 1.05336 0.868221
394 1 7.22164 8.75681 7.67399 0.133272 -0.315879 -0.324661
395 1 2.02182 1.30379 2.00192 0.0212152 1.8655 0.614886
396 1 6.55529 1.21444 7.01117 -0.438682 0.404237 0.0517419
397 1 4.07077 1.50659 4.6681 0.175498 -0.782062 0.0385669
398 1 9.17447 1.50847 0.62201 1.23874 0.418033 0.86672
399 1 4.92067 4.51315 8.31107 1.28861 -0.42023 1.57847
400 1 1.89551 5.09971 3.77767 0.917231 0.0225002 -1.05793
401 1 7.18803 7.00805 3.21719 -0.119298 -0.852611 0.449259
402 1 2.1265 4.09937 0.415707 0.647086 0.459992 0.709432
403 1 6.40947 4.99601 7.25403 0.468615 1.44977 -0.924514
404 1 0.918533 6.49081 7.57815 0.473763 -0.779139 -0.655197
405 1 1.93717 1.23651 3.29791 0.433333 -0.945036 -0.014941
406 1 5.89551 2.06311 1.83441 -0.595555 -0.561409 1.28868
407 1 0.00375249 4.56849 6.45292 -0.757718 1.54392 0.137864
408 1 3.49606 0.671254 6.63666 -0.356567 -0.807275 0.576248
409 1 4.15315 2.92567 2.72695 -1.39997 -0.448173 -0.798384
410 1 0.66557 3.71293 9.37125 -0.842381 -0.929466 -0.67492
411 1 1.49767 0.916637 5.35097 -0.549764 -0.961866 0.510885
412 1 0.426289 5.22894 6.09505 0.232313 -0.883495 0.642132
413 1 0.563438 4.32669 4.5527 -2.43312 0.513578 -0.288503
414 1 2.49854 0.465778 8.08477 0.155911 0.232985 0.0688004
415 1 7.46379 7.56105 0.597334 0.453303 -0.204137 -0.235185
416 1 6.23739 3.23936 5.6822 0.802956 -0.70812 -0.0111547
417 1 2.76803 8.84565 5.30538 0.266799 -0.641778 0.863019
418 1 0.568826 7.30258 8.69969 0.52758 -0.995525 0.451886
419 1 6.4605 6.53827 1.93081 -0.553268 0.0423176 0.491234
420 1 2.2232 8.65362 3.31642 0.0224113 -0.560796 -0.0253937
421 1 4.26063 2.2003 2.33814 -0.492695 0.46772 -1.67163
422 1 0.723686 8.83213 8.71786 -1.27087 1.21672 -0.0583152
423 1 1.94482 6.49756 0.957635 0.306367 0.476274 1.69447
424 1 0.847734 4.77212 2.76041 0.415008 1.14545 -0.239488
425 1 9.07791 4.39772 4.71835 -1.00268 -0.801233 -1.22753
426 1 4.8626 7.0055 7.89311 0.227033 -0.0538123 -0.565809
427 1 6.10724 2.16142 7.74893 -0.664431 0.144762 -0.0106112
428 1 9.00154 5.75671 8.32476 -0.441924 1.13711 -1.30541
429 1 7.99533 2.47591 4.57549 0.462401 0.551794 0.12707
430 1 5.17226 1.51299 0.280543 -0.512392 0.495437 0.0728107
431 1 6.63854 2.74815 9.38719 1.15388 0.187114 0.42149
432 1 5.72525 1.44109 2.47022 0.713122 -0.37576 -0.150872
433 1 9.10985 3.84266 1.17175 0.329338 1.13457 -0.654007
434 1 6.09251 7.92395 4.57256 -0.515351 1.14803 -1.39749
435 1 7.20229 1.51822 9.33311 0.0474724 0.785102 -1.17129
436 1 7.85341 6.14006 1.54754 -0.170077 0.481162 0.186453
437 1 3.20305 9.36616 4.35674 -0.592669 0.0343026 -0.781028
438 1 5.01774 2.3775 9.23426 -1.28181 0.517703 0.643946
439 1 8.08292 0.96989 6.47086 1.18811 0.188606 -1.14476
440 1 2.5759 0.745869 6.79675 -0.591296 -0.565612 -0.131869
441 1 5.93727 5.74195 0.153015 0.52726 -0.142652 0.340837
442 1 0.387427 0.90521 2.94178 -0.239642 0.106618 -0.0308951
443 1 2.95406 5.76495 4.25103 0.137984 0.51968 -0.620186
444 1 0.0674505 9.24213 4.58012 0.667248 -0.846072 -1.8597
445 1 7.88612 0.504955 4.23012 1.21625 -0.424756 -0.972643
446 1 3.21125 2.04719 7.11821 -2.04598 0.529847 -0.0614231
447 1 0.901608 2.76188 2.07252 -0.770396 1.427 0.0161069
448 1 7.49565 6.14069 5.40425 -0.648084 -1.7806 -1.07696
449 1 4.22486 3.43322 5.6849 0.522906 -0.607451 0.235834
450 1 1.19594 5.4555 3.35597 -1.55202 0.0671376 -0.296029
451 1 0.531103 0.0537313 1.14892 0.636393 1.22839 -0.708944
452 1 0.0893089 7.9578 3.2757 -1.30404 1.18912 -0.769599
453 1 2.51127 6.45015 3.86831 -0.237 -0.469556 0.121047
454 1 1.85309 5.9448 4.11659 0.118161 -0.18362 -0.85201
455 1 3.62742 6.25738 3.87507 0.502227 -0.0675687 -0.615983
456 1 8.59603 9.38109 4.35482 -0.718544 -0.414797 -0.771193
457 1 5.69718 4.99027 6.6166 1.50028 0.148912 -0.813638
458 1 2.54879 8.72454 7.44401 -1.32997 0.551997 -0.655248
459 1 7.58971 3.7193 3.95839 0.644889 0.965565 1.05078
460 1 6.79316 8.10379 9.05994 0.0112906 -1.57332 0.303396
461 1 6.118 0.771142 3.13776 -0.804948 -0.079168 -0.257132
462 1 8.47953 7.41414 6.79951 -1.05875 1.55731 0.89461
463 1 7.73894 9.21211 1.08739 0.257095 0.832153 0.298026
464 1 5.80863 7.64308 2.48345 0.0730996 -0.107533 -0.834735
465 1 8.50671 6.69183 4.10032 -1.57382 1.19181 0.104746
466 1 6.79507 3.61835 0.764372 -0.0495518 0.303941 0.536612
467 1 0.821457 7.5787 7.78484 -0.973009 0.537243 0.356498
468 1 8.72565 3.88126 6.29773 1.27745 0.25719 -0.960999
469 1 5.98551 0.140676 6.02855 0.00774801 -0.04964 -1.25359
470 1 0.187776 7.13241 4.11358 -0.149101 -0.487404 -0.093451
471 1 5.4406 7.62303 0.00209943 1.34024 -1.7521 -0.627427
472 1 8.33496 9.35384 7.81314 -1.05521 0.201414 0.358944
473 1 6.6774 5.30512 9.30717 0.491602 -0.116994 -0.853556
474 1 5.79506 1.11294 7.4417 -0.806087 1.1558 -0.423115
475 1 4.01312 4.50164 6.72147 0.377134 -0.199174 -0.443781
476 1 0.00889042 5.03606 2.94693 -0.876565 -0.411377 0.30998
477 1 7.75633 8.46652 0.450151 0.934844 0.00967715 0.445912
478 1 8.51495 6.21241 6.80605 0.216094 -0.572313 -0.469337
479 1 7.00776 1.41775 7.75321 0.685264 -0.44734 0.740603
480 1 7.63207 5.84477 9.21401 -1.0936 0.781539 -0.946546
481 1 8.31728 8.17303 1.21122 -0.232532 -0.840142 1.11344
482 1 3.29977 5.49759 5.95026 -0.914449 -1.60057 -0.443535
483 1 0.475146 6.9348 1.22923 1.41627 0.401106 0.479581
484 1 3.74541 9.08906 9.29527 1.83368 0.264774 -0.524072
485 1 7.4882 7.2682 6.88036 0.459224 0.479977 -0.450254
486 1 8.52394 3.31417 0.693332 -0.211273 0.491962 -0.0512777
487 1 1.27161 5.18842 4.58775 0.300588 -0.434593 0.862544
488 1 0.189421 5.4306 9.20877 1.23599 -0.137887 -0.774179
489 1 0.356835 2.90115 6.37294 0.58776 0.533957 -1.6667
490 1 8.47772 3.21224 1.61203 -0.0981238 -0.892151 -0.129564
491 1 7.50047 3.54314 3.06587 -0.0232245 0.587195 0.142248
492 1 6.68763 6.7074 4.76774 -0.494775 -0.0262101 0.0354586
493 1 4.92809 7.3024 0.847661 0.504961 0.624683 1.68654
494 1 0.256049 0.842759 6.7362 0.112532 0.114612 0.675868
495 1 6.29489 3.57456 9.28854 1.12081 1.25836 -1.07924
496 1 8.04928 0.356508 1.74525 0.911727 -0.0821069 1.82648
497 1 0.30441 8.96326 0.194485 0.0984593 -1.53074 -0.117576
498 1 1.50737 5.29386 2.43139 -0.193175 0.849064 -0.499499
499 1 7.27816 5.5564 7.6757 0.392028 0.70403 -0.830359
500 1 4.38476 3.00352 8.83582 -0.0215759 0.384637 0.0972601
501 1 8.76891 5.56464 2.65893 0.235714 0.997738 1.19268
502 1 4.14578 0.422081 4.55231 1.01029 -0.415464 -0.820441
503 1 7.82525 4.64336 3.33098 0.520394 -0.518547 -0.87544
504 1 1.39465 0.276622 0.751524 0.168569 0.0382034 0.411498
505 1 8.67859 6.64506 8.30793 0.525035 -0.611707 0.417433
506 1 7.44002 1.24473 1.13876 -0.829336 0.465753 -0.969497
507 1 4.81401 8.27029 7.55907 -0.160018 -0.361954 0.0308909
508 1 4.59664 3.14185 0.573714 -0.0682607 -3.29553 0.468539
509 1 7.7059 6.79475 4.51768 -0.894121 1.03983 0.0113668
510 1 3.57991 6.47608 9.37244 -0.154521 -0.0931564 0.539573
511 1 1.09014 3.14425 6.82703 0.288805 0.534311 0.131783
512 1 2.68252 8.96779 8.49058 0.114595 0.806875 -0.458366
513 1 2.06961 5.21144 9.10895 -0.421908 0.218536 -0.2528
514 1 4.78833 8.21791 5.53684 -0.0121006 -0.451816 0.245308
515 1 2.37173 1.69062 0.0595958 -0.674017 0.676935 -0.291584