ITEM: TIMESTEP
38900000
ITEM: NUMBER OF ATOMS
1000
ITEM: BOX BOUNDS pp pp pp
0.0000000000000000e+00 9.4000000000000004e+00
0.0000000000000000e+00 9.4000000000000004e+00
0.0000000000000000e+00 9.4000000000000004e+00
ITEM: ATOMS id type x y z vx vy vz
1 1 4.01582 9.21563 8.41267 -1.8416 0.94338 -0.743195
2 1 3.81366 5.51258 8.73349 1.09419 1.3098 -0.321491
3 1 3.77026 6.64606 5.31509 -0.706366 0.940677 -0.14134
4 1 5.71311 7.24669 0.992052 1.13469 0.619163 0.386394
5 1 8.87158 2.5094 9.16091 0.628802 0.200729 1.00235
6 1 1.61179 6.44464 3.02747 0.413915 -0.549956 -0.743021
7 1 6.61519 3.02706 7.76127 -0.670862 0.467716 0.137255
8 1 2.87156 7.82906 2.42699 -0.683569 -0.0499061 -0.0130357
9 1 0.892464 1.40099 9.01389 0.999097 -0.832673 -0.998438
10 1 6.29934 4.99504 1.90288 -0.380559 -1.23047 -0.336823
11 1 3.26703 6.75099 6.13881 -0.964915 -0.468445 -0.327932
12 1 8.98182 6.11691 6.07973 -0.637334 -0.118967 0.719375
13 1 7.5038 5.91167 9.13301 1.04527 -1.72025 1.54967
14 1 1.60259 0.152291 5.92191 -0.439527 -0.566187 0.00682667
15 1 7.00353 0.745637 5.97793 0.000210952 -0.549339 -1.43604
16 1 3.03527 1.22063 2.09911 -0.113043 0.0831588 -0.818222
17 1 2.09944 0.282991 7.77195 -0.478005 -1.24333 0.35001
18 1 8.09688 9.45844 5.47698 -0.63517 1.69615 0.386673
19 1 9.36278 3.28918 9.28399 0.657496 0.016942 -0.0512352
20 1 7.50799 7.83689 8.44964 0.0494787 0.931041 0.144864
21 1 8.67781 3.6534 2.68782 -0.374867 1.555 -0.309523
22 1 3.96044 7.72092 4.8093 0.314292 -0.624617 -0.288507
23 1 7.20832 6.4959 8.13994 -0.158054 0.484673 0.161502
24 1 1.08839 4.50217 8.1663 0.335491 0.580101 0.675978
25 1 5.96937 0.0633797 9.08025 -0.0497154 -0.385364 0.870645
26 1 3.14285 3.02445 9.09153 0.795788 -0.325421 -0.104099
27 1 5.4037 9.05871 4.53475 0.340224 0.797167 0.0684545
28 1 1.2378 5.2461 3.51894 0.966743 0.688027 0.416931
29 1 9.104 3.65766 3.69857 -0.216975 -0.532951 -0.726022
30 1 1.46503 6.85342 8.52418 0.419107 -0.607435 -1.07715
31 1 7.65692 0.707454 3.66992 0.23093 0.389186 0.373442
32 1 5.23981 2.35126 8.22647 -0.635182 0.109961 -0.256212
33 1 1.8502 5.81739 9.05191 -0.517666 -0.766023 -1.54487
34 1 3.25664 6.67301 7.28439 0.814295 0.210818 -1.61167
35 1 5.33483 0.758369 2.94104 -0.388663 -1.30352 -1.53352
36 1 5.80314 6.88549 5.09927 -0.875433 0.233679 0.192617
37 1 8.07756 7.31859 6.48434 -0.396797 0.868872 0.0152553
38 1 1.38568 6.45482 0.166135 -0.373386 -0.0647366 -0.174796
39 1 3.14758 6.44629 1.28423 -0.537919 0.238709 -0.181974
40 1 6.72578 1.3358 9.32173 0.950356 -1.26847 0.623439
41 1 5.10212 0.450855 3.90301 0.856026 0.256747 0.535156
42 1 5.90669 6.35927 7.82483 0.449402 -1.08865 -0.0734742
43 1 7.4044 6.41823 0.4962 -0.214957 1.08225 0.595904
44 1 6.62013 1.3076 1.37045 -0.674977 0.374902 -1.05447
45 1 7.19081 8.65128 4.74891 -0.236973 0.0491702 -0.0526553
46 1 6.09357 7.46065 6.04132 0.291216 -0.908325 0.687893
47 1 3.81732 8.44687 7.61166 -0.0977138 0.394584 0.174561
48 1 8.24775 5.68173 0.73146 0.564267 -1.83912 1.21139
49 1 4.12363 7.3682 2.09449 -0.192635 -0.0331805 0.673324
50 1 1.39502 1.35273 1.47465 0.299048 -0.101749 -0.186161
51 1 0.942666 5.43087 0.170141 0.634217 -0.864842 -0.171359
52 1 9.13761 4.5066 3.51662 -1.03001 -0.279453 0.834702
53 1 1.42475 1.22739 2.39442 -1.31724 0.312424 -0.945148
54 1 5.36567 6.8072 1.7857 1.72026 0.129182 1.0818
55 1 0.855248 1.55998 4.12311 1.12539 -1.42329 -1.5447
56 1 1.77806 2.70037 2.45664 0.0840597 0.251951 -0.196707
57 1 1.93799 3.39868 6.95633 -0.413639 0.729651 -0.0198503
58 1 2.68145 4.3804 0.98184 0.0376833 0.0310482 -0.819289
59 1 2.50015 -0.0113007 2.28373 -1.3755 -0.33313 -0.69884
60 1 0.993787 7.78026 0.406727 0.376129 0.41013 1.22827
61 1 3.32545 4.68941 9.23322 1.3784 0.221701 0.314134
62 1 6.50099 3.89678 4.83981 1.30921 -0.614999 0.0721954
63 1 7.93773 8.28338 5.31242 0.481719 0.295004 -0.443591
64 1 3.74044 4.31155 5.72884 -0.369658 1.21228 -0.379138
65 1 6.64555 9.20503 8.27579 0.0321879 0.649615 -0.0466026
66 1 0.126993 9.27724 3.13414 0.248285 0.401527 -0.0786569
67 1 5.33294 7.98055 7.45889 0.776386 -1.66524 -0.216726
68 1 1.11368 0.728694 4.10022 1.44646 -0.527121 -0.00250854
69 1 0.70727 3.69614 7.08746 -0.0248542 -1.14281 -0.125922
70 1 1.81608 9.24819 3.38347 1.10427 -0.478467 0.878615
71 1 8.71632 1.30987 5.90022 0.718108 0.0642756 0.981523
72 1 3.5579 5.26436 4.22443 -1.40979 -0.654958 0.938113
73 1 1.47257 9.23482 8.42654 1.00545 -1.21696 -0.432972
74 1 0.702424 2.24815 0.549691 -0.944386 1.24534 0.817286
75 1 0.963335 0.998498 8.23736 0.5168 -1.49312 0.0112101
76 1 7.54269 5.46482 7.86438 0.922474 -1.06572 0.655099
77 1 1.37637 1.40456 4.81652 0.98517 0.00268957 -0.51681
78 1 8.06043 0.0770425 9.36628 0.499206 -0.196286 -0.206448
79 1 3.98589 3.84326 3.92504 1.77911 -0.292415 0.172083
80 1 1.81873 2.45626 1.26395 0.279453 -0.784025 0.526938
81 1 2.52989 5.70955 1.55495 -0.0508685 1.75369 -0.190019
82 1 0.276515 9.03798 1.48628 0.127434 -1.563 -0.247291
83 1 2.85813 5.17733 0.705321 1.637 -0.575764 -0.343481
84 1 4.4216 7.91266 6.81877 0.846219 0.428416 0.0953328
85 1 4.35933 7.71323 7.74362 1.34791 0.417099 -0.173026
86 1 4.18032 7.7939 5.67832 0.704735 -0.519621 -0.0234971
87 1 6.59743 3.10899 3.52029 0.407407 0.0322309 -0.586785
88 1 2.34066 2.29293 2.95829 0.82093 -0.184975 -0.390488
89 1 2.97436 9.25122 9.09267 0.00919747 0.0628846 -0.0821322
90 1 0.046854 8.00192 0.0695011 0.681159 0.635884 -0.019626
91 1 3.04726 0.136967 6.20081 -0.741841 0.623438 -0.70031
92 1 8.08491 9.17105 3.08624 0.866921 0.227216 0.438871
93 1 6.32376 1.02325 4.83285 0.264503 -1.32894 -0.276707
94 1 7.97172 2.18712 4.01979 -1.59759 1.15409 0.356071
95 1 6.56227 6.27899 4.39927 1.8576 0.0634187 0.109091
96 1 3.73994 8.82021 0.20943 0.607543 -1.10522 -0.0847968
97 1 3.26763 2.87607 5.20626 -0.115515 1.94466 0.715211
98 1 2.05421 0.781517 7.10193 -0.0622883 -0.819649 -2.07582
99 1 9.05532 1.06955 4.60847 -0.810524 -0.863795 -0.297749
100 1 4.67774 0.640411 7.46593 1.24046 -0.927839 0.768821
101 1 1.73142 4.50268 5.27472 -0.726215 -0.464427 0.556546
102 1 4.72836 9.09658 2.68353 -0.493975 -0.71078 -0.769484
103 1 0.206185 2.96331 8.5179 -0.383294 -1.18162 0.642717
104 1 7.57773 5.63606 6.96212 1.3171 1.79352 -0.932443
105 1 3.13076 7.96735 4.79432 -0.19596 0.509093 -0.603958
106 1 1.41827 6.35457 4.00664 0.477745 -0.505793 -0.0760989
107 1 5.88541 4.88364 4.5071 0.142671 0.0419459 -0.178837
108 1 5.62675 1.14599 0.451114 -0.384158 0.300942 -0.447884
109 1 1.44844 6.00452 7.90602 -0.259053 0.164821 -0.319291
110 1 3.33486 7.15014 2.99472 -0.674358 -0.24602 0.865514
111 1 1.41823 2.31423 4.67175 0.638988 0.167819 -0.517447
112 1 2.00213 0.814607 4.27148 -0.264422 0.579675 -0.448929
113 1 4.54034 2.80823 7.91698 -0.999074 1.24972 -0.261307
114 1 1.63252 4.07615 4.41857 0.587433 -0.813863 0.806456
115 1 9.22456 7.50575 4.29182 -1.9202 -0.101525 0.613494
116 1 6.54645 2.61772 9.25009 0.645796 -0.116793 -0.19141
117 1 7.33706 1.60881 3.748 0.151628 0.669946 0.0803461
118 1 6.63746 7.2639 8.42985 -0.57529 -0.677554 -0.241081
119 1 4.82233 3.28907 5.09884 -1.28199 0.312748 -0.687703
120 1 2.47898 4.42988 6.98988 -0.748713 1.38026 0.294573
121 1 3.80213 1.93163 9.30716 -0.479873 -0.0973829 0.830086
122 1 0.037887 0.641384 2.45973 -0.429616 0.35339 -0.24734
123 1 6.46705 7.21543 1.66724 0.383028 0.592818 -0.288397
124 1 9.27108 1.58383 0.287751 -0.679078 0.736397 -0.288461
125 1 9.2083 1.40422 8.71219 -0.902487 -0.284006 0.825163
126 1 3.90601 9.22808 6.96491 -1.06768 0.572486 1.31543
127 1 3.2774 7.64594 7.35407 0.217137 0.469446 -1.30706
128 1 5.96986 2.2876 7.67582 0.899745 -1.00629 -0.974707
129 1 5.20077 6.60866 5.71691 0.691291 -2.08121 -0.198815
130 1 0.425514 8.73364 5.18027 0.513152 -0.352624 1.09055
131 1 9.09392 8.79805 6.73698 -0.615207 2.70389 0.871158
132 1 6.05487 8.54969 6.30974 0.515482 0.537343 -0.739021
133 1 4.72449 8.88957 0.332702 1.28454 0.0815629 0.0938916
134 1 7.08989 1.00973 4.40917 1.36095 0.424267 0.562435
135 1 8.29664 6.21501 6.71736 1.06892 -0.698198 0.595419
136 1 5.04584 2.65274 6.02582 -0.930327 1.20798 1.21735
137 1 1.19174 3.45043 6.25653 -2.19102 0.375403 0.0644076
138 1 6.43913 8.04323 3.9695 0.603081 -0.125414 -0.864318
139 1 4.43472 1.4297 2.99376 0.131774 -0.192301 0.419222
140 1 5.95479 7.70137 3.00781 0.384964 -0.878187 -2.23901
141 1 8.18246 1.37177 1.62414 0.197719 -0.813729 0.107764
142 1 1.67787 4.45284 6.68427 0.256745 -0.896805 -0.641423
143 1 7.44321 0.564215 0.439803 0.623516 -1.20023 0.685628
144 1 7.47328 8.21004 0.790348 -0.709505 -1.38797 0.942837
145 1 6.47421 1.55373 3.97408 0.547152 -1.75401 -1.13573
146 1 4.03884 5.18771 6.29123 -0.370552 0.544198 -0.423146
147 1 2.15319 3.58196 5.07141 -0.668288 0.59345 -0.0681073
148 1 1.4503 7.45288 5.97166 0.321409 0.0164209 0.272502
149 1 3.60551 6.62015 3.85358 1.21067 -0.239561 -0.545283
150 1 9.17489 8.08929 4.99359 0.980049 0.60675 -1.04203
151 1 1.45043 5.70038 6.84289 -0.0967327 0.192799 -1.3141
152 1 7.72163 7.62013 1.37147 -0.313128 0.0275668 -0.299387
153 1 5.46907 2.05165 2.77849 -0.35591 -1.0593 0.339443
154 1 0.843778 8.02272 5.56731 -0.917942 0.678393 0.639376
155 1 0.470892 2.74677 6.78198 -0.617614 0.474365 0.0296934
156 1 0.421941 8.22018 2.42207 -0.929699 -1.12693 -0.616782
157 1 0.283654 7.2508 1.05293 0.234441 0.354582 -0.271094
158 1 7.44125 2.27822 7.66011 -0.00107947 0.433361 -0.465749
159 1 1.39937 7.85644 2.27291 0.571315 -0.712697 -0.467746
160 1 2.52011 0.482217 8.51805 0.195701 0.0836815 -0.668748
161 1 8.66372 6.17032 1.49535 -0.590419 0.336931 0.530602
162 1 6.80933 5.06189 9.2758 0.670753 0.376618 -0.545674
163 1 5.94691 7.94368 8.55257 -0.627991 0.259458 1.67756
164 1 4.37521 1.9138 4.76316 0.0180795 0.342255 -1.23987
165 1 3.493 7.9396 3.85068 0.0816755 -0.518472 -0.792474
166 1 0.366817 5.07128 3.30122 -0.208912 0.00848379 -0.113019
167 1 1.00886 6.60719 1.05136 -0.839431 0.0160952 0.797587
168 1 0.031699 4.75222 4.33836 -1.11876 0.78738 1.0597
169 1 4.28341 3.90975 1.2573 0.181067 -0.935564 0.795329
170 1 4.52191 2.26502 6.84312 -0.591491 -0.011311 0.654976
171 1 6.78062 5.84508 7.53174 0.551664 0.0545565 -0.334664
172 1 2.48114 8.25135 9.23359 -0.747554 0.684364 0.366124
173 1 1.04207 0.612873 3.22061 0.528381 0.0377846 1.16491
174 1 5.41602 3.61401 1.04772 -0.931604 0.135994 -0.527299
175 1 3.00079 7.11317 0.153457 1.07167 0.0770847 -0.382285
176 1 4.82602 7.3098 6.15729 0.296305 -0.52543 -0.272784
177 1 2.07309 1.7413 9.10656 -1.40884 1.81382 -0.591945
178 1 1.98044 7.8639 6.85871 0.976045 -0.186572 -0.871731
179 1 4.22483 6.47205 8.67881 -0.00553318 0.805473 0.966276
180 1 7.69769 4.37425 0.727666 1.99775 0.579281 -1
181 1 6.37916 1.91032 2.15339 0.803186 0.532825 0.685207
182 1 6.21128 1.99833 4.71961 -0.565122 -1.15728 1.02692
183 1 6.98499 7.11452 4.0455 -0.608505 0.403503 0.137318
184 1 0.748016 1.74162 5.64655 0.0284163 0.0125029 -1.24457
185 1 7.9703 0.799296 7.1543 -0.949612 -0.540605 0.217115
186 1 0.217811 2.79223 5.23963 -0.0303561 0.893682 0.438105
187 1 3.01104 4.11322 6.27406 1.82498 0.104609 0.147778
188 1 0.101585 2.11103 2.60801 -0.162892 -1.66461 0.638129
189 1 4.98086 6.40958 1.07167 0.665101 -0.471596 -0.486631
190 1 5.06718 8.06347 1.12635 -0.0744402 0.878308 -0.697097
191 1 8.65764 0.327793 2.58878 1.06649 0.761205 0.547088
192 1 6.83987 7.47847 0.694582 -0.0556228 -0.38456 -0.638807
193 1 1.5659 6.88414 6.77825 0.253156 0.130158 -0.856723
194 1 3.12232 5.08318 1.91835 0.631142 -0.732145 0.980902
195 1 1.16829 4.36957 5.96868 -0.168505 -0.691227 -1.48173
196 1 5.38114 9.10039 3.3649 0.905345 1.16798 0.830346
197 1 7.2629 9.3022 5.42186 -0.321988 -0.513255 0.11382
198 1 6.6225 4.99285 1.06256 1.65553 -0.422799 -0.589586
199 1 3.93397 0.841562 1.91847 0.454293 0.576257 0.0875805
200 1 3.12328 1.10344 6.16801 -0.158482 0.785642 -1.27287
201 1 9.13812 3.45644 7.05273 -0.429058 0.477299 0.193938
202 1 4.07781 6.9033 6.99558 -0.624341 1.32419 0.349935
203 1 3.16608 7.90607 1.21564 1.52982 -0.806205 1.23082
204 1 0.974288 9.18826 3.75235 -0.286955 -0.870585 0.840643
205 1 2.08648 3.89658 1.49228 -1.06624 -0.343538 0.400663
206 1 5.08466 1.38467 1.96685 0.329888 0.855193 0.376799
207 1 5.32984 5.62367 0.156447 0.672708 -0.822751 1.02842
208 1 3.30789 1.2202 8.68272 0.874076 0.803193 0.475819
209 1 8.71739 0.0749786 1.68379 0.029681 1.0276 -0.684999
210 1 7.28077 0.381378 7.52625 -0.310536 0.195739 1.56294
211 1 6.63075 6.78335 7.28289 0.162036 1.61828 -0.717429
212 1 0.0811632 4.11302 5.38676 -1.02486 -0.682753 -0.289965
213 1 0.557757 3.53485 3.98708 0.0586564 0.0397147 -0.272895
214 1 4.58661 9.00196 7.41369 -0.194376 0.419868 0.377163
215 1 4.20839 6.63563 6.181 -0.188929 0.247431 -0.807547
216 1 7.07207 4.87679 7.11767 -0.552578 -0.500412 -0.337416
217 1 0.39438 6.89157 6.9507 -0.484695 0.637509 0.42742
218 1 7.72433 5.45516 1.48191 -0.191461 1.08655 0.740598
219 1 3.78731 5.95927 6.75986 0.650466 -0.120364 -0.812765
220 1 7.74832 0.932725 5.3282 -0.687742 1.10819 -1.99439
221 1 6.83067 1.15812 3.07501 -0.761998 -0.646919 0.721021
222 1 2.06114 8.33576 1.23465 -0.0907559 0.435387 -0.132262
223 1 1.15909 8.74785 1.86876 -0.55225 -0.150373 0.689184
224 1 5.21879 2.59448 9.22536 0.716744 1.22592 -0.232895
225 1 5.83343 8.82376 8.09556 1.31921 -1.35187 -0.420518
226 1 0.555236 4.08669 1.53232 1.46324 0.960758 0.650306
227 1 2.49541 4.05373 3.69575 -0.95437 -1.58859 -0.510087
228 1 6.74342 2.16175 1.16407 1.25837 -0.664222 1.38331
229 1 2.51511 7.99445 6.01987 -0.278871 -0.138856 -0.185145
230 1 3.54132 5.90212 4.76337 -0.390534 0.364494 0.591477
231 1 4.20473 8.45517 1.13625 -0.116152 0.79188 1.18653
232 1 2.79255 1.3786 3.95453 0.296564 1.47189 0.708257
233 1 8.30458 5.09673 4.90926 -1.71463 -0.535027 1.00563
234 1 6.8018 4.86523 4.40873 -0.0492587 -0.85331 -0.0866827
235 1 6.13136 8.4823 7.238 0.254774 0.299957 0.789747
236 1 4.71956 5.48522 8.96689 -0.361059 -0.858969 1.43531
237 1 8.54704 9.26692 3.8739 -0.0712957 -0.994645 -0.426748
238 1 3.84051 3.29543 8.35076 -0.804825 -1.29897 -0.469818
239 1 3.85674 1.81844 8.16255 0.840657 0.588385 0.401934
240 1 0.834412 5.0043 5.392 1.19075 -0.903982 1.35628
241 1 9.08119 4.10623 9.35706 1.09122 0.352 0.49116
242 1 5.78195 1.45982 8.07235 0.477149 -0.0779948 1.31322
243 1 7.89098 9.26693 2.1749 0.169029 0.187695 0.391465
244 1 2.42749 3.19395 0.647252 0.15573 0.60751 -0.0968093
245 1 7.77189 4.40281 5.16187 1.15654 0.793761 0.682864
246 1 8.05422 6.94627 0.55321 -0.156672 -0.027929 -0.712766
247 1 6.47433 5.89939 1.57146 -0.709119 0.311467 0.19679
248 1 5.78174 1.4622 1.29123 0.774001 0.278909 0.0244508
249 1 3.58829 1.40098 2.70534 -0.214123 1.1369 0.993918
250 1 0.391689 6.29217 1.54706 0.33545 0.0707995 0.225131
251 1 8.72158 4.31072 7.69562 -0.696083 -0.981737 0.294971
252 1 7.39541 9.14629 3.88818 0.584108 -0.0674391 0.409243
253 1 6.34439 7.61423 6.90999 -0.951017 0.17354 0.647577
254 1 0.666378 2.22628 3.52427 -0.450983 0.00338511 -0.654856
255 1 8.64468 5.42827 6.88494 -0.388566 -0.494051 1.10064
256 1 7.0436 3.01749 1.62745 0.38571 -0.46982 -0.410862
257 1 4.40163 5.696 4.5623 0.429203 -0.786432 -0.551763
258 1 4.5946 8.43977 6.11126 -0.522683 -0.245381 0.600922
259 1 4.93884 0.616515 5.70535 -0.908741 0.558981 -0.218412
260 1 6.7123 3.12385 4.43771 -0.881357 -0.956036 0.00974649
261 1 4.64495 0.4669 1.46166 0.863745 0.949306 0.110396
262 1 1.74497 6.6904 5.39644 -0.686204 -0.766245 0.139091
263 1 2.35678 4.54961 8.90536 0.0726498 -0.499195 -0.258445
264 1 2.94936 2.43946 0.407054 -0.264575 -0.289184 1.34664
265 1 4.73205 3.57826 3.38613 -1.31687 1.15894 -0.481047
266 1 4.92238 7.60438 2.18006 -0.65572 0.641019 -0.764021
267 1 5.74818 7.31434 8.02406 -0.000631687 -0.553707 -0.52063
268 1 4.02782 6.32356 2.07497 0.395373 0.173013 2.02377
269 1 5.1746 6.0372 4.92407 1.19457 -0.84459 0.0128789
270 1 2.27027 6.86883 6.05005 -2.40368 -0.285439 -0.41244
271 1 2.5747 1.46295 2.95425 -0.00893826 -0.298222 -0.04643
272 1 0.91603 0.516785 8.99417 -0.226493 -0.226018 0.094853
273 1 4.35068 0.162301 9.14988 -0.26308 0.918526 0.328528
274 1 6.16224 7.2406 4.25325 1.58264 -1.16311 -1.69348
275 1 6.23698 4.27213 3.8744 0.792464 0.511349 1.44547
276 1 2.50189 4.25558 4.62302 -0.612494 0.0304515 -0.454593
277 1 6.72468 9.11375 1.94851 -0.9672 -1.54368 -0.829787
278 1 1.79439 7.08654 1.0602 -0.543526 0.483189 0.321577
279 1 5.4118 6.63577 4.12154 -1.34061 -0.0444721 0.100402
280 1 8.72338 9.26892 7.42415 -0.156076 -1.71436 0.570765
281 1 5.42014 8.82849 6.91326 1.68098 1.09667 0.808676
282 1 7.83995 8.86743 7.31057 0.928121 -0.207189 -0.595898
283 1 3.71885 2.65473 1.03617 -0.720046 0.404118 0.194621
284 1 4.20968 7.44614 3.09024 -0.447727 -0.582643 0.376466
285 1 8.11505 2.61502 8.33462 0.00508606 1.13797 0.936997
286 1 1.76635 4.0119 2.3294 0.0791733 0.00706541 0.524218
287 1 0.188417 3.74689 2.90937 0.497164 -0.868778 -1.41886
288 1 4.62515 0.582702 2.46646 0.410827 0.100952 -0.856179
289 1 5.92326 2.17774 5.58951 0.571062 0.225156 -0.802268
290 1 7.33224 7.41729 7.61659 1.59296 -0.880142 -0.122928
291 1 8.2153 1.22377 3.05271 -0.688964 1.19666 -0.7938
292 1 8.34571 7.53012 2.20131 -0.623418 0.121102 1.1459
293 1 2.86981 1.56353 0.0155035 -0.332443 -0.22042 -0.873078
294 1 1.33892 6.22445 6.03736 -1.17153 -0.916109 -0.825486
295 1 2.00685 4.94687 0.186899 -0.892524 -0.470974 -0.212687
296 1 9.32323 0.432417 8.71901 -0.0129193 -0.596854 -0.0132238
297 1 3.59776 1.42851 7.33303 -0.7163 0.675729 -0.1068
298 1 1.38258 4.33148 1.52695 0.721768 -0.656529 0.752739
299 1 8.72603 4.47623 6.87671 0.00549278 -0.15146 0.537746
300 1 5.29799 7.58334 5.47566 0.174599 0.13612 0.646714
301 1 5.30212 3.89033 8.24222 -0.0182841 0.531999 -1.08771
302 1 5.35396 4.47113 3.54459 0.932634 -1.45422 -0.716027
303 1 7.65533 6.64564 7.18194 -2.17263 -0.752226 1.28159
304 1 4.98047 2.96656 4.14524 -0.975685 -0.417138 -0.299072
305 1 9.01773 2.53427 6.84912 0.252678 1.32252 -0.152033
306 1 1.82886 9.21111 1.33348 -0.473663 -0.432631 1.494
307 1 5.24737 7.19092 3.38233 0.298924 -1.24874 0.889915
308 1 5.47196 1.15265 4.13837 -1.96527 0.180601 -0.0962761
309 1 0.885725 8.99264 9.1146 -0.511214 0.378425 0.798192
310 1 8.52336 2.06879 6.31406 -0.749308 0.19371 0.591505
311 1 6.0284 2.98665 5.04952 -0.448129 0.272449 -0.250242
312 1 0.102183 2.25811 1.38892 0.823806 0.403647 -0.981886
313 1 8.37505 2.94617 3.81251 -0.81609 0.592038 0.584043
314 1 1.94732 0.566548 0.238026 0.5044 -1.36561 -0.0282734
315 1 1.32727 7.23647 3.10467 0.104611 0.54594 0.987009
316 1 6.24959 1.96953 0.445684 -1.04592 1.85409 0.661924
317 1 2.11797 0.737334 1.86721 1.72869 1.17784 1.45828
318 1 0.183748 8.23802 6.2332 -0.304851 -1.07235 0.160598
319 1 8.2133 2.69039 0.480688 -1.59011 0.671664 -0.330952
320 1 8.02885 1.65832 7.03797 0.602443 0.313773 0.955278
321 1 0.0626338 6.85598 3.43728 -1.07192 -0.102765 0.434629
322 1 4.6936 2.21433 0.463509 1.62807 0.531864 -0.893476
323 1 6.94427 7.71092 9.18867 0.575066 -0.551872 1.19289
324 1 7.50801 8.36785 9.19155 -0.497616 -1.15339 0.432254
325 1 3.60547 5.71127 0.91792 1.24481 -0.0857928 -1.88413
326 1 8.106 5.02152 3.17954 0.45782 -0.954158 0.418398
327 1 1.26381 3.79188 0.878979 -1.1238 0.588908 0.50437
328 1 8.99593 1.03239 1.59154 -0.670747 -1.30843 0.99539
329 1 0.480491 7.39976 2.05173 -0.69601 0.0718021 0.222596
330 1 0.727308 7.1591 4.04852 0.119991 0.926498 -0.240494
331 1 7.0741 5.74849 2.46909 0.143495 -0.447792 -0.305268
332 1 1.08841 0.0554317 0.63291 0.159808 -0.0761701 -0.0743521
333 1 0.522705 0.888377 4.89421 -0.261667 -0.655574 0.172447
334 1 6.12649 7.35606 0.174951 -0.543039 0.0213494 0.543562
335 1 0.329999 4.21859 7.89157 -0.030317 0.390701 0.926751
336 1 4.91824 4.24511 2.71627 -0.42303 0.137953 -0.000759449
337 1 6.13183 6.04873 5.8584 -0.529604 0.61019 -0.61307
338 1 8.60191 0.827738 9.16963 -0.179173 0.0714375 -0.802131
339 1 2.48752 3.97506 7.85345 -1.08457 -1.41445 -0.546371
340 1 9.07307 3.3124 4.73205 0.183955 -0.000377372 1.1784
341 1 9.0201 6.00242 3.46256 0.0103155 -0.221616 1.00044
342 1 9.27877 5.13075 5.3341 -0.526384 0.364267 1.65318
343 1 3.84602 2.23689 1.86233 0.141368 0.397018 0.119555
344 1 6.73316 6.63614 9.19659 -0.123722 0.932041 -0.836806
345 1 9.27902 2.9487 2.30297 1.26638 0.991439 0.279539
346 1 7.38326 1.94238 4.59965 0.353774 0.0412961 -1.15034
347 1 5.53129 2.37953 0.627989 -0.189556 1.09347 -0.290825
348 1 6.07207 2.43578 3.93118 1.83849 1.92245 -0.566481
349 1 6.63206 1.73645 8.12663 -1.14099 -0.402111 -0.389808
350 1 7.7124 7.51522 2.87126 -1.0292 -1.15706 -0.187261
351 1 1.20171 -0.038666 7.4362 0.471684 -0.926242 -0.6379
352 1 4.89632 9.3513 6.466 0.626305 0.782409 0.137813
353 1 8.86133 7.69586 6.65888 -1.33797 0.29016 -1.05558
354 1 2.08259 8.55115 2.46624 -0.990563 0.510845 -1.19614
355 1 8.66793 4.19541 4.77281 -1.67379 -0.164054 -1.60256
356 1 0.806339 7.6991 8.73303 -1.49444 0.922817 0.0137713
357 1 4.08108 2.53619 5.35851 -0.357892 -0.22641 -0.106242
358 1 6.39709 1.19901 7.29027 -0.769085 -0.660011 0.0174554
359 1 1.72841 7.90134 4.60294 -0.41889 -0.681106 -0.504384
360 1 8.30236 3.49352 7.64886 1.34645 0.455195 -0.416956
361 1 0.232855 4.67182 0.622592 -0.581718 -1.81715 0.473738
362 1 0.136485 8.40999 8.59964 0.307963 -0.695674 1.06458
363 1 6.79976 8.09797 1.44355 -0.899317 -0.207573 -0.403298
364 1 3.39652 7.54619 5.5256 0.102461 -0.11144 -0.916913
365 1 2.58366 7.65418 4.08868 -0.230193 -0.481887 -0.332888
366 1 2.06062 0.74134 2.81989 -0.802811 -0.00731252 0.702648
367 1 4.44588 7.26526 4.07865 -0.59449 0.269278 -0.575845
368 1 2.60676 7.08427 6.79981 -0.617266 -0.0589025 -0.595692
369 1 4.00052 3.40171 5.5607 0.681391 -0.853301 -0.914985
370 1 3.68304 1.88762 6.3815 1.12061 -0.0863889 0.563672
371 1 9.26653 6.64692 5.24451 0.607556 0.399116 -0.475825
372 1 3.22208 2.24241 3.39062 -0.0473111 -0.316084 0.804582
373 1 6.56797 9.33868 6.2192 1.02658 -0.379995 1.42787
374 1 0.165224 0.972908 5.71917 -0.0330896 0.0901918 0.205666
375 1 0.547532 1.4829 1.92293 0.391033 -0.807145 0.0920594
376 1 1.65915 4.87058 7.53578 -0.524553 -0.328819 0.671973
377 1 7.33036 3.04337 2.90904 0.268015 0.00689585 0.736525
378 1 8.11111 5.77334 2.5606 0.350312 -0.628956 0.128595
379 1 5.49928 0.538504 4.95668 0.551716 1.27381 -2.14475
380 1 7.54084 7.06236 9.0302 -0.665328 -0.645433 0.747369
381 1 7.48347 3.17122 7.89465 0.102665 -0.431237 -0.321148
382 1 5.04622 1.90057 7.48514 0.311076 -0.217926 0.349956
383 1 8.84892 8.09867 0.685746 0.696067 0.646337 -0.367844
384 1 7.54514 5.24767 5.56506 0.371684 -0.0166205 0.335771
385 1 8.33381 9.00996 0.918921 -0.185907 0.267038 -0.404648
386 1 0.262314 8.87775 0.577518 1.74133 0.960166 0.899041
387 1 2.55702 6.01222 3.08244 -1.09831 -0.544547 -0.468127
388 1 7.45935 5.87845 4.40036 0.535016 0.445778 -0.581273
389 1 5.73794 4.7639 8.39544 0.493575 0.869188 -0.466994
390 1 3.33058 9.20443 7.89635 0.801391 -0.306898 0.608729
391 1 7.82482 5.01016 0.18663 -1.317 0.560081 -0.314226
392 1 0.609597 5.61229 2.43889 -0.180848 -0.147127 0.202399
393 1 6.16658 0.731151 6.5082 -0.160721 -1.88325 0.199728
394 1 4.27168 4.74499 3.48305 1.4246 0.105892 -1.12145
395 1 4.11947 3.0283 9.39274 -1.62902 -0.823901 0.498423
396 1 8.48396 2.8037 2.70823 0.379411 0.771491 -0.564684
397 1 8.53053 5.00831 3.97798 0.306781 0.750697 1.29862
398 1 8.57474 6.87323 5.88781 -0.146656 0.114851 -1.45283
399 1 6.18249 6.38231 0.889356 -1.52703 0.56765 0.498589
400 1 4.81352 5.08484 0.787952 -0.355708 -0.87373 -0.615244
401 1 4.4473 6.31869 0.229598 -1.49866 0.306629 -0.768947
402 1 2.86647 3.86212 5.42763 -0.552798 -0.929107 -1.44853
403 1 1.975 4.0276 0.430511 -0.0205796 -0.73862 -0.909191
404 1 4.18253 7.66082 8.75821 -0.291979 0.80348 -0.386312
405 1 0.577667 6.5926 8.04282 -0.740107 -1.68062 -1.06085
406 1 9.3591 0.595807 7.78067 -0.606805 1.49106 0.049314
407 1 9.20416 1.65324 7.36929 -0.36334 -0.634608 -1.22612
408 1 6.23729 6.74411 2.38045 0.520801 -1.38927 1.05643
409 1 4.56547 1.86141 1.40232 -0.0450672 0.262938 0.149545
410 1 0.0380207 5.28063 6.29574 -0.298976 0.0165322 0.187939
411 1 4.0895 3.31759 2.77073 0.893952 -0.297887 1.1714
412 1 6.67672 3.20377 0.674981 -1.00572 0.306124 -0.430116
413 1 6.36803 8.84394 4.44563 2.13878 1.46995 0.889854
414 1 2.29706 3.26066 4.09571 -0.460024 1.18328 -1.41024
415 1 3.22418 4.99267 5.93605 0.791175 -0.113703 0.122456
416 1 2.31289 1.66367 4.74393 -0.409689 -0.0948047 0.903238
417 1 0.614689 3.20941 1.17915 0.901925 1.18797 -0.837371
418 1 5.78884 3.36349 4.14383 -0.636914 -0.411576 -2.0646
419 1 5.24741 7.57769 4.4395 0.330912 0.615945 0.0257868
420 1 3.84108 3.84365 4.78263 0.104942 -0.198152 -2.27519
421 1 6.10488 5.11081 3.59629 2.33646 -0.0479703 1.30419
422 1 0.232293 7.2386 6.12459 1.32143 -0.791379 0.363986
423 1 2.45075 5.12787 5.09164 0.304056 -0.591716 -0.616151
424 1 0.840326 8.44831 1.09335 -0.0033033 0.727566 0.504461
425 1 4.52026 7.96415 0.434226 -0.392976 -0.64596 1.73847
426 1 1.2178 4.66698 0.517473 1.39837 -0.65845 -0.61532
427 1 3.81275 7.06846 7.99763 1.04768 0.0618328 1.17751
428 1 9.04016 8.50588 3.12737 -0.0213228 0.297933 0.116718
429 1 9.41828 5.9744 8.7636 1.50692 0.804524 0.714255
430 1 0.19464 0.0451971 7.12603 0.422621 0.440407 0.251565
431 1 4.418 8.53462 9.02311 -0.558996 0.0238543 0.733733
432 1 3.39302 8.50932 2.07753 0.382038 0.615035 -1.14186
433 1 7.1447 0.210866 2.6494 0.550918 -1.35319 -0.530076
434 1 3.39009 7.07088 4.53421 -1.14979 1.27094 -0.468422
435 1 0.0878655 0.440257 4.04029 -0.0250842 -0.719685 -0.806252
436 1 1.71104 4.51826 3.20921 -0.050378 0.589073 -0.717666
437 1 3.54694 4.57266 7.98908 -0.244436 0.743828 0.23313
438 1 6.10419 3.95181 7.9385 0.433513 1.77318 0.962862
439 1 0.356229 8.98354 4.40142 0.254105 0.512844 0.401684
440 1 7.70131 4.90297 4.21419 0.940356 -0.45291 2.41624
441 1 5.67097 5.74161 1.36396 0.188154 0.627888 -0.321149
442 1 2.39186 6.76196 3.66183 -0.352388 -0.350763 -0.074756
443 1 6.0095 4.95233 0.201591 0.560169 1.04673 0.53364
444 1 7.18208 5.59342 0.838112 0.20555 -0.0516178 -2.56397
445 1 2.12728 5.27097 3.12276 -0.655456 -0.358732 -0.101531
446 1 0.65416 6.00257 6.55609 -1.21914 -1.18077 -0.409254
447 1 7.2728 9.29798 6.71317 -0.963611 1.02536 -0.123189
448 1 5.94534 5.47391 7.4617 0.542786 0.24528 1.26703
449 1 3.7806 0.302891 2.59952 0.365084 0.240258 0.0674902
450 1 4.42327 2.29082 8.78081 0.34875 0.865396 -0.624317
451 1 8.73529 1.83238 2.22685 -0.0843268 -0.269403 1.13931
452 1 3.90407 8.64266 4.30156 -0.660116 0.878479 -0.571771
453 1 0.428379 6.9429 9.21207 -0.192839 -0.712429 -0.75448
454 1 5.44905 6.1674 2.99827 0.123857 0.110483 0.00214308
455 1 4.67676 7.29435 1.29716 0.74251 0.100579 -0.417628
456 1 1.55433 1.32159 3.38039 0.0452847 -0.021547 -0.865424
457 1 1.26081 7.17592 4.85866 0.665335 0.771329 0.159079
458 1 2.44025 3.31663 2.89157 -0.363691 0.684395 1.788
459 1 3.28119 7.5676 8.73735 -1.1295 -0.482981 0.136138
460 1 2.91882 0.71564 7.63092 0.641542 0.161163 1.12558
461 1 6.0459 0.650309 7.87975 -0.341656 0.942788 -0.630475
462 1 5.23142 5.14207 1.96108 0.674425 -0.784201 -0.233765
463 1 4.77681 1.01574 0.487201 -0.319827 -0.174624 0.0485361
464 1 4.78472 9.14985 5.47312 0.0633482 -0.772622 0.675143
465 1 8.38338 8.51008 1.83256 0.218424 1.79216 -0.692316
466 1 0.362848 9.16698 6.20997 -0.352544 -0.151913 0.18412
467 1 8.6447 2.02249 3.25371 0.649813 0.656155 -0.978464
468 1 7.65637 2.27818 6.23443 -1.29885 0.158638 0.905728
469 1 6.02309 3.94968 0.538076 0.178002 0.50563 -1.09662
470 1 9.19195 5.51698 1.08443 0.506925 1.15016 -0.928244
471 1 1.83707 1.98919 5.49037 -0.171097 0.0127143 0.931853
472 1 1.98174 9.15857 9.24843 0.176487 -1.08133 -0.238982
473 1 1.63526 8.47053 6.212 0.0496272 0.625338 0.168141
474 1 2.78646 6.12896 6.65058 0.56443 0.148001 -0.87708
475 1 8.17783 0.346969 8.19418 1.14975 -0.902137 0.778444
476 1 3.67017 3.32639 7.47922 -0.111743 0.233609 -0.145854
477 1 2.01619 5.92755 2.38297 -1.10532 -1.65553 -0.0724894
478 1 5.82703 2.00337 6.81912 1.0784 0.216739 -0.961369
479 1 0.456886 1.68455 8.12215 -1.32554 1.48662 0.752094
480 1 5.63098 9.11033 0.436266 -0.191386 -0.440423 0.72224
481 1 5.44453 0.681613 8.42919 -0.510182 -1.14665 -0.376336
482 1 0.111059 5.59587 4.07622 0.488431 -1.20015 0.0197901
483 1 2.41925 1.59116 0.880173 0.195617 0.468469 -0.303281
484 1 7.64112 7.27103 5.55798 -0.387746 0.223748 -0.791432
485 1 4.9861 5.65136 6.35131 0.297918 0.942587 -0.589386
486 1 4.77928 1.40878 8.15912 0.581827 -0.98217 -0.205541
487 1 0.799764 6.91257 5.56265 0.186581 -0.303753 1.17369
488 1 3.47587 4.18894 7.08293 0.82645 -0.994188 0.425602
489 1 0.101583 8.7991 7.72149 -0.129816 0.338773 0.173709
490 1 8.1917 8.35403 3.7286 -1.13153 -0.114274 -0.077272
491 1 8.23996 2.79325 4.95847 0.409846 1.01863 -1.14478
492 1 0.148366 4.68773 7.11289 0.588457 -0.384683 0.169971
493 1 1.91359 9.25251 6.72618 1.61445 0.00498604 0.144608
494 1 0.923612 3.66702 5.17274 0.664642 -0.241141 -0.0666199
495 1 3.86206 0.32317 4.04117 0.176175 0.236548 -0.136577
496 1 8.03177 6.7834 1.71346 -1.74726 0.782893 -0.143777
497 1 7.02335 4.67229 6.23989 0.0324027 -0.0595243 1.116
498 1 2.79489 1.58879 8.01145 0.713736 -0.263206 1.41996
499 1 5.57836 2.33077 1.75629 -0.196496 -0.195858 0.504958
500 1 5.72341 4.11498 6.1488 0.613835 -0.58038 -1.72808
501 1 1.93571 2.53762 6.66451 -0.417544 -0.512509 -1.01708
502 1 1.58644 5.63042 5.06764 1.23024 -0.906973 -0.841752
503 1 5.26878 8.07337 9.2895 -0.625757 -0.147786 -0.345517
504 1 9.29439 2.87393 3.39334 1.3783 0.437346 0.994615
505 1 1.35824 3.09104 4.20546 -0.595942 0.373323 -0.292434
506 1 5.87084 2.03694 8.93116 -0.784769 0.878538 -0.0214595
507 1 4.01117 7.04281 0.0910631 1.68134 1.01788 0.679301
508 1 8.15784 0.766935 6.23539 0.366975 -0.76436 -0.907326
509 1 1.27689 0.441921 1.78931 0.644245 -0.135353 0.474109
510 1 2.00747 1.17108 7.98791 -0.827165 0.190173 0.247442
511 1 2.99139 2.46107 6.79953 0.759053 -0.525879 0.121898
512 1 4.82605 3.26684 8.66572 0.082602 -1.13392 -0.610971
513 1 4.72265 8.29756 4.64815 -0.782274 0.335713 -0.163395
514 1 5.44583 6.54753 0.12434 -0.673696 0.139775 0.067484
515 1 2.33583 2.31381 8.39876 -0.507015 1.46255 -1.15535