ITEM: TIMESTEP
321150000
ITEM: NUMBER OF ATOMS
1000
ITEM: BOX BOUNDS pp pp pp
0.0000000000000000e+00 9.4000000000000004e+00
0.0000000000000000e+00 9.4000000000000004e+00
0.0000000000000000e+00 9.4000000000000004e+00
ITEM: ATOMS id type x y z vx vy vz
1 1 4.39383 6.49535 4.43439 -0.19825 0.429885 0.298692
2 1 0.11435 8.74566 9.22406 0.456302 0.859206 1.30258
3 1 0.193966 8.83123 8.09302 1.27494 -1.3625 -0.0673152
4 1 3.67277 9.20768 5.51409 0.589453 -0.74978 -0.318605
5 1 1.45525 4.36254 0.189051 -0.461589 -0.136037 -0.883804
6 1 3.18309 0.942329 2.31905 -1.88258 0.603173 0.729569
7 1 7.46068 7.35885 9.01473 1.06715 -0.681855 -0.235424
8 1 7.57915 3.06764 6.04675 -0.108312 -0.659523 0.61346
9 1 4.26896 2.78462 0.326916 0.317095 -0.224296 -0.675803
10 1 6.18728 6.67788 7.49857 -0.379408 -0.0633051 1.03285
11 1 1.34481 5.47854 4.29201 0.511025 -0.536426 -0.0613462
12 1 8.23346 4.24042 4.71679 -0.114986 0.0322611 -0.423127
13 1 3.18088 4.1012 8.95092 -0.300894 1.43128 -0.340211
14 1 0.106727 1.46208 5.42845 1.48021 1.11561 1.19944
15 1 2.33967 5.29475 5.29497 0.09431 1.43773 0.214021
16 1 5.36792 8.40654 6.03107 -1.13834 1.90871 1.10586
17 1 2.12435 0.611567 2.67314 -0.0481936 0.146802 -0.960323
18 1 6.92886 1.08063 9.23772 0.425178 -0.302251 -0.242665
19 1 7.2511 5.16744 0.0676592 1.69434 0.919823 1.63069
20 1 9.19816 2.78071 7.62525 -0.622363 0.0407427 -0.396558
21 1 3.58122 5.11189 7.3317 -0.239394 0.879764 0.336257
22 1 9.38068 0.490775 1.07748 1.56517 -0.492551 -0.558173
23 1 5.50833 6.01142 5.47392 0.181997 -0.620457 1.79753
24 1 3.44983 8.76549 0.847755 -0.162478 -0.070254 0.902926
25 1 3.13999 1.29444 0.268164 0.147691 0.716838 0.376093
26 1 8.59302 7.7841 9.00732 -0.654932 -0.824959 1.33611
27 1 3.6648 2.25446 7.28944 -1.377 0.709789 0.263803
28 1 8.01116 5.63535 3.46116 0.232676 0.0783136 0.175347
29 1 0.00305228 1.46148 3.95548 -0.116403 -0.0399419 -0.504195
30 1 3.83739 5.69084 3.25779 0.708665 0.648444 -0.47283
31 1 7.54658 1.39941 0.435757 -0.202927 -0.453718 -0.695038
32 1 5.81953 2.3246 5.50451 0.374323 0.690425 -1.16485
33 1 1.66482 7.83139 0.244789 0.435582 0.530045 1.20557
34 1 6.99071 6.35585 5.59058 0.932591 -0.660338 0.740408
35 1 7.68318 0.44994 5.19671 -0.636196 -0.793194 0.769193
36 1 3.09442 6.92758 2.28158 0.00451191 0.239376 -0.167336
37 1 4.34062 7.2924 2.20039 -0.737604 1.05363 0.626248
38 1 1.08899 1.1739 6.10352 0.459108 -0.0745809 2.09525
39 1 8.96242 4.3762 8.11282 0.651156 -0.572961 0.4075
40 1 2.24591 6.7987 7.72308 -1.29093 -0.657851 0.777569
41 1 0.0626922 1.86344 2.08 -0.268579 0.749647 -0.960152
42 1 6.85629 1.41009 2.10365 0.601937 -0.181347 1.11483
43 1 8.59215 6.51532 3.67688 -2.31393 0.5798 -1.47622
44 1 1.69373 4.50247 1.08756 1.43786 -0.263645 0.217155
45 1 3.29218 2.68523 6.18744 -0.953424 -0.24327 -1.50043
46 1 6.98425 3.15453 4.30814 -0.157939 -0.0269622 -0.734528
47 1 2.57987 4.63916 4.45654 -0.26683 0.0651602 -0.537904
48 1 3.34412 1.29377 8.66313 0.504078 -0.938748 1.3097
49 1 0.881763 2.76041 8.2446 -0.0784005 -0.314242 0.00649549
50 1 0.694531 4.50605 3.07177 0.260038 0.50813 -0.245118
51 1 0.492287 2.67292 0.336912 -0.134017 0.191976 -1.27751
52 1 2.86846 7.94443 5.83333 -0.758678 0.555091 -0.700098
53 1 0.750584 7.14291 6.29863 -0.0238706 -0.496489 0.146924
54 1 4.91247 7.86106 0.163995 -0.942038 -0.660961 -0.823982
55 1 0.716862 4.38649 9.23422 0.228058 -1.46866 0.268917
56 1 6.94686 0.278333 3.98641 -0.451502 0.954705 0.0968437
57 1 4.82437 6.43881 2.56665 0.947338 -1.33245 0.686569
58 1 7.77369 8.38909 1.97657 -0.760079 -0.410628 0.146999
59 1 2.40932 5.55198 7.62648 -0.295825 -0.208166 0.620856
60 1 3.52608 7.67497 6.6172 -0.813368 -0.553064 -1.95704
61 1 7.12858 8.17504 3.01473 0.300377 -0.149926 1.22874
62 1 1.14123 5.02698 1.5555 -1.04779 0.733308 -0.10309
63 1 9.41207 3.26298 5.78868 0.797898 0.347549 0.126745
64 1 0.853329 4.06634 5.90345 -1.53131 0.229253 0.281989
65 1 0.436769 8.85844 5.75668 -0.233446 -1.12573 0.204194
66 1 6.16632 1.20816 1.35189 -0.42858 -0.369417 -0.925718
67 1 5.24989 2.1298 0.826155 -0.202922 -0.532168 -0.606849
68 1 5.50625 6.64051 1.72534 0.609296 0.047069 -0.287418
69 1 7.73374 7.76561 1.34947 -0.045394 0.0749308 -1.09673
70 1 2.14604 2.09228 1.41277 0.501842 -0.450415 -1.11397
71 1 5.33723 3.00892 0.256396 0.582745 0.995289 -0.150013
72 1 6.31411 0.713769 3.45579 -0.756628 1.44628 -0.778872
73 1 1.63541 4.68614 4.65623 0.667873 -0.0366477 0.344147
74 1 1.67987 4.99476 8.02601 -0.319705 -0.150723 1.63637
75 1 2.06597 8.29379 1.80835 0.606436 0.65865 0.741975
76 1 9.21657 8.03329 2.67141 0.580488 1.25261 -0.687103
77 1 6.38688 8.82224 3.09974 -1.15297 -0.680178 0.128511
78 1 6.26029 4.89448 1.84595 -2.02916 0.073099 -0.159289
79 1 4.37817 4.79768 4.60383 0.442449 0.306489 0.283312
80 1 6.13942 4.78298 8.74179 0.812392 1.02377 0.340108
81 1 3.78363 6.74182 1.59754 -0.977867 -0.158813 0.607672
82 1 6.95018 6.6204 8.77005 0.349676 -0.326135 1.01323
83 1 6.70705 6.26696 4.70961 -1.28621 0.11345 0.202567
84 1 8.15149 9.2029 1.71292 -0.670788 0.589527 -1.00503
85 1 2.16891 5.28431 4.03344 0.517205 -1.12781 0.128368
86 1 1.65463 8.23435 6.87324 -0.391604 -0.509304 -0.118986
87 1 6.73159 4.69384 4.72429 1.03172 -0.0413271 -0.458783
88 1 5.15119 7.339 6.6046 1.44412 -1.33751 -0.813067
89 1 6.34462 3.6039 7.94434 0.780229 0.15196 0.796544
90 1 7.6702 8.28549 9.13759 0.00103855 1.44458 1.07901
91 1 1.26428 6.25886 3.59727 1.46407 -0.487194 0.542957
92 1 8.67202 2.98841 0.794087 0.473098 0.153337 -0.143238
93 1 8.85991 1.8527 3.07221 -0.798982 0.400596 0.124612
94 1 2.03009 3.53181 1.29313 -1.285 0.813851 -0.0991954
95 1 4.071 3.00007 5.19825 0.991549 -0.604547 1.83569
96 1 5.21398 8.87692 2.15935 -1.44704 0.702546 0.386687
97 1 6.12587 7.32279 1.8021 1.11967 -1.1702 0.314412
98 1 2.83733 6.19346 2.68202 -0.676104 -0.429282 0.773726
99 1 6.00424 6.70672 5.46596 -0.461222 1.55884 0.238343
100 1 8.86176 8.60867 5.91047 -0.605228 -1.06847 1.12493
101 1 7.32038 8.79562 6.82279 1.83323 0.0858055 0.513939
102 1 4.9009 5.17121 0.883535 2.8568 0.646169 0.340492
103 1 3.73717 5.53147 4.67559 -0.53713 -0.0277989 -1.23908
104 1 0.131952 4.54607 5.30661 -0.0839302 -0.223353 -0.274707
105 1 5.57045 2.23187 3.60317 0.192035 -0.164994 -0.498059
106 1 4.76605 3.87382 2.75929 -0.0797588 -1.09994 0.307973
107 1 1.55686 4.29837 8.61952 -0.230861 0.425955 2.17624
108 1 7.05182 8.53268 7.69621 0.0347898 0.11241 -0.518616
109 1 3.0114 5.23605 9.36689 0.00874338 -1.3305 0.723098
110 1 8.28299 6.2289 4.6401 0.256302 0.844961 0.00968944
111 1 1.36828 4.08806 7.66519 0.443143 0.172366 -0.394758
112 1 2.15429 5.54306 1.82338 -1.5622 -0.623128 -0.825278
113 1 4.69428 5.58255 3.0717 0.441469 -0.298013 0.795108
114 1 7.40778 6.55237 2.19841 -1.21825 0.153916 0.996774
115 1 8.98251 5.97338 8.06741 0.270403 -0.290509 1.63432
116 1 8.49975 2.64216 8.63308 0.227262 -0.316771 0.414653
117 1 7.02473 1.75487 1.11588 0.448474 1.55889 0.344233
118 1 7.72842 9.34981 0.936771 -1.21799 0.468816 -0.164148
119 1 4.2663 8.53666 5.01852 -1.11018 0.313621 0.896355
120 1 2.81544 5.23851 6.73841 -0.0645012 1.71825 -0.017777
121 1 2.70976 6.09234 4.34205 -0.84219 0.0193416 -0.194186
122 1 7.31961 1.24141 4.12807 -0.296809 -1.07197 1.80244
123 1 2.78063 2.12114 6.98432 -0.0338053 -1.26877 -0.165407
124 1 6.09888 8.32886 6.87949 -1.76525 -0.286439 0.317555
125 1 5.17931 7.63403 4.40561 -0.370384 -0.963346 0.669256
126 1 5.53953 6.59275 6.4097 0.621578 -0.339368 0.672602
127 1 5.87103 7.99073 1.23199 0.324644 0.149831 -1.08161
128 1 0.539624 5.26524 9.3103 0.103654 0.867551 1.2034
129 1 4.90065 0.907245 9.19935 0.254696 0.729261 0.770591
130 1 9.28042 6.50138 1.01142 -0.656932 -0.137982 -0.02062
131 1 8.10855 1.71377 3.88922 0.141076 0.939148 0.243933
132 1 1.9709 5.03196 7.0298 1.02093 -0.564623 0.0966845
133 1 0.98251 8.84182 0.172177 -0.753672 -1.40861 0.633449
134 1 0.309588 7.90196 5.26327 0.74561 -0.473019 -0.111336
135 1 4.843 0.592954 2.8239 1.97583 -0.0786375 -0.248216
136 1 1.59432 6.2298 2.77018 0.799798 1.30698 0.266064
137 1 4.77443 3.5783 6.86978 -1.08685 -0.51093 1.2862
138 1 6.04673 8.13781 8.61635 1.50639 -1.35342 0.592159
139 1 6.56051 6.42363 6.50594 -0.180202 -0.672807 0.0259502
140 1 2.53823 8.82761 2.57951 1.04442 -0.716016 0.733795
141 1 4.0499 1.89004 4.67815 0.845715 -1.10011 1.41955
142 1 4.72242 9.0991 8.33061 0.964595 -0.971444 0.249529
143 1 7.55097 4.75402 5.07614 -0.176167 0.0798543 -0.169388
144 1 6.09597 8.14568 7.73362 -1.31497 -0.897629 -0.729641
145 1 3.19108 2.96414 3.21397 0.462001 0.0767913 -0.764495
146 1 0.790022 9.29358 1.78391 -0.0782053 1.49124 0.102088
147 1 7.59907 7.56617 2.47638 -0.732695 0.598009 -0.885091
148 1 3.84616 5.93254 5.55964 -0.334377 1.03895 0.285041
149 1 6.37535 5.662 8.7849 0.963031 0.202853 -1.2617
150 1 3.34428 2.4367 2.37648 0.775901 0.0693368 1.50311
151 1 6.07937 3.92215 0.854676 -0.0955174 0.145214 0.868494
152 1 0.178584 3.02409 4.56427 0.208599 1.1687 0.456378
153 1 0.620184 3.82716 8.3245 -0.0663371 0.422582 0.288773
154 1 2.82569 0.668833 9.01147 0.377686 -0.191178 -0.868145
155 1 4.59115 1.5894 3.96362 1.41719 0.376168 -1.03011
156 1 3.21564 7.4468 4.08108 -1.48131 1.30241 -0.394645
157 1 3.62054 6.70823 8.68769 0.194378 0.0351392 -1.22639
158 1 4.84746 7.65444 3.42029 0.156528 -0.137779 0.369337
159 1 4.40275 2.95143 6.29924 0.142356 0.803198 0.558893
160 1 0.482011 7.52837 1.30297 -1.78474 0.793026 0.102263
161 1 2.13663 8.26844 5.24632 0.0983877 0.947109 -1.2678
162 1 3.20023 8.85432 6.2488 1.10622 -1.49072 -0.753485
163 1 6.83175 3.69475 3.56419 1.44751 -0.602417 -0.0259773
164 1 1.83069 3.36803 7.76531 0.318138 -1.36886 -0.0738576
165 1 0.180795 4.62964 1.51231 -1.21538 0.243223 -0.00788147
166 1 9.19804 3.6388 1.53841 0.969719 -0.0992851 0.707892
167 1 3.47893 1.17909 5.12207 1.55353 -0.271071 -0.829796
168 1 9.12689 1.77601 7.30027 0.142613 0.656246 -0.178327
169 1 1.80059 2.53273 8.18626 1.23241 0.244552 1.05111
170 1 4.47486 5.77751 3.97908 0.292953 -0.438501 -0.963368
171 1 6.86106 1.29817 8.23819 1.50361 -0.15765 -1.62041
172 1 1.03313 5.02801 0.64608 -0.264835 -0.843546 1.2556
173 1 9.26909 0.265316 6.7223 -0.00827635 1.13813 0.178257
174 1 3.99878 6.69418 6.3204 -0.854898 -1.08557 0.498173
175 1 3.65302 7.81764 4.86875 2.24411 -0.58928 0.790703
176 1 4.52329 7.81028 6.00867 1.31505 0.152137 -0.188673
177 1 0.0333243 4.31789 6.26987 -0.73557 -0.520049 -1.32762
178 1 7.66623 5.81503 2.61477 -1.49969 0.465326 -0.38612
179 1 0.408605 3.10941 8.99658 -0.629799 -0.614261 0.166518
180 1 5.42229 9.10417 7.51779 0.949771 -1.20071 0.502012
181 1 1.02412 6.8239 1.07464 0.271469 -0.0946915 1.42757
182 1 0.753689 8.62192 3.07497 -0.574892 -0.121155 -0.186276
183 1 1.41635 1.25968 7.86939 0.458631 0.0191759 0.685764
184 1 3.9733 8.4947 8.33633 0.259894 0.631933 -0.687996
185 1 7.35267 7.86154 5.56637 1.14004 -0.929797 -0.680626
186 1 5.0543 3.78928 6.07392 0.516477 1.26816 0.493346
187 1 2.98972 8.084 0.162118 0.511695 0.672634 -1.53179
188 1 4.43688 4.86475 6.7356 0.106857 -0.690733 -1.70291
189 1 9.03964 5.76779 3.54958 -1.23501 0.0580916 0.148663
190 1 0.801187 6.36415 4.67933 -0.379493 -1.00476 0.414769
191 1 0.427462 0.319196 7.99878 1.70929 -0.802833 -0.946993
192 1 7.99447 5.47055 6.66692 -1.18534 1.63587 -0.443398
193 1 4.42655 0.540989 8.41208 0.867448 0.212759 0.484298
194 1 3.44178 4.7137 5.97822 0.811845 -0.811593 0.467929
195 1 2.96494 1.92821 4.32109 0.539779 0.440378 0.0735709
196 1 9.06826 9.02266 1.55347 -1.10128 -0.617829 1.25994
197 1 7.99712 8.79982 7.87144 0.0656932 0.0701703 0.912183
198 1 7.62162 5.19431 4.29487 0.529052 -1.17444 -0.0647912
199 1 7.62455 5.74962 0.645616 1.02306 -1.68643 1.68592
200 1 4.66247 2.8925 1.27086 -0.292442 0.951192 -1.01
201 1 4.68268 1.76546 3.09303 0.778109 -0.228012 -0.251882
202 1 7.30477 4.35656 4.14924 -0.0946013 0.286061 -0.012586
203 1 2.51029 9.3385 8.7082 0.0758177 -1.14794 0.990684
204 1 4.2464 9.36136 3.78878 1.07387 -0.302505 -0.880085
205 1 3.07458 4.76477 1.08316 1.8151 1.27036 -0.997305
206 1 0.774301 1.92523 5.84157 0.345981 -1.03807 -1.64551
207 1 8.60836 6.59552 7.28401 -0.15995 -0.502356 0.168875
208 1 3.08889 3.20767 8.47959 0.0310147 -0.103622 -0.0864589
209 1 6.91184 8.74135 3.77426 -0.795492 -0.852795 1.64805
210 1 0.897272 8.0867 8.87383 -0.110903 0.697905 -0.20158
211 1 2.70873 2.86692 1.50272 1.22301 -0.14818 0.0444753
212 1 7.68983 1.5541 1.96024 -0.0331349 -0.282167 0.351475
213 1 5.18262 7.16204 5.74031 -1.17434 -0.113525 0.896211
214 1 8.80776 5.91403 9.09933 -1.03056 0.160289 -0.554736
215 1 5.97357 5.1213 5.03861 -0.0262944 -0.383455 0.104325
216 1 4.80296 5.66544 5.03878 0.252405 -1.13818 0.168646
217 1 3.77247 3.4755 0.819344 -0.369046 0.491402 -1.31641
218 1 4.82143 2.60039 8.5716 -0.683842 0.732261 0.966211
219 1 5.90225 7.75592 6.01545 0.852832 0.314236 0.115097
220 1 0.765784 8.54259 7.16656 0.168188 0.67476 0.648334
221 1 6.30411 2.51821 4.24057 -0.169185 0.107323 -0.905929
222 1 1.13944 0.673702 0.186346 0.826502 -0.134884 0.847104
223 1 6.95476 8.93398 0.314745 0.41639 -0.861227 0.887277
224 1 0.736049 4.77197 8.18034 1.2026 0.725606 0.432299
225 1 9.34594 8.13546 8.56622 0.357933 1.29548 0.307919
226 1 4.15386 4.32431 1.65122 0.908813 -1.24312 -0.0369957
227 1 0.986249 5.06563 6.26939 -0.592649 -0.504014 -0.0499015
228 1 1.31352 4.35691 6.74893 0.554149 0.0934057 -1.33909
229 1 1.32619 1.81479 8.54762 0.144002 -0.260103 -0.880272
230 1 5.61622 0.550295 7.30427 -1.47176 -1.14548 -1.45457
231 1 6.53314 6.46387 3.70515 -0.222193 -0.624753 0.357721
232 1 7.42283 7.21254 7.09692 1.08079 1.70689 -0.395883
233 1 1.0458 3.3783 3.40373 -1.10123 1.23042 0.719988
234 1 0.961443 3.63119 1.37025 -1.24593 -0.500847 -1.84524
235 1 1.67533 7.23495 3.43324 1.80655 1.0959 0.412509
236 1 4.68088 5.63557 9.3295 -0.228449 -0.108934 0.492
237 1 9.36579 1.18154 6.38944 -0.399256 -1.10048 0.0202233
238 1 6.14104 7.68481 3.03928 1.16615 0.635617 -0.314743
239 1 6.18446 3.31852 0.154399 0.0845033 -0.150225 0.200211
240 1 3.42451 4.59546 2.15853 0.405911 0.321088 0.883903
241 1 5.4901 4.52557 6.61634 -0.722391 0.250251 -0.661143
242 1 4.69082 1.94924 0.00762065 -1.12456 0.389033 0.0151777
243 1 5.8792 6.64452 4.304 0.396276 0.181811 -0.380715
244 1 3.20668 7.84839 1.36477 -0.556552 -0.627104 0.0684145
245 1 6.99114 3.76373 4.99709 -0.200503 -0.147567 -0.670315
246 1 5.18111 4.68137 8.30081 1.58208 0.679425 0.665705
247 1 8.9201 6.09933 5.2495 0.103511 -0.106794 -0.350973
248 1 4.21442 4.73913 2.67131 -0.535316 -0.0930718 0.393661
249 1 7.81409 3.56175 3.77001 0.111262 0.934273 1.30592
250 1 9.1976 7.8906 0.456112 -0.509422 -0.803964 0.875564
251 1 1.93402 1.53331 5.78946 0.33521 1.47097 0.602638
252 1 6.12505 0.0561082 0.629349 0.309642 -0.0397652 -0.115457
253 1 9.19145 0.0874698 5.73742 -0.847958 -0.177751 0.319066
254 1 1.23453 8.79238 6.25949 1.12086 -0.155701 -0.353463
255 1 3.75361 4.41632 8.01529 -0.484178 -0.868438 -0.0416866
256 1 8.24765 3.92809 7.8587 0.0489264 -0.985521 -2.2652
257 1 7.81786 4.29555 6.64665 0.000192856 -0.0437326 0.597519
258 1 9.04635 4.72895 0.0628357 -0.0103482 -0.0179714 0.277627
259 1 3.52717 1.42903 7.82235 1.04009 1.26072 0.103821
260 1 8.48187 2.7503 3.64866 -0.455651 0.645312 0.457304
261 1 6.35077 9.06735 7.48668 -0.373269 1.40194 -0.221388
262 1 3.89427 1.98253 0.487872 -0.594812 -0.313498 -0.329852
263 1 4.30186 9.27391 1.74995 -1.22637 -0.211883 0.782046
264 1 5.42265 4.35902 0.422247 -0.991799 -0.335608 0.430186
265 1 7.96607 5.78284 5.83312 -0.742208 -0.254394 -0.108223
266 1 7.37724 1.56209 5.28085 -0.912489 0.422161 0.549301
267 1 1.89195 4.83353 2.57245 0.495642 -0.742103 0.750295
268 1 9.26474 6.85628 7.87598 0.961413 -0.652651 -1.66425
269 1 1.35834 2.03624 1.92561 0.705589 -0.114592 -1.78389
270 1 0.845043 0.892106 5.31868 0.155109 0.457573 -0.263759
271 1 8.10544 7.66958 0.365524 -0.626878 -0.660738 0.240377
272 1 7.07748 5.56366 6.32828 -0.725907 -0.190384 0.144602
273 1 3.53685 7.98955 2.29119 -0.606645 -1.66145 -0.0316773
274 1 1.83747 0.376088 7.96835 0.0606533 -0.981547 1.12956
275 1 1.66187 9.04021 3.12891 0.225272 -0.383554 0.0984686
276 1 9.34843 5.17483 7.72025 0.353705 0.277326 0.778234
277 1 0.607932 7.6997 3.49148 -0.0880963 1.19508 -0.517146
278 1 8.23932 2.41057 4.75177 1.18591 0.560668 1.27636
279 1 3.66669 1.01652 4.12863 0.403263 -0.812432 -0.136155
280 1 1.1681 7.88432 5.86527 0.77473 0.991084 -0.61266
281 1 0.891584 5.44791 3.33178 0.271441 0.403303 0.259994
282 1 1.92111 9.13699 4.9792 -1.14545 0.237039 -0.382795
283 1 0.623038 1.42466 4.67654 -0.426571 0.861703 -1.62742
284 1 2.85412 0.726808 4.57736 0.420646 -0.0134883 -0.775296
285 1 7.53501 3.42534 0.0611522 -0.928768 -2.03329 -1.19945
286 1 7.66778 1.38045 8.84119 0.267799 -0.529825 -0.38336
287 1 3.41113 2.91011 0.169559 -0.443958 0.758986 -0.011089
288 1 6.53028 5.09298 7.76385 0.567644 -1.28447 -0.357937
289 1 8.38505 8.46954 1.13762 0.104208 -0.363411 0.325069
290 1 3.08784 3.82905 4.23028 -0.592239 -1.10731 -0.936475
291 1 3.50198 4.80097 4.25684 0.744187 0.645014 -0.128326
292 1 0.972702 6.62433 7.27357 0.748027 -0.364855 0.52171
293 1 4.41387 6.81181 7.53548 0.301712 -1.62095 -1.8516
294 1 5.98519 0.320018 1.52979 1.87588 0.214556 -0.643887
295 1 5.85068 4.0397 5.24428 0.328422 -0.609278 -0.688272
296 1 1.92257 0.670506 1.35212 1.2751 0.613227 0.72475
297 1 5.16123 8.30645 7.97907 -0.330179 -0.39697 -0.605313
298 1 0.203989 3.43138 3.05478 0.112588 0.892051 2.01563
299 1 2.1466 0.7712 0.417647 1.23328 -1.52917 0.739318
300 1 5.45737 5.10576 2.22097 -0.989187 -1.34451 -0.647775
301 1 1.48042 2.60954 9.22414 0.532349 1.25606 0.288789
302 1 3.96809 5.28032 0.2975 -0.188191 -0.671722 0.426477
303 1 8.48599 0.917547 8.14356 0.325935 -0.0622202 0.601223
304 1 7.06432 0.300357 2.7179 0.362837 -0.129727 1.27917
305 1 0.789572 5.1927 4.89802 -0.218496 0.4345 0.086811
306 1 8.3676 1.25065 7.12775 0.785196 -0.0929586 0.950585
307 1 5.42133 1.42492 7.03716 -0.780574 0.597184 -0.707354
308 1 5.64188 4.68141 1.285 0.622262 0.354659 0.496735
309 1 2.04272 5.5117 0.177541 -0.923456 0.291996 -1.66376
310 1 0.467516 1.54636 7.00211 -0.0695678 -1.20726 -0.119953
311 1 6.26214 4.03357 6.27918 -0.954066 -1.53106 0.873681
312 1 6.74055 3.11327 0.775811 0.569849 0.508465 0.343589
313 1 8.83373 7.30586 1.14609 -0.939387 -0.266355 0.0600003
314 1 4.30983 3.69595 7.82848 0.257915 -0.212462 0.660554
315 1 3.84332 7.32808 7.95772 -0.161568 -0.475552 -1.30636
316 1 4.96361 4.58663 5.33366 0.357778 -0.104215 0.145258
317 1 8.43721 0.497738 8.90302 -1.10541 -1.13227 -0.0564473
318 1 9.10005 8.90997 7.15748 -0.0952509 -1.39862 -0.575893
319 1 4.17764 9.13343 2.79987 1.14084 0.0925303 0.293735
320 1 4.95793 8.69072 9.12317 -0.458192 -1.25635 -0.383473
321 1 6.86699 0.466629 1.75327 0.209072 -0.304912 -0.278963
322 1 2.53704 3.47427 6.34996 0.410018 -0.401551 -0.537142
323 1 1.3408 8.00983 2.946 -0.00527562 0.925913 0.0451088
324 1 2.7268 0.0820723 7.51471 0.301471 -0.197502 0.406943
325 1 4.98774 3.77738 9.35288 -0.623757 -0.198366 -0.609431
326 1 1.43494 2.10779 7.35061 -0.930833 0.405495 1.07164
327 1 0.837662 1.14546 8.79761 1.33438 -1.0098 -1.59046
328 1 7.2419 1.49372 2.9835 -0.246636 0.231437 0.994804
329 1 5.6826 2.56988 8.02939 0.121638 0.422307 0.322544
330 1 6.42534 4.9581 6.54582 -0.975273 -0.614583 0.116264
331 1 4.76146 5.66094 7.29428 -0.290123 -0.183445 0.277745
332 1 0.276354 2.83404 1.20276 0.134932 0.242089 0.577773
333 1 1.83439 5.58206 6.27397 0.690544 0.000206999 0.689635
334 1 0.384737 4.32087 0.621204 -0.260519 -0.881075 0.0732088
335 1 7.46047 5.91818 1.59683 0.161741 -0.0918536 -0.661473
336 1 0.417334 6.93718 0.414586 0.128327 -1.01322 -1.01398
337 1 2.21019 8.48188 4.30178 1.44228 0.457817 0.357526
338 1 8.07 6.54807 8.15465 0.746403 0.273958 -0.0333968
339 1 3.1525 0.0932341 2.78485 -0.828761 0.615872 -1.24281
340 1 2.68591 5.2046 2.60102 -0.982549 -0.754296 -1.33792
341 1 7.37336 1.44101 6.93123 1.43599 -0.94863 -0.070654
342 1 8.29564 8.91667 6.95031 0.0269151 0.582658 -0.56406
343 1 8.45189 1.73724 0.53371 0.359732 0.0569875 -0.240541
344 1 4.24599 6.0386 8.02927 1.36238 0.520475 0.10471
345 1 3.48297 5.61103 8.07447 1.59331 -0.198943 -1.06339
346 1 5.76817 3.76961 8.63362 -0.0667374 1.31408 -0.461638
347 1 7.42701 4.33306 -0.0205135 0.335716 -0.667925 -0.887387
348 1 7.74047 0.57856 0.0678692 -1.1394 -0.989219 -0.438796
349 1 8.67931 8.61763 4.10017 -1.63673 0.790789 -1.95735
350 1 8.03433 2.5013 6.5459 0.114302 -0.103373 0.780163
351 1 4.68084 7.70379 8.52883 0.0561891 -0.713457 0.218866
352 1 7.18327 2.81079 7.68746 0.243423 0.559162 -0.0750052
353 1 8.63343 1.67366 9.08833 -0.284024 0.509706 -0.599136
354 1 5.2716 2.34365 1.88458 -0.988112 -1.03797 -0.652569
355 1 6.22715 2.99373 2.01833 0.794192 0.487348 -0.738198
356 1 4.16522 0.984749 3.18789 -0.654044 1.73268 1.27255
357 1 7.63641 3.01445 2.83384 0.0710096 0.0947522 0.302679
358 1 3.47061 6.88348 7.17441 1.45117 -0.303389 0.305074
359 1 6.20153 1.53427 3.08906 -0.62126 0.344732 -0.891012
360 1 2.64452 2.74023 7.68075 0.589392 0.00754771 -0.680087
361 1 5.2499 1.25271 2.44757 1.07498 0.122791 -1.32348
362 1 8.66201 3.8417 5.46935 0.58957 -2.3835 -0.87825
363 1 7.52408 5.65059 7.61869 1.42218 0.206431 -0.599299
364 1 8.47311 0.230992 2.71332 -0.825844 -0.390147 -0.912873
365 1 1.28016 8.60036 5.20834 -0.37302 2.43008 0.0368783
366 1 8.40399 7.33155 6.61907 0.635531 -0.243322 0.182347
367 1 1.64824 4.6599 3.41845 -0.00704167 0.522568 -0.345243
368 1 2.81149 0.959513 7.20601 -1.71831 -0.424466 -0.124775
369 1 2.60376 4.20821 2.7047 -0.955605 0.699844 0.978451
370 1 2.38419 7.4996 0.638941 1.15255 0.0893476 0.330294
371 1 6.70561 8.06109 0.0403215 -0.357715 0.704712 -0.372687
372 1 1.42236 5.37723 5.38759 -0.823913 0.970781 0.186338
373 1 2.49954 4.16443 5.55165 1.19738 0.768008 -1.30876
374 1 3.07452 2.12826 9.19924 -0.140543 0.0935386 -0.634528
375 1 0.604292 4.84481 3.97211 0.20051 1.01415 0.229532
376 1 9.38434 3.56962 0.279986 0.185178 -0.865499 -0.234084
377 1 8.67104 9.25805 8.24249 -1.10392 -0.787444 0.751549
378 1 8.91249 7.86764 4.63679 1.63561 0.645883 -0.0813185
379 1 5.41366 1.49278 0.25534 -0.551656 -0.431328 -0.0494849
380 1 1.39969 3.3498 7.06317 -0.743676 -0.244501 0.70449
381 1 0.835843 2.8281 2.01102 -0.0687377 -1.24015 0.115345
382 1 4.47664 8.41842 2.03276 0.683085 0.386519 1.21665
383 1 7.97162 7.98461 8.32635 0.775972 0.53867 -0.307255
384 1 6.08957 1.44159 8.88733 0.579584 -0.713832 -0.242239
385 1 0.117358 5.19292 3.12748 -0.836113 0.339706 0.0594507
386 1 3.56642 1.26522 1.0931 0.114863 1.51623 0.740771
387 1 2.60878 6.93162 6.81801 0.893005 -1.00939 0.496741
388 1 8.3012 3.03194 7.68912 -0.0629876 1.07554 0.349989
389 1 3.42254 0.302519 1.59382 -0.114993 -2.08198 1.10035
390 1 6.9305 8.72244 2.36715 1.14141 1.12556 0.177194
391 1 3.50852 1.70244 3.38942 0.848789 0.149867 0.900324
392 1 1.58117 2.85817 1.55242 -0.481869 -1.18027 -0.0869352
393 1 0.338202 0.769513 2.00415 -0.159991 -0.131771 0.304356
394 1 1.2482 2.02327 3.81596 1.44191 -0.612941 -0.615657
395 1 0.468822 6.16056 2.914 -0.190809 -1.15869 -1.60725
396 1 5.02119 1.60277 5.53237 -1.03662 -1.10211 1.49614
397 1 6.06858 7.26963 6.74734 -0.360899 -0.133461 0.42435
398 1 2.33989 7.2102 5.187 0.545757 -0.198811 -0.685001
399 1 4.85622 3.30298 3.43512 -1.07203 -0.812898 0.420534
400 1 3.46375 7.78004 8.75051 -0.359229 -1.08705 -0.560703
401 1 9.42286 2.3969 8.61359 1.01948 0.878386 0.922761
402 1 1.18269 5.87899 1.9412 -0.312081 0.149727 -0.0828561
403 1 7.41865 3.41667 2.03313 1.02928 -0.700061 -0.0229553
404 1 9.29646 5.08141 8.71617 1.05615 -0.00657478 -0.252886
405 1 9.36111 7.09638 6.91141 0.325097 -0.544304 -0.548142
406 1 6.6234 4.67814 3.69927 0.929424 -1.24494 -0.361246
407 1 5.12383 1.99157 7.67686 0.714324 -0.232348 0.0181092
408 1 5.97496 9.04356 9.16037 0.161156 -0.0206825 0.836919
409 1 7.80933 9.08874 5.77898 -1.24143 0.897163 1.0353
410 1 8.10317 4.44421 3.47274 -0.253872 0.888965 -0.194482
411 1 7.77425 3.19646 5.08869 0.542365 0.713749 -0.00824674
412 1 7.93983 4.08371 8.76901 0.945742 0.816785 -1.03593
413 1 1.56187 9.38981 7.22209 0.404523 -0.0854066 -0.323112
414 1 5.9576 6.21848 0.57911 1.05268 -1.69002 0.509961
415 1 5.07153 6.81943 4.96407 -0.547031 0.377697 0.0325096
416 1 8.26182 3.75607 1.49484 0.283445 -0.218653 0.540973
417 1 7.84129 8.22763 6.31492 0.907261 0.739856 1.85653
418 1 2.29963 8.43595 9.03415 0.542173 -0.356546 0.78009
419 1 9.08655 0.338033 7.56988 0.546447 -0.711733 0.219355
420 1 6.73678 3.27453 2.72198 1.1671 -0.185165 -0.528582
421 1 9.19941 8.53615 3.37043 0.654656 0.0222624 0.348082
422 1 3.11072 3.08107 7.05732 -0.84247 1.32407 1.06037
423 1 3.62941 3.78923 6.38353 -0.336836 1.10583 0.193718
424 1 4.41909 0.216296 4.86536 0.138842 0.94695 -0.488013
425 1 5.71973 4.69621 4.26486 0.265419 -0.319712 -0.302743
426 1 5.84638 5.61289 1.4677 -0.779041 -0.324497 0.42312
427 1 2.30602 3.19934 5.58623 -0.349091 0.596123 0.122048
428 1 5.42435 1.49124 1.63239 1.33311 -0.226139 0.435524
429 1 3.98519 2.16701 6.1953 -1.44023 -0.224619 0.148064
430 1 6.13491 3.18757 5.01759 0.210685 -0.43385 0.740804
431 1 8.98139 0.130241 3.77866 -0.638087 1.00721 -0.912745
432 1 8.59391 5.57942 7.33415 0.740264 -0.473509 -0.811309
433 1 4.764 2.90592 7.62769 -1.22282 -0.380212 0.607988
434 1 0.761688 9.39846 8.84558 0.0587912 0.651211 -1.29557
435 1 9.29764 5.42778 4.72703 0.643756 2.08331 -1.03839
436 1 3.10859 2.69937 4.71658 -0.351328 -1.53365 -0.129747
437 1 4.33777 8.06284 7.59565 -0.225161 -1.05867 0.366164
438 1 5.56536 2.79972 7.09712 0.169349 -0.22175 0.548784
439 1 3.73548 9.07435 4.62685 -0.615868 -0.679194 -0.281745
440 1 2.60899 1.4988 3.10319 -0.484584 0.112649 -0.148498
441 1 4.09532 0.551955 2.33881 0.336673 0.937251 0.253031
442 1 8.72819 3.20568 4.79948 0.127964 0.977187 0.865847
443 1 5.70718 8.41721 3.67812 -0.838227 -1.02696 0.675563
444 1 2.35314 6.20693 6.03472 -1.03436 0.272772 0.452822
445 1 5.87701 5.43662 3.55778 -0.552093 0.135723 0.311101
446 1 9.11713 7.47519 6.08951 -0.863618 1.60893 -0.000655866
447 1 0.91941 6.87594 2.94833 0.426872 0.724018 -0.162743
448 1 4.73192 7.7262 5.18052 0.323847 0.858773 0.954683
449 1 2.46059 7.24565 1.71429 0.755234 -0.420124 -1.42902
450 1 5.75111 3.16543 6.26131 0.883421 -0.0672287 0.542028
451 1 1.40381 7.09674 5.17111 -0.876297 0.814286 0.502232
452 1 0.0835192 6.11467 0.268432 -0.928607 -0.192625 -1.41665
453 1 0.422051 7.98098 6.40328 1.35618 0.15551 -0.0921305
454 1 3.20093 8.63913 3.83788 -0.153819 -0.332679 -0.594052
455 1 2.62208 0.250195 1.95026 0.708118 -1.51215 0.20989
456 1 8.41647 1.9042 8.05739 -1.33933 -2.03804 0.117231
457 1 6.73301 6.51057 0.935645 1.23394 0.168913 0.533276
458 1 3.85783 0.752438 9.22373 0.503783 -0.190993 1.16639
459 1 5.75619 6.30658 8.43594 0.364344 -0.482291 -1.40408
460 1 5.74012 3.76217 2.7758 -1.00611 0.464599 -0.817919
461 1 4.87011 8.78521 3.35341 -0.516437 0.136382 -0.657431
462 1 7.07322 7.42119 0.777963 -1.2439 -0.933434 0.0320792
463 1 2.39874 4.76897 0.630461 -0.196336 0.600435 -0.878933
464 1 5.38223 3.15133 2.28659 0.128225 0.299893 -0.421411
465 1 8.90598 2.37711 1.59185 -0.693407 0.466598 0.540242
466 1 1.69204 7.40932 8.79469 -0.576767 0.252875 0.30062
467 1 6.37205 7.00869 0.10425 0.166373 -0.972579 -0.0355007
468 1 8.69873 8.58429 2.16567 0.354073 0.433936 -0.0657434
469 1 2.89223 2.03196 0.816105 -0.428475 0.997058 0.00504961
470 1 1.26958 3.46653 8.87196 0.363716 -0.0495647 -0.450014
471 1 8.55942 5.76377 0.881951 0.212668 0.0292634 -1.06212
472 1 8.74218 3.48882 3.12639 -0.739421 0.76135 -2.14882
473 1 3.88721 5.71593 8.88601 -0.487906 -0.0968387 -0.465124
474 1 8.6606 4.83289 2.94149 -1.39756 0.70808 0.406196
475 1 7.67982 6.87322 5.01863 -0.143359 -0.0376219 -0.00166534
476 1 5.52735 2.54491 4.6875 0.0370529 0.238888 -0.371477
477 1 7.07758 2.26377 0.35872 -0.0511947 -1.04739 -1.33618
478 1 8.91596 2.14172 6.37572 -0.0459562 -0.00947469 -0.421082
479 1 6.90159 8.83376 5.72555 0.298286 0.774443 1.4256
480 1 8.53258 5.14535 3.89936 0.0281852 -0.00187124 0.595316
481 1 3.62778 9.16568 9.10328 0.545153 0.934912 -1.73391
482 1 3.94109 6.53596 2.52567 -0.0496638 -0.477891 0.158655
483 1 6.70005 3.1365 6.90804 -0.720401 -0.928097 -0.486854
484 1 4.53612 8.89 5.79405 0.0312802 0.289128 0.577902
485 1 2.25395 5.75431 8.57245 -0.138028 -0.236092 0.345381
486 1 4.29764 4.15709 0.671575 1.11504 0.938721 0.230137
487 1 4.96326 5.63421 8.46579 1.15714 0.0978846 0.926036
488 1 9.33074 8.68739 4.82416 0.0805669 0.864509 0.0685689
489 1 9.08188 5.70104 6.35317 -1.49031 0.495207 -0.800864
490 1 8.8952 2.56548 0.0148841 0.72348 0.607221 0.623007
491 1 8.41537 0.810157 0.940557 -0.24506 -0.937648 0.293296
492 1 5.52142 0.010018 2.76092 0.381168 -0.0849923 -0.598694
493 1 5.00047 5.30982 6.117 -0.358503 1.24858 -0.326278
494 1 1.37795 1.56997 5.09926 -1.23422 0.0785541 0.97273
495 1 4.1802 7.38921 9.35604 -0.544266 0.564853 -0.674559
496 1 8.80485 7.00717 5.18702 1.31093 -0.632001 -0.491058
497 1 6.79509 2.71004 8.98153 -0.847573 -1.14372 0.521168
498 1 4.26801 8.9834 7.51206 -0.732745 -0.512466 0.40281
499 1 4.34235 6.06272 1.2203 -0.0380669 0.0852428 0.372496
500 1 1.01201 6.19389 0.502943 -1.09327 -0.808722 0.943502
501 1 8.9997 5.50135 1.71762 0.151224 0.150427 -0.965821
502 1 6.19795 9.27877 4.02195 1.91482 0.289729 -0.178924
503 1 1.7877 1.62715 3.17729 -1.41118 -0.73757 0.0740254
504 1 4.07793 2.36249 3.13026 -0.285117 0.519838 0.44605
505 1 1.75276 6.53517 1.74233 0.902172 0.0509864 -0.0334086
506 1 8.13049 9.04164 3.38305 -1.40728 -0.125982 -0.738809
507 1 8.65886 2.65203 5.72897 -0.320262 -0.279591 0.610255
508 1 8.17612 6.49028 0.499353 -0.840622 -1.08704 0.800315
509 1 5.51449 9.18169 6.55857 -0.71472 -0.0591533 -0.4812
510 1 9.19482 1.46959 1.33499 -0.0678091 0.335167 -0.143646
511 1 2.27798 4.60271 6.24141 -0.311564 -0.433324 1.16675
512 1 9.17935 4.57911 4.45647 1.19187 -0.0812677 0.239196
513 1 7.62628 6.84798 1.12058 0.128646 1.7386 -1.24762
514 1 7.7016 2.09783 7.37581 0.154832 0.473757 1.14287
515 1 6.46506 9.08546 6.47785 -0.231789 -0.070266 -0.758656