ITEM: TIMESTEP
109750000
ITEM: NUMBER OF ATOMS
1000
ITEM: BOX BOUNDS pp pp pp
0.0000000000000000e+00 9.4000000000000004e+00
0.0000000000000000e+00 9.4000000000000004e+00
0.0000000000000000e+00 9.4000000000000004e+00
ITEM: ATOMS id type x y z vx vy vz
1 1 5.08148 0.0501954 3.06372 -0.21667 0.297821 0.498145
2 1 5.98343 4.46379 3.50346 0.57682 -0.448608 0.17478
3 1 6.54922 3.37025 1.81931 -0.507826 0.708216 -0.622825
4 1 3.11115 4.37474 6.24013 1.07816 0.579779 0.857699
5 1 7.18504 3.48248 4.36289 0.71242 -0.599508 0.10342
6 1 3.82725 3.21443 3.52468 -0.571356 0.84716 -1.40287
7 1 0.841966 1.79981 2.63846 0.766115 0.992791 -0.151255
8 1 7.79946 5.20446 5.35482 -0.551596 0.480943 0.170983
9 1 8.5045 4.69913 2.0877 0.108741 -0.377253 -0.630352
10 1 0.194257 0.439556 0.378768 -0.644536 0.446421 -0.842801
11 1 4.17825 3.16292 1.36991 1.46101 -0.476407 -0.653192
12 1 3.34845 2.06424 9.13379 -0.995291 0.283202 0.272312
13 1 7.26083 6.67267 8.61754 0.0467423 -0.0314045 -1.97581
14 1 0.789623 1.28247 8.54955 -0.269087 -1.29244 -0.826586
15 1 5.9308 4.84252 9.04682 -0.104348 -1.49672 -0.243207
16 1 1.80851 1.80058 7.35077 1.32536 0.0234092 0.111511
17 1 2.69932 2.57474 0.724925 -1.20714 1.7375 1.32853
18 1 8.01291 4.0573 0.945856 0.192257 1.18836 1.28356
19 1 5.94991 9.29577 8.92005 0.312492 -1.13919 0.134913
20 1 9.03907 2.88654 8.0425 -1.00585 0.364619 -0.0331911
21 1 4.68134 4.14818 1.78963 -0.112165 1.03767 1.41306
22 1 8.57201 6.6054 3.46789 -2.04774 -0.459882 -1.06008
23 1 0.89682 6.97592 9.0744 -0.295973 -0.442956 -0.490952
24 1 3.75951 3.83944 5.26389 0.921306 -0.87526 0.883638
25 1 2.88538 4.85359 0.45868 -0.256006 0.0469825 0.502436
26 1 1.27107 8.18804 8.66943 -0.397114 0.602205 1.291
27 1 0.574123 6.47381 2.3816 0.474126 -0.621132 -0.641703
28 1 4.36293 0.741857 3.57574 0.332968 -0.664126 0.0512162
29 1 8.66946 2.42269 7.12257 1.18587 -0.22023 -0.926714
30 1 3.45678 0.18952 2.98691 -1.05097 0.658763 0.460761
31 1 0.160051 2.15757 2.22463 -1.31189 -1.07652 0.735414
32 1 4.19873 1.23316 6.26272 0.184872 -1.19352 0.839625
33 1 4.3676 4.03102 0.94852 0.682674 -0.622389 -0.161187
34 1 5.59867 1.00102 5.97223 -0.136436 -0.371482 0.339276
35 1 4.54603 4.35536 6.80949 -0.110683 -0.329759 0.827408
36 1 8.60203 7.43959 1.2201 -0.882942 -0.829384 -0.144872
37 1 6.80753 6.52933 2.65816 -0.457584 0.173165 -1.07313
38 1 2.22629 5.05248 4.96183 -1.28741 1.28616 -0.223089
39 1 7.5355 2.10383 3.8726 1.00586 -0.420657 0.0509222
40 1 4.47349 4.92405 1.06208 0.866249 0.19132 -1.11969
41 1 8.00543 3.61378 2.66417 1.05807 -0.321868 0.737899
42 1 7.31564 7.82372 1.2522 -0.362214 -0.669357 -0.0164851
43 1 0.95453 4.24112 5.45031 -0.0134384 -1.1727 0.322125
44 1 1.9715 0.356529 8.13662 0.511293 2.09015 0.819401
45 1 8.90849 8.64482 3.56612 1.02567 0.821235 0.831335
46 1 2.89549 7.78985 2.54825 0.179477 0.0563864 0.308975
47 1 2.55729 5.98318 5.13179 0.662584 0.331912 -0.20976
48 1 3.68122 7.18159 9.18819 -0.529479 1.01944 0.327675
49 1 0.197542 4.73718 6.02343 -0.209865 -0.728309 0.933131
50 1 2.30913 6.00131 1.81013 0.369507 -0.179379 -1.4471
51 1 3.23357 6.36815 6.81868 -1.24568 -0.0940972 0.984422
52 1 0.418594 8.41282 4.74648 0.312768 -0.0346014 0.515774
53 1 3.73296 8.20839 1.73094 0.3319 -0.375656 0.420263
54 1 0.494339 4.2798 3.56521 0.59231 -0.344944 -0.829203
55 1 5.30806 5.47632 8.58995 -0.815332 -1.06573 0.490581
56 1 7.35666 8.23232 3.68863 0.763478 -0.251442 0.885261
57 1 4.21905 6.38207 9.36973 0.629224 1.12159 0.714575
58 1 7.46197 4.3498 2.6646 -1.46941 -0.317712 0.584372
59 1 0.884118 3.16722 6.81906 0.161025 0.497154 0.418002
60 1 5.94285 3.04056 6.36061 0.240947 -0.109232 1.01502
61 1 8.47006 5.60654 3.39733 -0.503493 0.216766 -0.22819
62 1 6.34495 7.43863 3.98067 0.459296 -0.40744 -0.370854
63 1 1.58753 0.539078 3.24056 1.11439 -0.599949 0.0840056
64 1 5.2303 7.45817 1.07358 -0.40627 -0.185108 -0.273597
65 1 5.00579 5.15466 4.87987 -0.686159 0.305248 0.185167
66 1 2.84802 6.12644 7.98398 0.507839 -0.737597 2.25159
67 1 6.12646 0.857763 3.21269 -0.395475 -0.695029 -1.32702
68 1 2.80291 8.69292 3.33318 0.547303 -0.0589954 -0.429942
69 1 2.3067 0.35094 2.17888 -0.0774253 1.22388 -0.0111371
70 1 3.78022 5.81275 6.25274 0.161822 0.0535936 0.588951
71 1 4.71119 4.35187 5.14121 0.169395 -0.532181 -1.14767
72 1 4.98459 4.79521 6.05285 0.698295 -0.200753 0.221162
73 1 1.91333 1.55976 1.10351 0.742775 -0.100969 0.489581
74 1 5.17496 4.49497 8.68019 0.591831 0.717603 0.539531
75 1 0.153347 5.48621 6.6775 -1.30589 -0.154688 -0.424601
76 1 2.70709 4.20405 8.05773 0.584418 -0.0630908 -0.169727
77 1 5.03831 3.47236 2.61567 0.238941 -0.820119 2.06455
78 1 4.89148 7.81721 7.49952 0.745931 -0.214426 -0.402123
79 1 6.18674 4.80521 7.54428 -0.10615 -0.352432 -0.718918
80 1 0.61766 0.42357 8.66773 -0.0990761 -0.654981 -1.06544
81 1 5.37254 5.05098 6.83679 0.165378 0.923612 0.867204
82 1 3.59555 6.88882 2.04712 -0.15975 -0.394539 0.263804
83 1 8.02958 6.63532 1.43674 0.758579 0.953563 0.952695
84 1 7.58617 0.686519 5.42124 0.485593 0.628783 0.793648
85 1 3.15674 3.7799 2.36027 -0.0695037 0.32974 0.109595
86 1 3.15891 6.48124 0.204581 0.666861 -1.0707 -0.584479
87 1 6.93841 3.74666 5.20925 0.23075 1.28047 0.331981
88 1 8.14036 7.36468 8.5497 -0.748173 -0.387054 0.433608
89 1 5.98487 4.36212 0.388952 0.212988 0.738756 0.317124
90 1 7.03481 5.55996 4.9442 0.253207 -0.709483 0.470951
91 1 2.50076 0.968788 6.92956 -0.19854 0.585604 -0.22598
92 1 6.95814 4.35556 8.65086 -1.22511 -0.427492 0.106172
93 1 8.27442 7.4396 2.07437 -0.694898 0.722257 -1.22768
94 1 3.9483 4.8944 0.203101 0.335612 -0.417936 0.12443
95 1 3.26664 5.05138 5.28522 -1.82007 0.915335 -0.152089
96 1 8.56764 1.85787 3.55829 -0.593356 -0.0286535 -2.01466
97 1 0.267346 3.91917 1.19811 -0.0331559 -1.55989 0.468514
98 1 7.09897 0.618296 6.65138 1.75094 -0.883388 -0.373696
99 1 0.128583 9.33109 6.0364 0.18559 0.46868 -0.330509
100 1 8.80772 0.776662 9.43227 -0.71447 0.294275 1.04919
101 1 4.01934 8.97791 8.91559 1.7317 0.255796 -0.356144
102 1 5.84878 8.52866 0.0864187 -0.732579 0.606717 -1.19685
103 1 3.04701 6.10714 4.27132 0.143109 0.696003 -2.30318
104 1 5.26179 2.25574 4.74915 -1.01587 1.85042 0.742041
105 1 0.226314 3.32431 0.40003 1.81792 -0.12862 -0.870263
106 1 3.51623 5.97495 5.25549 0.437012 -0.299343 0.629232
107 1 8.61369 5.62812 0.607762 -0.634596 0.350249 -0.182042
108 1 8.65796 9.11564 1.33782 -0.448184 1.24384 1.01208
109 1 9.04232 8.73637 4.4533 0.202154 -0.584246 -0.441818
110 1 6.90169 1.05614 4.6939 -1.19069 -0.995851 0.191221
111 1 8.72131 2.69661 3.05954 -0.581307 -1.42922 -0.197445
112 1 6.24074 -0.0193428 0.463804 -0.230725 -1.78003 0.33161
113 1 4.97152 5.35484 3.05792 -0.47085 1.576 -0.385089
114 1 6.31219 1.84076 1.56561 -0.248713 -0.329737 -0.891102
115 1 6.68915 2.65046 4.34147 1.32318 -0.190805 -3.54684e-05
116 1 0.440033 3.46908 4.8999 -0.294993 0.215711 0.720283
117 1 3.1083 6.70559 5.65299 -0.423311 -0.0340258 0.371911
118 1 5.0054 2.69462 6.23327 0.297118 0.0595011 0.866206
119 1 6.94552 4.68038 5.76373 0.0519266 1.09664 -0.882827
120 1 0.856707 8.02567 5.47835 -1.25119 0.012788 0.859478
121 1 4.08865 7.30247 7.28069 -0.500048 -0.991955 0.804642
122 1 4.18179 2.2053 8.32087 0.325313 0.675955 -1.52922
123 1 5.33866 6.31564 2.89648 -0.404218 -0.776117 -0.436462
124 1 8.07309 8.4163 1.00099 0.145153 -1.0897 -0.440645
125 1 7.25111 3.17608 7.34412 0.919275 -1.73785 -0.630286
126 1 7.91882 5.85946 8.90152 -0.146026 0.145017 0.338343
127 1 1.12383 7.9807 3.81265 -0.84458 0.215546 0.812289
128 1 3.68211 3.59577 8.96072 -0.487332 -0.360298 -0.475854
129 1 0.0925265 3.45162 5.91115 -0.527488 -0.912317 -0.205501
130 1 3.62882 5.44792 0.851641 0.574955 -0.759982 1.02237
131 1 6.58639 2.56526 0.569869 -0.882075 0.369051 -1.49696
132 1 4.03817 5.29364 1.81586 1.49673 -0.886235 -0.362646
133 1 7.16528 4.47409 4.75837 -0.13769 1.15962 0.0994984
134 1 7.44466 6.99861 2.26133 0.132915 -0.971435 -0.0438741
135 1 7.47991 6.07317 6.97123 0.0968574 1.12495 0.868283
136 1 8.18857 1.08123 8.51822 0.00510642 1.26849 0.414563
137 1 1.83252 6.73276 2.95798 0.624554 -1.38838 -2.12455
138 1 6.5396 3.81775 2.76521 0.291601 0.215782 -0.267336
139 1 1.28885 3.36664 5.39015 0.595564 -0.772989 2.24554
140 1 8.7585 2.26931 6.1451 -0.660276 0.404695 -0.168877
141 1 4.08173 2.06272 5.65798 0.223757 0.741528 0.940634
142 1 1.5154 3.23177 2.97817 -0.442471 1.19416 0.588196
143 1 1.42654 3.17876 2.12485 -0.489877 0.574303 1.20668
144 1 7.61538 5.19893 3.53417 0.366526 -0.464206 -0.357881
145 1 8.66728 2.56642 0.367018 -0.16685 -0.464246 -1.03773
146 1 3.40284 3.61485 8.05883 0.105528 1.14766 0.100724
147 1 5.32096 5.67983 6.0378 -1.11389 -0.32368 -0.218166
148 1 8.70206 0.639934 1.09914 0.111161 0.878317 1.0721
149 1 3.26436 8.41602 9.34148 0.69618 0.182865 -0.811179
150 1 4.68559 3.21742 7.00981 -0.806783 0.186216 -0.826565
151 1 0.712818 3.23677 8.4298 -1.13716 -0.415619 -1.23758
152 1 0.127467 9.29006 6.95803 -1.071 -1.35422 -0.882679
153 1 8.50298 1.09877 2.87004 -0.711593 0.937893 -0.844574
154 1 6.79247 4.53161 0.145485 0.933718 0.29913 -0.956472
155 1 5.04646 6.52099 1.85181 0.169577 -0.106851 -0.313382
156 1 4.88889 7.9516 2.11146 -0.853444 -1.52484 1.13944
157 1 1.27807 7.33719 7.42504 0.996687 0.0529256 0.661925
158 1 3.90166 4.64099 3.55998 -1.3392 -1.72305 -0.619065
159 1 2.08531 6.76753 5.48973 -0.317147 0.273606 0.452269
160 1 3.13011 0.714953 1.96686 -0.957596 -0.129098 0.31628
161 1 5.53982 1.1293 0.241882 0.93153 0.680235 1.6431
162 1 0.599183 7.45705 0.516365 -0.261054 1.38016 -0.0714434
163 1 7.87483 2.75368 1.94856 -0.805485 -1.07097 -0.0763263
164 1 3.16808 8.93833 6.54375 -1.31697 -0.731722 -0.0848242
165 1 0.810673 8.90876 5.40829 0.745599 -0.827108 -0.357275
166 1 7.07021 6.91822 0.139698 0.232444 -0.0626722 0.566944
167 1 1.16643 7.50885 6.51515 0.0962094 0.724415 0.457618
168 1 7.18293 8.63186 0.460976 0.3447 -0.259079 1.15885
169 1 0.911494 4.98497 3.93566 -0.0463027 -0.468204 -0.379887
170 1 7.19308 2.35273 9.1381 0.408782 0.93931 -0.0942628
171 1 7.64075 7.50557 2.95475 -0.270873 0.164217 0.700583
172 1 2.82346 1.88969 2.26713 1.31436 0.0503101 -1.30282
173 1 2.29464 3.89925 8.87317 1.63358 -0.528283 -0.734098
174 1 6.79554 3.07198 6.44977 -0.124671 -0.326988 0.454859
175 1 5.46622 5.76524 0.847515 -1.70471 0.375833 -0.297201
176 1 8.88035 0.500233 6.60797 0.634481 -1.5775 0.754329
177 1 7.18711 4.13425 7.59093 1.4798 -0.432965 -0.400071
178 1 0.240844 1.26543 5.24196 -0.492793 -0.177877 -0.682421
179 1 4.10692 6.69481 1.08964 0.836957 -1.78027 -0.275395
180 1 5.8463 1.69405 3.18851 0.454316 0.716534 -1.15651
181 1 1.96285 8.58212 9.17108 -1.30988 1.32806 -0.444536
182 1 9.36206 3.99369 2.92208 2.35235 0.950009 -0.0830741
183 1 3.76905 0.251968 6.60574 0.0588652 -0.341921 -0.0942941
184 1 0.937634 1.85284 1.72303 0.187796 -0.222045 -0.171589
185 1 8.31796 1.08692 5.9426 0.96157 0.627882 0.315628
186 1 2.07792 6.66355 0.339923 -0.477145 -0.186046 0.0207942
187 1 6.81292 5.81329 3.28448 -0.209433 -0.265708 0.723995
188 1 2.13239 5.92998 2.7555 -1.23574 1.05837 1.29475
189 1 6.49908 8.55415 7.46044 -0.958964 -0.691446 1.06558
190 1 7.54165 5.95052 7.88244 -0.981486 -1.07039 -0.637624
191 1 1.48636 5.2656 2.96145 0.0836029 0.575236 0.918364
192 1 3.06163 5.20901 1.91844 -0.138529 0.16464 0.509063
193 1 6.11686 2.01653 9.11986 0.645225 -0.334433 0.147437
194 1 1.26191 8.44755 1.12833 1.10574 -0.0154828 0.271859
195 1 8.85922 4.49416 8.00405 -0.628192 -0.144748 0.233023
196 1 0.503557 8.83742 8.58685 -0.306329 -0.340207 -0.0962021
197 1 6.53226 7.36033 2.98809 0.278622 1.29768 -0.671514
198 1 5.10987 6.14346 4.0089 -0.410112 -1.01823 0.529064
199 1 2.61312 1.20009 7.86597 1.74362 -0.963375 0.253283
200 1 5.15875 8.70197 7.48429 -0.308472 -0.0762466 -0.499022
201 1 0.992561 1.96394 0.871348 0.580468 0.407469 -1.45565
202 1 7.32126 7.71524 6.23712 -1.6771 -0.568656 -0.54723
203 1 4.06896 7.5694 8.20014 0.113521 -0.268788 0.299861
204 1 0.31848 1.2663 0.849704 0.0625203 -0.489432 -0.544368
205 1 3.63888 4.54121 8.15324 0.607661 -0.852958 0.713503
206 1 5.95951 3.44578 7.7805 -0.615804 -0.310121 -0.684254
207 1 6.45086 0.733747 2.28786 -1.33121 -0.579692 1.23291
208 1 4.46484 0.347892 6.07478 -0.185202 0.641421 -0.581409
209 1 7.87721 7.64744 7.60174 0.313355 -0.509135 0.420528
210 1 5.62196 2.69117 2.96631 0.15465 -0.586987 0.266179
211 1 1.27879 4.50158 6.35748 -1.62512 0.0187167 -0.20137
212 1 4.81217 5.6615 1.54749 0.0265413 0.196407 -0.0161824
213 1 6.61113 9.19535 6.78399 0.161416 0.161227 -0.644923
214 1 5.68311 2.34426 7.0242 0.296578 0.841127 -0.477119
215 1 8.02474 5.24654 2.71188 0.392314 0.241508 0.0577402
216 1 5.94365 6.28305 1.76179 -0.738791 -0.755224 0.120803
217 1 4.02315 6.62532 5.61574 -0.587777 -0.275627 -0.0224529
218 1 6.39407 6.90296 6.68591 -0.702364 -0.560956 1.41019
219 1 7.41866 8.06067 5.05591 -1.52631 0.424293 0.0557749
220 1 1.1633 4.03945 0.702771 -0.656063 -0.115014 -0.539528
221 1 8.45703 2.89787 5.15959 -0.189768 -0.350579 -0.949946
222 1 0.579991 5.03514 2.15041 -1.01479 -0.0255949 0.150695
223 1 6.60501 1.80713 8.28265 0.167241 0.625985 -0.719081
224 1 4.77073 4.94316 2.18995 -0.619274 -0.129381 -0.957761
225 1 3.33618 7.9674 7.70793 -0.6564 -0.737004 -0.536038
226 1 7.70463 8.56845 5.9244 1.89336 -1.0224 0.08787
227 1 7.45301 8.60198 7.52272 0.930649 0.314976 1.62465
228 1 7.4403 5.81107 2.22772 -1.3904 1.21912 0.128205
229 1 7.46747 1.20752 2.18406 -0.555946 -0.171232 0.910832
230 1 5.14135 0.651856 1.01937 0.486869 -0.0675405 -0.394081
231 1 0.966366 5.41077 6.3676 -0.077107 1.61148 -0.0920674
232 1 4.05914 4.85007 5.94208 0.394737 1.51009 1.36283
233 1 7.30374 1.45859 8.89673 0.416096 0.485518 0.734932
234 1 2.47187 2.38446 2.9647 0.181153 0.321123 -0.316315
235 1 2.00583 4.64 5.7376 0.332051 0.68467 0.810277
236 1 1.88862 4.08823 5.00277 -1.05079 -1.16162 0.91036
237 1 3.27233 2.1304 8.07124 -2.06372 0.650417 1.56966
238 1 1.56537 5.6505 8.66123 0.598266 1.02554 0.38554
239 1 1.0954 4.50008 2.62491 0.485201 -0.951478 0.592651
240 1 7.80999 4.30601 4.13401 -0.975786 1.03998 -0.8948
241 1 0.098001 4.83042 8.6884 -1.2511 -1.70914 0.601794
242 1 5.20326 4.39516 2.71888 0.349282 -1.60504 -0.783196
243 1 7.22249 7.01507 4.35774 -1.85936 -0.0109615 1.27831
244 1 7.88456 0.683518 7.74556 -0.427176 -0.666065 -0.314052
245 1 8.94708 6.24911 7.32573 -1.22705 -0.140212 -0.483408
246 1 6.03905 9.32923 4.35452 0.10283 0.224332 -0.0201218
247 1 0.350481 7.15137 3.6322 0.482534 1.11669 1.41174
248 1 1.13527 6.77622 0.558453 -0.291918 -0.895056 -0.160223
249 1 4.54846 7.20923 0.330131 -1.25046 0.0101899 -0.146051
250 1 3.81696 8.42334 4.51456 -0.177423 -0.826813 -0.595522
251 1 0.962752 5.8817 0.734207 -1.16915 0.345044 2.3214
252 1 4.31788 0.424239 4.56843 0.402084 0.66062 -0.0381201
253 1 5.74328 9.05809 8.00914 0.269807 2.0814 -0.23922
254 1 2.92279 6.11447 3.29102 0.680316 -0.318604 -0.563159
255 1 8.79004 3.34558 3.72585 -0.615465 -0.579549 0.171515
256 1 7.05584 5.07802 7.98476 0.0990164 0.130995 1.07591
257 1 4.4595 9.08005 5.47593 0.52127 0.390823 -0.872086
258 1 5.62945 3.28623 4.74528 -1.98457 0.745148 -1.01494
259 1 0.606436 2.75634 7.58921 -0.84237 0.72812 0.624456
260 1 -0.00052963 2.83013 9.00738 -0.427039 -0.31588 1.52793
261 1 7.80495 0.277065 4.50371 0.294762 -0.385585 1.6493
262 1 7.03472 0.0785122 5.98243 -0.467973 0.828463 -0.663524
263 1 8.63032 4.8894 5.60798 1.13012 -1.8973 -0.745754
264 1 1.12228 5.97872 3.49017 -0.103487 2.67846 0.624821
265 1 4.39451 2.1292 4.6922 -1.24628 0.613154 -0.921801
266 1 0.0753937 3.76342 8.78646 -1.00411 -0.349042 -0.685367
267 1 2.98357 4.16249 7.11714 0.188361 0.0244706 -2.78535
268 1 7.38452 2.26452 2.4876 0.614746 -1.27998 -0.20151
269 1 2.73781 4.43289 1.3183 2.08957 0.458393 1.25167
270 1 0.349791 8.37777 6.24898 -0.440481 -0.27327 -0.951581
271 1 2.39411 2.45766 5.87752 -0.458204 0.955731 0.0551092
272 1 5.50547 5.02203 1.48036 0.362758 0.425338 0.92584
273 1 5.41353 3.55515 8.57898 0.975365 0.318007 -1.20209
274 1 1.72333 3.00953 8.65644 0.077303 0.155809 -0.664717
275 1 2.71324 9.14236 8.94437 -0.379787 -1.22254 -0.345274
276 1 1.19385 0.626751 0.258604 0.201631 0.584255 -1.1816
277 1 3.31665 8.63373 8.47077 -0.98893 0.0731165 -0.0154005
278 1 9.12615 8.30027 7.01089 -0.66065 -0.734107 -0.0262738
279 1 1.9208 1.69062 6.43734 -0.286386 0.797565 -0.485321
280 1 3.36775 3.98295 3.37358 0.53266 0.392269 0.441986
281 1 1.97191 4.47008 0.461279 0.896891 -0.903936 -0.126804
282 1 8.91801 5.21459 4.72584 0.916552 1.16833 0.223029
283 1 3.26941 5.97173 2.45427 -1.45823 -0.39859 -0.202708
284 1 2.48293 3.83943 3.78757 -0.021749 -0.61657 -0.781973
285 1 0.774081 7.78658 2.07828 1.8449 0.153186 -0.575961
286 1 8.39204 1.78422 4.45881 0.497022 0.657348 -0.168165
287 1 1.28636 6.22394 6.81528 0.266327 -0.752488 0.382364
288 1 6.09033 0.702093 0.93835 0.233668 0.673049 0.0017989
289 1 7.96368 9.29601 0.639761 0.452914 -0.901265 0.233375
290 1 8.27396 5.55293 7.7302 -0.826669 -1.23033 -0.198352
291 1 0.759707 9.06276 0.199367 0.57762 1.16541 1.13342
292 1 4.74428 7.24437 6.70587 -0.607262 -0.6923 0.29726
293 1 8.88816 3.31406 0.98144 -0.661683 -0.331868 -0.197051
294 1 6.85355 6.26977 6.38701 0.563948 0.846074 -1.0405
295 1 1.52009 2.58794 1.41049 0.673402 -0.77792 0.606104
296 1 3.09853 8.1357 0.867261 1.25107 -1.36145 0.0577681
297 1 8.81482 7.86403 6.03678 -0.879085 0.764164 -1.86287
298 1 1.4076 0.699419 2.33099 -0.545916 -0.789454 1.23146
299 1 4.44301 5.31118 6.66408 -0.529406 -0.414664 0.342525
300 1 7.28664 7.0128 6.89896 0.533111 -0.602291 0.581466
301 1 8.64909 8.61714 8.7314 -0.894746 0.276758 -0.58908
302 1 0.426803 0.692037 6.3196 -0.683927 -0.220648 -0.0732058
303 1 4.24159 3.99225 4.30257 -0.503719 -1.10431 -0.306087
304 1 1.64822 7.63351 5.7957 0.495204 0.233022 0.828577
305 1 4.37417 7.56665 5.66385 -1.74153 -0.565403 -0.276826
306 1 6.65841 1.32169 5.67266 -0.50969 0.863361 0.129519
307 1 5.69371 8.66192 6.3268 0.414234 -0.707598 -0.273771
308 1 7.45706 9.10946 5.21357 0.298718 0.880516 0.0419132
309 1 5.92402 0.562885 7.92241 -0.0508779 0.815488 0.0484885
310 1 3.26853 7.80651 3.42331 0.86983 -0.0171024 1.30443
311 1 4.62656 3.88385 3.47783 0.328461 -0.326812 1.35882
312 1 3.96924 7.63867 2.60384 -0.956644 0.423073 0.943855
313 1 3.4471 1.06913 6.66733 0.283691 0.223209 0.899882
314 1 3.69434 2.7334 7.52856 -0.77142 -1.20209 -0.42996
315 1 4.58396 1.36225 2.17277 0.277146 -0.0485882 0.230468
316 1 8.29468 4.44471 4.88178 0.479993 0.014895 0.0610152
317 1 7.40033 5.976 4.21181 1.49486 0.104691 -1.36363
318 1 5.38529 1.11365 1.8712 1.53546 -0.347578 0.304266
319 1 3.69009 6.59694 2.91511 -0.107846 0.699785 -0.260192
320 1 6.21455 6.01675 5.593 -0.666971 0.393318 0.656753
321 1 1.70516 7.63753 2.58706 -0.0177792 0.669089 0.513542
322 1 2.06489 1.36606 4.67442 0.695127 -0.833587 -1.08848
323 1 6.51586 5.64532 8.95923 -0.760164 0.311352 0.666011
324 1 5.07192 0.296039 7.59957 -0.27976 0.874428 -0.0577679
325 1 6.28881 1.12778 6.55809 0.116343 -0.0900326 0.162146
326 1 8.4727 0.931531 3.8713 2.34497 0.775606 0.334868
327 1 6.43276 6.24072 4.17953 0.14331 -0.163472 -0.442886
328 1 3.61664 5.70327 7.20951 -0.44986 -0.259384 -0.519067
329 1 3.21364 3.57847 1.49852 0.911009 -1.16878 1.0652
330 1 5.23734 5.97915 5.08455 -0.438983 0.458308 -0.151471
331 1 7.96326 6.41621 5.04619 0.144857 0.0960203 0.490572
332 1 1.68929 0.616317 6.57861 -0.203898 0.411355 0.765217
333 1 1.90087 9.15588 1.56774 0.451811 -0.293438 1.20122
334 1 4.4279 4.1176 8.4644 -0.442987 1.0464 -0.0829543
335 1 0.348691 6.97767 7.80301 0.141233 -0.045802 -0.405373
336 1 7.93337 0.48094 2.54729 0.0597032 -0.355223 0.899425
337 1 1.39677 7.19745 4.97489 1.6461 -0.448299 -0.509403
338 1 1.20329 8.23031 0.199661 0.00178416 -0.00790223 -0.41644
339 1 1.88985 3.7719 1.16403 0.572152 -0.790944 -0.372563
340 1 6.92851 6.77446 3.51336 0.261769 0.0509253 -1.02208
341 1 1.87364 4.60531 3.97135 -1.18135 -0.365693 -0.767604
342 1 4.0051 2.0949 1.72592 0.604061 0.475212 0.323934
343 1 8.91172 5.43901 8.41883 1.19214 -1.07852 0.0771513
344 1 3.23634 0.470351 7.32418 1.11949 -0.29103 -0.447532
345 1 3.73648 8.51951 5.4595 0.248472 -0.801061 0.546201
346 1 8.12866 6.68855 7.45011 1.49311 -0.224717 0.378088
347 1 6.96805 5.29799 1.1484 -1.65496 -1.0446 -2.36019
348 1 6.20279 1.55227 7.33113 0.285872 -0.473354 0.0115934
349 1 0.450402 4.78023 5.01041 -1.05568 -0.668234 -1.14249
350 1 3.01427 8.94185 5.71491 1.2667 0.561374 0.520666
351 1 6.55054 5.59648 1.99228 0.507759 0.0531102 0.798944
352 1 0.181761 7.30405 6.25888 -1.04008 0.541635 0.343888
353 1 5.03702 2.10614 3.7958 -1.01244 0.100254 0.119811
354 1 5.68968 2.86022 9.12039 0.200098 0.0170392 0.111245
355 1 3.19861 5.32315 8.90174 1.01107 0.551815 0.496448
356 1 5.30429 8.53646 1.57572 -0.216072 0.459299 -0.48875
357 1 0.463421 0.910523 4.31417 -0.241721 -0.598772 -0.507532
358 1 1.27912 0.758372 7.7379 0.716441 0.583273 0.385936
359 1 8.71193 7.12066 7.86433 -0.112829 0.0187465 0.218786
360 1 6.99171 0.508776 2.95843 0.32923 -0.694309 -1.21257
361 1 1.4555 7.31439 1.29458 0.769847 0.405248 0.814308
362 1 6.3763 8.47649 3.85178 -0.0797961 -1.58791 -0.217391
363 1 6.0506 5.69432 4.73993 0.292204 0.343151 -0.54687
364 1 7.25356 3.17499 2.50749 -0.824751 -0.638569 -0.925234
365 1 4.30541 0.541304 1.48841 0.0288334 0.342772 0.240312
366 1 5.8572 2.50607 4.00185 0.289498 0.369499 -0.963056
367 1 6.84577 6.57095 5.15036 0.827469 0.410094 -1.05783
368 1 8.66909 8.23579 1.62256 0.854475 -0.412894 -1.06916
369 1 7.23546 6.77863 7.74663 1.62489 -1.06115 -0.395163
370 1 -0.00237193 5.6193 0.514624 0.0343303 -0.926571 0.0711599
371 1 0.578273 1.56476 7.66976 -1.09568 0.515292 -0.886807
372 1 2.56668 3.28249 8.27848 -0.633462 -0.11743 -0.612975
373 1 8.94817 1.90559 8.89784 1.25959 -0.126033 0.84539
374 1 6.74381 9.33477 7.88134 0.257228 0.569646 0.166762
375 1 3.35583 1.82906 3.00578 0.0339106 -0.157458 -1.38732
376 1 2.39893 9.1266 4.88162 -0.857519 0.660442 -0.254604
377 1 9.0891 0.615596 4.88488 -0.423497 -0.710168 0.449545
378 1 5.50443 5.97419 7.2641 -0.786651 0.745678 0.578797
379 1 3.64492 4.4101 1.83103 -0.507584 -0.570115 0.0710463
380 1 7.97033 8.79141 4.43522 0.508121 -1.1122 -0.306919
381 1 1.61687 2.17976 3.10932 0.742042 0.515978 -0.658958
382 1 0.960839 4.78441 1.21114 0.463031 0.130955 -0.344407
383 1 3.90234 6.41067 7.86799 0.334313 0.12213 -1.0045
384 1 1.34531 4.05529 3.51469 0.373487 0.700981 -1.58901
385 1 8.80243 3.64945 2.04825 1.38153 0.373226 0.369146
386 1 6.13477 6.04844 2.66625 -0.532344 0.417877 -1.37261
387 1 6.50095 3.70531 0.814415 1.00656 -0.153698 -1.24557
388 1 5.54881 8.94554 3.60213 -0.23957 -1.17833 1.02403
389 1 0.62097 5.49372 8.30439 0.351959 0.480797 0.119579
390 1 0.00887724 4.14433 4.37898 -1.81647 0.744163 -0.0396138
391 1 6.09514 7.7533 8.8977 0.88126 0.629842 0.777307
392 1 4.57963 5.08931 8.6479 -0.667418 -0.532701 -0.0221962
393 1 7.26342 7.91977 9.19569 -0.239947 -0.818898 0.416409
394 1 1.55585 9.14283 2.79984 -0.666666 0.641143 1.29774
395 1 6.92628 7.78207 2.27347 -1.98765 0.581191 0.18462
396 1 2.97478 1.48207 1.41422 -0.925619 -0.372661 -0.208378
397 1 0.836711 2.62857 2.80879 0.935033 -0.109529 0.746294
398 1 5.47098 4.09769 4.57672 0.113484 -0.0162041 -1.25101
399 1 0.271303 1.37067 9.27197 0.14078 0.432955 0.309643
400 1 7.93318 8.4848 0.0177607 -0.445956 -0.50459 0.141662
401 1 0.486005 6.02962 1.47855 -0.461665 -0.661862 0.410022
402 1 9.30749 9.17806 5.20785 -0.846837 -0.481392 0.648135
403 1 6.31213 2.76752 5.15867 0.0488617 -0.0545591 0.393047
404 1 6.36178 4.71445 1.39902 0.598808 1.11658 -0.739075
405 1 5.41612 3.80216 6.95748 1.23369 1.49711 -1.07754
406 1 0.0301414 1.06986 7.12855 0.0378587 1.11374 -0.779088
407 1 7.26144 3.27146 1.2441 -0.534594 -0.814868 0.56537
408 1 2.62217 3.45605 6.29213 -0.33622 -0.831 1.0882
409 1 6.69365 0.717292 8.85393 0.135747 -1.19497 0.524768
410 1 7.63627 4.92013 1.95186 0.330063 -0.258391 1.36896
411 1 6.56232 8.32528 3.01522 0.413843 0.57063 -0.2445
412 1 1.82662 5.70813 7.71288 0.141715 -0.452364 0.17261
413 1 4.82962 2.64082 2.15568 0.0467054 -0.673777 -2.13301
414 1 3.26591 2.18062 5.35534 0.572091 0.222322 -0.384495
415 1 1.7331 6.0494 4.69299 -0.0658444 -0.0680366 0.41023
416 1 8.64401 6.61085 0.635289 1.01334 0.174312 0.0518425
417 1 8.01167 1.09598 0.55415 -0.490328 -0.914389 -0.347842
418 1 3.90295 5.45199 7.99231 -0.210551 2.93653 -0.879352
419 1 4.1233 3.31861 2.24073 1.3469 0.637202 0.210706
420 1 3.67817 5.52822 4.46439 -0.600156 0.858185 -1.15251
421 1 4.43036 3.21324 8.33601 -0.992092 0.408251 0.630857
422 1 9.18537 7.25343 0.21697 -1.39508 -0.884289 0.54166
423 1 5.82896 3.37049 2.25231 -0.320922 0.16886 -0.621017
424 1 0.632082 6.86833 6.93497 1.06785 -0.707501 -1.1341
425 1 5.36627 7.54489 5.81321 0.759149 1.23828 0.0642165
426 1 2.25871 2.20729 1.54446 0.0647976 -0.327156 0.544367
427 1 0.794796 1.78857 3.68984 -0.046031 -0.6046 0.835691
428 1 0.2365 2.80414 3.38755 -0.117772 -1.50009 0.292358
429 1 3.756 3.65809 6.77943 1.1948 -0.328046 -0.800176
430 1 1.08274 6.34057 5.32558 -2.40038 -0.287992 0.97253
431 1 1.03413 2.55226 9.26315 -0.000609121 1.11865 1.61027
432 1 2.0471 3.99288 2.30074 0.170895 -0.368267 -0.0771642
433 1 3.02341 2.90867 3.54335 -1.09324 -0.254714 -0.964744
434 1 4.41476 4.78887 7.60265 0.636132 1.15252 -1.37436
435 1 7.89371 7.70967 4.12287 0.425196 -0.9768 -0.427049
436 1 3.52376 6.01095 1.52584 0.312698 -0.932107 -0.880853
437 1 4.28797 9.01727 3.61838 -1.34905 0.143397 -1.8587
438 1 6.19635 8.31058 1.3214 -1.49643 0.0093084 -0.60278
439 1 5.53137 7.034 8.37778 1.2313 -0.200192 0.209425
440 1 5.54247 7.1706 9.25337 -0.501 0.35729 0.321365
441 1 6.43179 9.18449 3.08936 -0.339721 1.65068 0.329251
442 1 9.04079 4.19854 6.53692 -0.526809 -1.43005 -0.564926
443 1 1.40158 2.7054 6.05979 1.51842 -0.141325 0.177689
444 1 4.10646 8.03049 9.12954 0.459568 2.14235 -0.37428
445 1 5.38429 3.56185 5.56292 -0.180667 -0.178746 -0.293919
446 1 8.00596 0.731668 6.9074 1.53686 1.21157 -0.792125
447 1 1.63091 3.81995 7.10303 0.43264 0.698302 0.0590679
448 1 0.985672 4.96578 9.14709 0.0306677 0.327279 0.111648
449 1 6.29194 3.74098 4.1117 0.0327382 0.787554 -0.862307
450 1 5.37393 6.94816 7.3517 0.23537 0.45338 -1.27316
451 1 2.61167 1.37978 0.524424 -0.725478 0.622704 0.414891
452 1 3.39451 0.355468 8.23192 -0.0496675 -1.5074 0.523334
453 1 7.12112 0.0337381 2.04883 -0.256222 -0.158918 0.40269
454 1 8.37625 2.11809 2.34231 -1.11251 -0.986487 -0.386548
455 1 6.307 7.09948 4.73334 -1.5193 -0.276792 -0.440736
456 1 7.53424 1.45858 6.31805 -0.174006 0.0659209 -0.189266
457 1 5.09379 8.89986 8.68501 1.06122 -0.0658151 -1.62013
458 1 1.57455 0.75839 1.31225 1.11853 -0.500783 0.011933
459 1 8.11726 7.53069 5.61906 -0.553353 0.962998 0.315677
460 1 2.16319 2.16794 4.96795 -0.114419 -0.0258328 -0.381906
461 1 3.12786 7.62476 4.32709 -0.0504534 0.667562 -1.23632
462 1 5.66376 4.16068 6.19868 -0.0114341 0.176779 -0.259595
463 1 1.82897 2.08101 4.11765 0.787232 -0.478751 0.10497
464 1 9.21804 1.47081 4.31411 -0.701012 0.228644 -1.80076
465 1 5.79309 3.60091 3.21085 -0.107969 -0.587268 -0.381167
466 1 0.67608 7.16297 5.51223 0.931141 0.924552 -0.537406
467 1 0.770987 3.7105 7.62773 -0.535255 -0.251665 0.100058
468 1 0.193065 4.16828 2.03277 0.01406 -0.827861 0.646779
469 1 2.94402 0.467154 6.26503 -0.910893 -1.1103 1.19784
470 1 6.13782 7.38971 1.16971 -0.705364 0.533822 1.21912
471 1 1.23602 0.916972 5.90084 -0.328622 -1.13969 0.609636
472 1 2.79672 4.20591 5.07319 0.0683757 0.33645 1.3216
473 1 2.7609 6.80113 2.6156 0.348102 0.0925361 -0.245304
474 1 1.34238 4.85118 4.73767 -0.818674 1.1721 0.236548
475 1 0.936451 -0.00802184 1.9157 1.51609 -1.39186 0.993908
476 1 8.45459 7.66887 9.38567 -0.122569 -0.868616 0.706293
477 1 4.47292 2.92101 4.11577 -1.41114 -1.82623 1.01295
478 1 4.70628 7.26992 8.81184 -1.25726 0.544326 -0.283735
479 1 2.5804 5.81478 7.11987 0.308236 -2.20546 0.352383
480 1 0.783023 0.303201 1.08589 0.559036 0.446416 -1.5297
481 1 0.988497 2.58017 4.09017 -0.350315 -0.227213 0.79006
482 1 0.622292 0.363575 2.62782 0.529371 -0.120654 -0.336384
483 1 5.25235 9.28563 5.83115 -1.67698 1.76076 0.83009
484 1 4.05072 8.87862 6.30432 1.25593 0.0986403 -0.831559
485 1 2.53354 3.51352 2.9559 -0.0681119 0.475329 -1.43311
486 1 0.0685958 7.75433 4.33139 -0.435604 -0.586617 -1.35007
487 1 4.46946 6.15745 4.63973 -0.405847 1.43626 -2.98399
488 1 8.34363 1.05811 4.89472 1.88528 -0.0952415 0.0876214
489 1 6.42971 9.32278 1.40141 0.452236 0.419843 0.487581
490 1 7.18325 4.25308 1.18808 0.721507 1.50791 2.15175
491 1 8.16536 3.1047 4.34918 -0.921289 0.198763 -0.87953
492 1 3.66106 1.35996 2.36797 -0.163846 -0.27876 -1.28701
493 1 6.21977 6.9036 5.84578 -0.822518 -0.0487273 0.120208
494 1 8.34391 3.61992 -0.0100777 -0.0666029 -0.849776 -0.764334
495 1 8.73959 0.400095 7.63157 -0.254728 0.317323 0.566947
496 1 0.290555 2.17986 4.53891 -0.905818 0.243558 -0.225665
497 1 7.30618 7.49843 8.42519 -0.875458 -0.423163 0.342702
498 1 7.54499 1.62391 5.06036 -1.3173 0.412183 0.804676
499 1 8.62224 6.31524 8.43346 -0.276915 0.102445 0.156815
500 1 0.0691343 9.03969 1.03478 -0.873652 -1.12556 0.964627
501 1 0.716477 8.34112 7.76209 0.231491 0.593674 0.00691955
502 1 1.55491 9.12389 4.61803 0.785856 0.414314 0.795706
503 1 0.652663 7.58193 8.40587 0.81436 0.479476 0.205126
504 1 7.79876 4.30751 9.25244 -2.45344 0.642736 0.14585
505 1 5.5697 7.08773 3.47684 -1.15861 -0.0287855 -0.0555067
506 1 8.14415 8.19547 3.17044 0.992375 0.813781 -0.294876
507 1 2.46796 8.59889 6.99073 -0.490969 0.297662 0.829194
508 1 1.60812 2.1312 2.20233 0.240503 -0.527033 1.49244
509 1 6.22136 6.89288 0.295432 -0.219492 0.331061 0.160453
510 1 2.71766 6.87933 8.9692 -0.946498 -0.513116 -0.738889
511 1 6.66862 7.77938 5.64711 -0.921078 0.753411 1.45924
512 1 0.552083 5.70365 9.19123 -0.54418 1.04246 -0.440269
513 1 2.39895 0.72201 4.02097 0.686278 -0.322915 -0.435408
514 1 4.98688 2.02762 2.8996 -1.11276 0.101404 -0.358503
515 1 2.51552 2.04379 8.73631 -0.366633 -1.03387 0.995987