ITEM: TIMESTEP
367750000
ITEM: NUMBER OF ATOMS
1000
ITEM: BOX BOUNDS pp pp pp
0.0000000000000000e+00 9.4000000000000004e+00
0.0000000000000000e+00 9.4000000000000004e+00
0.0000000000000000e+00 9.4000000000000004e+00
ITEM: ATOMS id type x y z vx vy vz
1 1 6.76266 3.14104 3.55574 0.912157 -0.526783 0.671937
2 1 2.65824 1.69095 1.79172 -0.180631 -0.812364 0.0194955
3 1 6.96889 5.64325 5.01922 -0.0436453 -0.298605 0.385906
4 1 1.90725 3.20681 0.772565 -0.367647 -0.147189 0.695526
5 1 3.0902 7.30746 7.66899 0.334831 0.133918 -1.13842
6 1 5.19386 3.38119 3.91047 -0.801573 -0.473094 0.274137
7 1 4.60348 6.87674 1.15661 -1.04809 -0.376593 -0.111187
8 1 5.92786 6.62042 6.52309 -1.02524 0.931138 -0.165164
9 1 5.00597 8.75999 8.48241 0.747134 1.12267 0.552985
10 1 1.09441 0.697606 8.20627 -0.0924671 0.178037 -1.11875
11 1 0.0117866 1.98909 2.24283 0.678718 -0.0415056 -1.54098
12 1 4.50654 9.10002 2.47648 0.265062 -0.66343 1.18182
13 1 3.55936 1.55993 1.21128 0.712475 -0.526878 0.624374
14 1 1.10054 0.365691 0.787655 -0.709312 1.1768 -1.1094
15 1 4.14137 6.764 3.00003 -0.881609 1.62657 0.762716
16 1 7.63311 4.66397 6.68146 -0.319865 -1.30991 1.41261
17 1 4.19455 5.45808 2.57619 0.891689 -0.867289 0.732923
18 1 3.27102 1.88422 5.13971 0.561843 -0.235078 0.807585
19 1 0.665232 5.21446 7.10874 -0.608393 0.293147 -0.534081
20 1 1.96733 2.64453 7.93217 0.36306 -0.686606 -1.18448
21 1 1.95205 8.71271 8.98186 -0.394663 0.912941 -1.04168
22 1 0.62707 7.34574 8.33581 -0.182963 0.0815721 -0.0931757
23 1 3.8496 6.27506 5.23782 -0.163913 -0.363217 -0.199449
24 1 6.70783 6.61327 8.45905 -0.0025134 0.585861 0.727014
25 1 3.49346 6.56351 7.35553 0.422489 0.00347299 0.416393
26 1 7.26146 1.64692 5.74865 -0.391232 -1.31966 -0.154296
27 1 5.52179 2.79367 0.182689 -1.22419 -0.649269 0.327139
28 1 8.2795 1.76455 0.518756 -0.16469 0.0817903 -1.59143
29 1 7.92944 5.65329 3.63591 -0.615556 0.0189925 0.619297
30 1 7.66018 0.510363 6.3747 -0.13085 0.0137086 0.222546
31 1 2.95987 5.97362 8.91127 0.714765 -0.387109 1.32856
32 1 7.53987 8.9346 3.78062 1.34014 1.22553 0.918046
33 1 4.48822 2.26814 1.56643 -1.36129 -0.881422 -0.203685
34 1 3.38822 7.61043 0.0247544 -0.60904 -0.124423 0.86916
35 1 1.5044 3.59404 4.93281 -0.770244 -0.655257 0.937506
36 1 4.42864 5.83985 1.67506 -0.748861 0.884422 0.583951
37 1 6.52215 8.99957 0.20493 -0.292145 -0.349241 -0.101749
38 1 8.60732 5.82347 0.192834 -1.51934 0.122985 1.42295
39 1 0.850909 1.38537 1.29378 0.687298 0.351292 -0.904821
40 1 0.62603 5.80014 0.271295 -1.22577 -0.244009 -1.23768
41 1 8.98887 5.30218 1.18926 1.09361 0.454233 -0.647116
42 1 0.668901 2.60838 6.29605 0.279482 -1.56624 0.415429
43 1 5.3342 3.63385 0.698749 -1.10491 1.98303 0.227569
44 1 4.60645 5.5467 0.321798 -0.506136 0.78581 0.923188
45 1 1.26436 6.65604 8.19652 0.240138 -2.03949 1.04458
46 1 3.66554 6.13936 4.2455 0.588665 -0.35878 -0.341196
47 1 1.1602 0.257228 4.63523 1.41475 -0.827936 -0.718223
48 1 0.645417 6.61136 6.69855 0.344341 0.348175 0.188702
49 1 0.230074 3.85 4.96663 -0.0813786 0.962341 0.360717
50 1 1.56009 2.29903 6.17689 0.312132 0.490616 -0.696725
51 1 8.95469 8.85234 0.816863 -0.920674 0.0184993 0.227053
52 1 8.14357 6.03118 5.10652 0.779202 0.0947934 -0.545799
53 1 1.49938 1.13254 2.54064 0.263417 1.46953 0.418037
54 1 9.36397 6.3792 0.987984 1.30356 -0.224735 0.559018
55 1 0.746116 1.31473 4.67576 0.477541 0.298562 0.207292
56 1 5.27475 5.39848 0.988539 -0.805758 1.46142 0.698155
57 1 4.00716 6.28691 0.413117 -0.566107 0.367966 -0.109773
58 1 5.38004 1.46465 4.42779 0.191105 0.632638 0.245466
59 1 8.12914 2.2562 7.14841 -0.0991604 -0.299137 -0.5718
60 1 6.78426 7.02505 6.42259 -0.172491 0.234278 -1.63248
61 1 6.7035 3.10873 7.70243 0.320946 0.731884 0.487865
62 1 7.00723 4.95775 0.803683 1.31812 -0.751667 -0.193932
63 1 4.92119 1.96789 0.138636 0.774597 -0.510358 -0.339122
64 1 4.3235 3.54173 3.34248 -0.756744 0.0534249 0.136733
65 1 2.80787 8.56653 2.3677 -0.111772 0.751221 0.0713169
66 1 2.24853 7.28183 1.94877 -0.250397 1.34536 -0.0212423
67 1 2.32692 8.67138 3.90634 -0.841667 0.322775 0.256673
68 1 9.32617 1.21636 1.40613 0.863549 0.828189 -0.0833037
69 1 5.30447 4.943 7.18893 -0.791432 -0.377629 0.379283
70 1 1.5602 6.45286 5.78894 -0.558162 1.48297 -0.13125
71 1 3.97217 4.25819 5.65676 1.6035 -0.288576 1.13022
72 1 2.57635 2.66033 5.53698 1.22577 0.186216 -0.146804
73 1 4.05858 4.80452 6.49392 0.439724 0.40278 1.32213
74 1 3.08782 8.42416 9.25714 0.621011 0.47891 0.629665
75 1 6.67382 3.61635 2.41269 1.34861 0.344445 0.341848
76 1 1.91026 7.24311 5.79684 0.111512 0.540847 1.09477
77 1 5.80157 8.14875 0.226944 0.461767 0.116744 -0.345031
78 1 6.09833 4.14989 2.15206 0.948756 -1.33977 1.71719
79 1 8.01891 3.70915 0.155121 -0.398072 -0.0145468 -0.0597801
80 1 2.48345 4.90694 1.04696 1.61607 2.16194 -0.36837
81 1 4.42693 1.06297 9.04948 -0.00258358 -0.535229 -1.22651
82 1 5.7985 6.37944 8.21162 -0.502525 -1.19058 0.535235
83 1 4.60202 2.71532 0.752102 1.32098 -0.591563 1.21054
84 1 5.77716 7.09387 3.95247 0.632843 -0.0473345 -0.647919
85 1 3.7535 5.66884 7.16754 -0.722201 0.823445 -0.616592
86 1 0.472139 8.71613 9.18347 -0.507752 -0.179548 0.0920432
87 1 7.10006 5.26997 5.92185 -1.17232 -1.29921 0.93509
88 1 3.15928 0.226131 4.76956 -0.0240348 -1.64119 0.302857
89 1 8.27501 6.53462 1.33194 -1.03331 0.354206 1.12479
90 1 6.6625 4.27004 9.10739 0.282502 -0.223285 1.02116
91 1 2.72364 3.06577 7.7209 -0.330221 -0.100977 0.818491
92 1 8.85467 4.05836 6.85089 -0.647983 -0.856733 -0.229724
93 1 1.0514 5.43263 2.9073 0.561913 1.60668 -1.32042
94 1 0.381805 0.106078 7.2037 -0.122043 0.439024 -0.771248
95 1 5.37323 6.08277 0.380732 -0.651078 0.830975 0.469998
96 1 5.72497 8.7958 4.70768 0.0774924 0.848463 0.275353
97 1 3.0628 1.63939 0.228162 -1.01883 -0.636395 0.561991
98 1 5.73789 8.93537 9.13637 0.285597 -0.133122 -0.249422
99 1 1.46142 2.2475 0.968205 0.183296 0.0473632 0.430571
100 1 6.03163 8.20669 1.1734 -0.44942 1.05172 -0.299445
101 1 2.00699 4.02357 6.71847 -0.475276 -0.857705 0.328793
102 1 6.52968 8.16112 7.95624 0.356312 -0.171293 0.825025
103 1 6.35179 1.56475 8.51831 -0.0406022 0.586886 1.15241
104 1 0.36504 0.544509 5.34529 -0.0222811 -0.185612 -0.543004
105 1 3.85119 5.55083 9.06408 0.477827 -0.329582 1.06325
106 1 5.62582 8.59275 7.52969 -0.41847 0.689661 -0.820407
107 1 2.1639 7.54995 2.8953 0.342009 1.29849 -0.906752
108 1 3.8183 3.50456 1.32157 -0.745068 -0.219968 -0.0704412
109 1 7.47541 0.102129 7.53442 -0.249808 -0.226518 0.162876
110 1 8.47674 1.1174 1.07076 -0.935991 -0.798402 0.316875
111 1 4.65303 9.2816 0.655322 0.0956875 -1.27263 0.116136
112 1 4.38789 5.10427 1.04762 -0.72708 1.74853 -1.5308
113 1 7.25707 8.39636 7.15062 0.690632 -1.58302 -1.64757
114 1 7.77179 0.857228 2.74498 0.213705 0.921495 0.241541
115 1 7.60626 1.06546 0.751038 0.210247 -1.21957 -0.105119
116 1 5.84026 9.23699 3.83289 0.0863923 0.229247 0.292219
117 1 5.03936 7.56217 4.36594 0.950669 0.510862 0.125131
118 1 2.64488 6.41482 4.36398 -0.674563 -0.00179081 -0.976344
119 1 8.3625 2.28894 2.446 -0.503047 0.250591 -0.680319
120 1 8.53919 9.40211 6.20968 0.0508386 1.53761 0.362732
121 1 5.95154 5.00511 2.39969 0.663825 -0.103142 -0.033404
122 1 6.5906 3.02574 5.17388 -0.546343 0.115455 0.689422
123 1 3.70589 9.2345 3.27868 -0.702717 -0.413367 -0.6969
124 1 3.6856 5.94002 3.19288 1.68289 0.624501 0.666396
125 1 7.10206 4.62532 4.94085 0.808743 0.184792 0.0474664
126 1 5.96295 6.91016 2.9912 0.0153829 0.0351313 1.27156
127 1 3.53537 3.13539 3.75737 -0.417994 -0.94695 1.01541
128 1 5.70224 6.06812 2.79167 0.809375 -0.821913 0.319643
129 1 0.0448961 3.65329 0.142399 -0.0752987 0.314474 -0.468929
130 1 5.67537 7.70723 2.42262 0.675705 0.238058 0.19383
131 1 4.90346 2.72852 8.77602 0.811484 1.18951 1.05429
132 1 5.40556 6.49771 1.22779 -0.109809 -0.835819 0.14651
133 1 6.95619 0.617093 7.0761 -0.334196 -1.12769 0.853073
134 1 4.4389 9.21094 8.05553 -0.122544 0.714045 0.165106
135 1 5.07115 6.70747 2.41368 -0.862546 -0.105194 -1.26042
136 1 1.15066 9.2125 7.79621 0.936378 0.254032 0.332538
137 1 9.07293 0.788963 6.0792 0.146774 0.477943 0.739191
138 1 2.1646 1.19244 0.64869 -0.719805 -0.576661 -1.12675
139 1 2.57976 6.35379 6.79214 0.305842 0.405035 -0.300818
140 1 7.90343 0.394074 3.52954 -0.513448 0.156787 -0.571283
141 1 9.09374 2.38896 4.62567 0.723108 -0.403943 0.235218
142 1 8.59342 4.91621 2.14971 0.227094 0.0768925 -0.317331
143 1 6.43477 7.63948 7.18714 0.441455 -0.341729 0.323575
144 1 8.42084 4.07359 4.82741 -0.254971 0.199296 1.17304
145 1 5.27657 2.26662 4.05823 -0.356346 -0.339374 -0.214996
146 1 6.19528 7.75142 4.30272 -0.47898 0.47983 -1.59909
147 1 4.21878 0.0596142 4.17216 0.102892 -0.586356 0.765498
148 1 1.75686 1.49846 7.20879 0.177423 -0.261196 0.294145
149 1 6.7997 5.81149 2.00613 -0.614745 0.805055 -1.04203
150 1 8.57003 0.562443 5.27831 0.940756 0.55086 0.951736
151 1 4.07689 2.38781 2.45933 1.24485 -0.147217 0.165566
152 1 6.82247 0.837551 6.04166 1.02132 -0.050425 -0.00487958
153 1 8.57173 2.884 0.503341 -0.711972 -0.70556 1.01578
154 1 0.380152 4.16026 6.97191 -0.466387 0.23308 -0.996886
155 1 4.4019 3.68322 7.43656 -1.13686 -0.958254 0.571244
156 1 6.96492 0.570558 0.0511732 -0.582121 -2.15571 -0.200529
157 1 6.7132 8.102 0.298128 0.0953724 0.18926 0.750936
158 1 3.85438 0.244089 7.55461 -0.74197 0.365427 -1.11772
159 1 4.48619 2.37784 6.01115 -0.101709 -0.570897 0.857029
160 1 6.1835 1.97582 3.8137 -0.402327 -0.408405 -0.760784
161 1 3.87587 3.38888 6.16417 0.0110163 -0.91219 -1.17932
162 1 6.76517 1.44912 4.20002 -0.458858 0.777256 -0.593944
163 1 4.86614 7.74343 8.66408 -0.439494 1.38494 1.25102
164 1 6.12514 1.91316 7.26331 -0.439999 -0.17481 -1.00887
165 1 5.77182 7.28852 4.83238 1.50383 0.294005 0.141017
166 1 3.44032 7.41781 2.91057 -0.829901 -0.954062 1.2492
167 1 7.64474 6.66474 2.40208 0.113105 0.702079 0.0867922
168 1 4.65175 4.86099 4.80535 0.686837 -0.740851 -0.859911
169 1 0.0930947 2.22982 5.678 0.0504312 -0.385015 -0.608093
170 1 1.68021 1.04304 4.1797 -1.08662 1.23422 1.27315
171 1 2.60266 2.55295 4.66528 0.735429 -0.555464 0.265282
172 1 3.00123 8.01081 6.97283 -0.423705 -0.340833 0.156719
173 1 6.9656 1.95244 1.44192 1.13219 0.0462268 0.350404
174 1 7.49741 7.31395 0.624965 -1.43126 0.069862 -0.918244
175 1 3.20497 2.66824 7.08102 -0.0861572 -0.618251 -1.00872
176 1 7.51462 1.37485 1.80291 0.089362 -0.861389 -0.678923
177 1 8.57425 2.34587 8.16582 0.834781 0.65545 2.40203
178 1 1.76907 9.21659 5.77599 0.288806 0.237376 -0.880737
179 1 3.74999 5.25304 4.92257 0.226489 -0.623722 -0.657466
180 1 2.62695 1.25709 7.16226 0.532138 -0.476128 -0.753983
181 1 0.522183 4.35164 2.98347 -1.4263 1.1377 1.29207
182 1 3.27168 2.56683 9.12064 1.76978 -0.271327 0.223395
183 1 8.68119 7.59398 7.22678 1.82428 0.855618 -0.68135
184 1 6.8013 9.32674 6.4339 0.774617 -1.43322 -0.0711142
185 1 5.62473 7.30665 0.674092 -0.650521 -0.464866 -0.0644905
186 1 0.752204 7.46561 3.39089 0.166522 0.323573 0.212825
187 1 9.2933 8.15459 4.12895 0.977347 0.620953 2.89056
188 1 4.26983 0.90227 3.68945 -0.826968 0.589255 -0.736775
189 1 9.27469 3.29416 4.06032 -0.668524 0.834657 -0.182787
190 1 0.190016 5.73301 2.73898 0.479717 -0.643302 0.505813
191 1 6.88239 7.86302 6.41171 0.760823 0.470908 -0.643773
192 1 2.46518 9.17759 0.0746964 -0.00561919 0.280528 0.370726
193 1 4.50679 4.00476 6.51325 -0.18699 0.16397 0.147335
194 1 2.11203 0.417798 4.91524 -0.0264013 -0.243384 -1.49535
195 1 0.00992682 9.24117 6.40208 0.276143 -1.45644 0.0671249
196 1 8.65648 9.07871 7.18859 0.320969 -0.771124 -0.775891
197 1 9.21694 7.89268 8.90348 -1.33494 0.776261 -0.841842
198 1 5.5298 0.136457 2.74097 -0.921966 0.674772 1.06566
199 1 4.66403 1.35474 2.12643 -0.259428 -0.518152 -1.65975
200 1 8.26274 4.54135 7.25658 0.248273 0.322899 -0.187354
201 1 7.01874 0.924329 8.37611 0.367904 0.32342 -0.703492
202 1 1.8565 5.68091 3.58645 0.145366 -0.808409 0.0585298
203 1 4.03631 2.98037 5.41372 0.809367 1.68726 -0.988387
204 1 7.19814 8.13526 3.03714 1.22302 0.742293 0.0663307
205 1 1.96107 8.86561 4.84976 -0.0361063 -0.28049 -0.349593
206 1 6.01872 2.28469 4.64521 -0.73245 -1.68294 0.175736
207 1 8.05524 5.65757 0.945089 -0.563801 -0.168705 0.23249
208 1 8.60624 5.36825 7.40057 -0.143694 -1.11413 -0.191447
209 1 3.39339 7.44 1.07288 1.31203 0.112815 1.09446
210 1 5.74359 3.70249 2.91773 -0.130685 -1.36225 0.25681
211 1 5.69366 2.16619 0.743521 -1.01243 0.0582978 -0.558945
212 1 1.68783 4.90733 6.88654 1.09152 0.780765 0.955311
213 1 2.15123 5.63024 8.25015 -0.0606456 -0.691242 -2.19607
214 1 0.820822 4.90584 0.100282 -0.862906 -0.2376 -0.436912
215 1 4.2385 8.27048 3.87485 -1.24505 1.33001 -0.468883
216 1 5.39078 5.7473 3.83672 0.556562 0.0430392 -0.830948
217 1 7.52846 6.88187 4.74949 -0.13004 0.574189 0.604745
218 1 1.35318 6.65666 1.53562 -1.11488 1.24099 0.0504734
219 1 8.04218 8.70941 0.763079 -1.41881 -0.00476828 -0.343762
220 1 3.52505 3.97617 3.01761 -0.688881 -2.01802 -0.355836
221 1 8.91263 2.68184 7.31575 1.10227 -0.739937 0.624201
222 1 9.00178 6.06632 1.9896 0.567401 -0.144716 1.97717
223 1 5.04173 7.32867 5.80716 0.323073 -0.629196 0.341785
224 1 2.51808 3.44739 9.26719 -1.1393 -0.281751 1.51693
225 1 0.056732 0.983713 9.05468 0.483914 -0.359009 -0.447937
226 1 8.26182 2.02608 5.82139 0.078687 -0.0843357 -1.82071
227 1 1.60059 8.07531 3.7306 -2.48121 -0.938464 -0.203698
228 1 5.23882 2.27574 3.17292 -0.641276 -0.621922 -0.416489
229 1 0.151462 3.55358 2.35373 0.36451 0.263525 -1.02079
230 1 0.193272 2.16995 8.36158 -0.0795126 -0.559419 0.540386
231 1 2.05075 3.11947 1.72192 0.663923 0.728072 -1.13132
232 1 6.51781 6.1404 6.11141 -0.0768889 -0.597128 0.312929
233 1 2.34089 3.68516 8.40933 0.179844 -0.363277 -0.265951
234 1 2.56482 2.82635 8.62563 0.199142 -0.110767 -0.684911
235 1 0.967871 9.01733 6.28551 0.299471 -0.253551 -1.16644
236 1 8.72691 3.70547 8.81879 1.08227 1.77246 -2.04662
237 1 6.58051 0.00625186 4.49313 0.255405 -0.562441 -0.497299
238 1 9.35955 8.18001 7.13091 -1.59192 -1.56659 -0.588515
239 1 3.68271 5.05986 1.75028 0.864363 0.339145 1.97192
240 1 3.21993 4.5921 4.69446 0.667268 1.08438 -0.708518
241 1 6.67867 8.7193 5.06205 -0.597526 0.0842132 0.255517
242 1 4.65058 4.77721 2.09185 -0.680166 -1.02674 -0.103304
243 1 2.21331 1.87997 5.36641 -1.30678 -1.11677 0.960886
244 1 1.74843 2.70871 5.04508 -1.01842 -1.16715 -1.19121
245 1 6.82965 5.62499 7.8822 -0.334379 -0.267153 -1.43548
246 1 1.93271 5.59674 6.02755 -0.217835 -0.00291738 -0.0408987
247 1 6.08607 4.94105 3.55173 0.191509 0.971316 -0.768662
248 1 5.7463 3.00034 7.63722 -0.808951 0.305978 -1.05581
249 1 7.09681 5.237 4.11129 0.486791 -0.359144 -0.626818
250 1 2.463 7.96379 4.75882 0.0402711 1.40925 0.24976
251 1 7.73989 2.81055 8.30457 -0.473082 -0.558308 0.978481
252 1 1.14639 3.68328 0.5087 0.124575 0.16189 0.704369
253 1 2.77309 7.35611 5.65798 -1.04786 1.07925 -1.66174
254 1 5.36409 2.81283 1.2727 -0.028069 0.256461 -0.616142
255 1 5.85178 7.56962 6.36385 0.427411 0.488863 -1.20569
256 1 5.1459 3.90315 2.1868 -0.78673 0.628064 -0.981996
257 1 8.8617 2.65652 1.75359 0.157981 -0.431717 0.293613
258 1 5.58337 0.16908 0.374275 -0.0162508 0.0818363 -1.35132
259 1 4.80746 7.91225 0.986369 -0.381548 -0.772927 0.302696
260 1 6.19141 5.58394 4.14547 0.452348 -0.490352 -0.448581
261 1 1.5257 6.07532 7.23857 0.530073 -0.815832 -0.50613
262 1 6.49524 7.14114 0.946005 2.92276 0.0972382 -0.233999
263 1 8.49434 5.0227 3.32895 0.233811 -0.845876 -0.931803
264 1 8.69637 7.95071 1.50334 0.610914 0.379256 0.092857
265 1 2.98565 3.95712 3.85016 -0.623376 0.564146 0.643995
266 1 0.26597 6.73278 3.04199 0.490313 -0.017635 0.229151
267 1 2.45574 8.47135 5.49636 1.00677 -0.40552 0.469202
268 1 7.17919 8.72776 0.776987 -1.1776 0.261585 -0.531198
269 1 9.05872 2.50408 3.72691 0.569231 -0.507722 0.11662
270 1 7.45458 8.01876 9.07572 -0.642449 -0.0830326 -0.0221306
271 1 7.30241 4.94677 3.31012 -0.290754 -1.48713 1.03513
272 1 4.04671 8.5341 8.72623 1.05168 0.139433 0.271646
273 1 5.49754 9.31961 5.55894 -0.351525 -0.868312 -1.09859
274 1 3.84626 8.98767 0.680894 0.119069 0.772191 -0.665856
275 1 4.0747 6.59371 2.15231 -0.802758 -0.00818064 -1.46244
276 1 5.87182 2.97673 3.39122 -0.171568 -0.153562 0.310752
277 1 1.78909 8.19703 2.09459 0.307434 -0.166125 0.306853
278 1 7.07976 4.66498 8.26809 -0.452422 -1.26203 0.0660664
279 1 4.7496 6.00509 3.12561 0.843389 -0.121897 -0.00788074
280 1 0.478405 3.92388 5.89555 -0.584928 0.198111 -0.21218
281 1 5.70062 9.08901 6.61321 0.999853 0.192212 0.0288059
282 1 0.441141 3.00022 7.56258 -0.412146 -0.200509 0.86728
283 1 6.86365 4.78542 2.23882 -0.185231 0.147236 0.0700015
284 1 8.90138 5.8256 3.40444 0.636846 -0.608637 -0.349508
285 1 4.61766 0.941489 4.66225 0.0841897 1.06501 1.16233
286 1 7.67076 7.49517 6.87794 0.42916 0.912431 -0.0928247
287 1 9.3826 0.324482 2.3375 -0.635676 -1.50951 1.0445
288 1 4.82022 0.727432 0.439384 0.00374803 0.372187 0.64602
289 1 9.12955 3.49563 3.2151 0.689087 -1.52472 1.01368
290 1 2.16206 1.70168 4.33601 0.908996 -0.910205 -0.662743
291 1 7.59742 7.20857 1.7071 -1.20288 0.0956833 -0.369063
292 1 5.01305 1.71318 5.77148 -0.654312 0.920624 0.118805
293 1 9.35562 1.6532 3.34468 -0.900845 0.575133 2.08169
294 1 0.402747 2.81944 3.35017 -0.497695 -0.0583085 0.145448
295 1 8.21963 8.40797 3.09154 -0.670581 -0.446527 0.751982
296 1 7.64952 5.62822 8.58317 0.45965 0.0310333 0.187212
297 1 8.1524 6.3859 3.22426 1.06862 0.140822 0.228056
298 1 6.28844 2.70667 2.65432 0.10781 1.92151 1.01167
299 1 7.86597 1.76486 8.19819 0.61222 -0.249609 -0.385188
300 1 3.88573 1.9203 9.31259 -0.237339 -0.200548 0.11573
301 1 5.11834 4.97896 8.08971 -0.143907 0.85012 1.78597
302 1 6.42128 6.58031 7.49602 0.568099 0.864274 0.231819
303 1 4.18028 1.77709 4.93908 -0.612909 -0.139186 1.11432
304 1 7.51383 7.14743 8.43807 -0.307396 0.223727 -0.170449
305 1 1.3429 2.3096 9.37039 0.824755 -0.385107 -0.797896
306 1 9.11474 2.04088 1.11943 -0.979314 0.870195 -1.08218
307 1 1.55643 1.83663 8.23158 -0.0018346 0.84439 1.00094
308 1 4.46752 1.67982 4.12081 -0.77189 0.102758 0.766375
309 1 1.32369 8.24399 8.48663 -0.187548 1.1155 0.422592
310 1 2.68634 5.09353 4.04721 0.50449 0.074372 0.730325
311 1 6.61623 9.23893 7.48169 0.619684 -0.413295 0.49799
312 1 5.34131 5.23015 3.06284 0.149605 -0.746474 -1.26504
313 1 2.88639 4.26142 1.49136 -0.548115 -0.470747 0.19411
314 1 4.60913 5.84317 5.01291 -1.24731 0.879288 -0.33894
315 1 4.05596 1.61291 3.04476 1.23573 1.51182 0.472311
316 1 0.464587 8.11393 4.97913 0.758675 0.275128 0.0075359
317 1 5.28605 3.57988 8.98565 0.505893 0.633818 -1.30104
318 1 4.35018 5.45006 4.13959 1.34076 0.0918858 -0.705209
319 1 5.88071 4.69477 9.2593 -0.665807 0.359331 1.16921
320 1 1.14783 6.61969 3.51869 -0.746085 -0.188608 -0.393448
321 1 6.27774 6.20023 4.81216 0.331168 -0.382056 0.0287978
322 1 0.419108 2.93387 5.01535 -0.373434 0.817904 -0.488615
323 1 8.6233 5.30864 6.42543 0.562647 -1.46426 -0.874558
324 1 5.00664 8.6753 4.06966 0.641478 0.347753 -0.0175676
325 1 0.956611 9.18933 2.66866 0.294625 -0.439728 0.167131
326 1 3.03062 8.59642 4.80925 0.886639 0.578265 -0.777335
327 1 4.40558 9.37716 9.17661 0.780019 0.892319 -0.229166
328 1 1.53725 2.2664 1.92462 -0.172153 -0.61455 1.3254
329 1 3.11293 0.383566 2.27511 -0.352926 1.34418 1.69057
330 1 0.381002 8.61144 2.37254 0.0238398 -0.353688 0.27284
331 1 1.13767 6.22386 2.2876 0.59758 -0.277536 -0.38154
332 1 1.78844 0.509044 7.54459 0.0533976 -0.127261 0.00548831
333 1 0.9507 0.621081 9.1066 -1.02865 -0.25127 0.42076
334 1 4.67314 8.45296 3.13579 -1.23414 0.320738 0.0341763
335 1 9.28274 5.33295 4.35078 -0.530518 -1.2395 -1.73743
336 1 1.95159 0.561138 8.66235 0.531978 1.5652 -0.198941
337 1 6.28392 7.7079 1.81959 -0.484353 0.233357 -0.766392
338 1 6.56708 1.50061 6.58311 1.3184 0.0518546 0.880186
339 1 9.36629 7.24736 0.779442 0.384199 -0.348409 -0.428271
340 1 7.8163 4.55581 1.16061 -0.71816 0.0971765 -1.65176
341 1 6.78695 6.63415 1.69359 -0.829659 -0.442808 1.22933
342 1 1.47453 6.4608 0.232078 1.0147 -1.00852 -0.272393
343 1 1.57987 7.36065 7.72881 0.51148 -0.654727 -0.803221
344 1 0.653624 3.62315 3.60089 0.816228 0.0134517 -0.743048
345 1 4.61535 5.89613 8.63369 0.640401 1.52828 -0.0724842
346 1 8.71514 4.85541 9.11898 1.05891 0.430681 0.438075
347 1 7.68066 8.22504 6.21351 0.223409 -0.235944 -1.6327
348 1 0.511334 5.32649 1.02172 -0.117869 0.480064 -0.188207
349 1 1.63693 3.87121 4.04867 2.20321 0.710972 -0.618677
350 1 8.07757 8.15542 3.94221 1.1982 0.84231 0.3692
351 1 8.37053 6.80809 8.72499 -1.80251 0.0159375 1.5198
352 1 0.225011 4.78126 2.10155 -0.16817 0.460937 -0.81719
353 1 7.99646 2.43383 5.02284 1.36204 -0.69283 -1.10521
354 1 2.04909 5.7442 2.62474 0.38045 -0.752926 -0.638588
355 1 2.92047 8.73814 0.816997 -0.328926 0.249889 0.214717
356 1 3.31376 8.33924 3.0595 -0.249958 0.787565 0.459127
357 1 7.86905 2.06111 9.1081 -0.0652735 0.291394 1.50374
358 1 5.18733 7.43368 1.63588 -0.178139 0.745965 0.335646
359 1 8.38068 7.55674 6.20292 -0.2694 -0.0421365 0.95163
360 1 0.790495 6.81593 0.635411 0.525184 1.82058 0.493455
361 1 5.10731 2.46857 6.98239 -0.197968 0.637103 1.29229
362 1 7.40003 7.56734 3.87206 -1.76866 -0.0016255 -0.277426
363 1 2.82136 9.14755 3.19593 -0.808994 -1.52421 0.118721
364 1 7.99985 2.93767 1.88359 0.755409 0.307139 -0.363896
365 1 2.13434 6.97431 8.38114 0.776889 0.340016 1.39548
366 1 7.72512 5.61491 0.145148 -0.02941 1.12062 -0.714879
367 1 1.83052 1.42403 1.5388 0.0984785 -0.194771 -0.733516
368 1 9.0453 4.5491 8.33513 1.04624 -1.83854 0.757152
369 1 7.40565 3.34825 6.99211 -0.271553 0.675102 -0.532846
370 1 5.78453 1.97898 1.73071 -0.00795471 -0.201794 1.7782
371 1 5.99772 1.82132 2.77235 0.296507 -0.713381 -1.47043
372 1 1.44819 5.88146 5.12012 -1.05772 0.853108 -0.412178
373 1 8.01247 0.757877 8.51919 -0.117913 -0.7668 -0.294427
374 1 7.61499 2.45105 6.47319 0.144008 -0.980398 1.19165
375 1 7.29426 6.36905 5.69111 -0.52283 -0.0519793 -0.612259
376 1 9.34254 8.88406 4.62843 -0.385193 1.51073 0.546488
377 1 4.0938 7.40427 3.58142 0.937282 0.584393 -0.639695
378 1 4.60756 7.8932 6.34629 0.348555 0.507264 0.78274
379 1 0.595904 6.50058 5.689 -1.29852 -1.82529 0.0221421
380 1 0.769714 7.67199 2.42421 1.3025 0.489404 0.238861
381 1 8.92822 9.1531 5.43334 -0.300161 -0.978654 -0.076688
382 1 3.97701 0.998501 8.19493 -0.0061891 0.0241434 0.404981
383 1 1.72082 9.06193 1.81393 -1.52781 -0.510853 -0.0964065
384 1 1.16119 5.86364 6.46669 -0.982802 0.883009 -1.1466
385 1 3.18514 9.02412 6.68995 -1.32308 0.653806 -0.545105
386 1 2.81665 5.93364 3.52633 1.41086 -1.12741 1.58801
387 1 3.24392 7.9782 1.99439 -1.0519 -0.571693 -1.12369
388 1 6.36611 9.03106 2.87526 -0.272588 -0.563101 -0.0328146
389 1 0.740333 3.54145 8.1791 -0.078046 -0.718185 0.0145139
390 1 5.50613 4.59566 1.46037 0.747363 -0.227302 0.496341
391 1 6.43825 8.57905 3.61371 0.873752 0.377541 -0.147452
392 1 1.73649 0.0734486 6.76143 0.181558 0.544676 -0.0578475
393 1 7.30848 6.11104 4.23017 -1.19747 1.61062 -1.48458
394 1 6.17776 6.28947 9.16581 0.467466 -0.257731 0.929598
395 1 4.15619 1.33394 0.51352 -0.553294 -0.86266 -0.777749
396 1 7.9432 4.75841 5.37372 -1.17713 -0.545196 1.53386
397 1 3.00285 7.19919 8.69092 -0.416606 0.69055 -1.87531
398 1 1.9921 3.92849 1.34263 0.640271 -0.0468192 -0.0832647
399 1 6.57153 3.8752 5.47545 0.295959 1.00496 -1.26999
400 1 7.72799 1.83635 2.86964 0.06876 -0.623505 -1.21595
401 1 6.34181 4.63239 6.85893 0.833772 -0.717946 1.57104
402 1 7.16502 7.88897 2.1287 -0.622341 0.520926 -2.01878
403 1 2.55382 1.97559 7.76641 0.564419 0.266614 -0.154965
404 1 6.95341 3.21745 6.03547 -0.235957 -0.0959673 1.40878
405 1 5.94712 4.10396 4.80569 0.615607 -0.504046 0.150428
406 1 1.10665 3.41896 2.43532 -0.0251534 1.47124 0.118211
407 1 5.63598 8.13614 3.52686 -0.00820212 -1.12036 0.108616
408 1 0.29458 7.05587 5.00537 0.409356 0.321542 -1.26624
409 1 6.10857 0.504325 6.53622 0.27759 -0.665089 0.592629
410 1 3.32901 1.57359 8.5401 -1.12646 0.0864451 -0.982448
411 1 7.81512 4.71787 9.03131 0.980333 1.19213 0.378193
412 1 1.33935 7.6834 0.573907 0.220848 -2.09327 -0.307535
413 1 7.72193 3.85381 6.33683 -0.862229 -0.624975 -0.0748804
414 1 2.71839 7.95802 3.62204 -0.865208 1.41792 0.854031
415 1 3.14381 6.95457 2.07521 -0.53689 0.123151 0.750297
416 1 1.49013 3.63404 3.20044 0.0487918 0.423701 0.391699
417 1 0.139694 1.13528 2.60043 0.024902 -0.176136 0.669024
418 1 3.64767 6.55498 9.08 -0.454328 -0.192461 0.413617
419 1 1.26299 6.80672 4.98709 -1.41953 0.877196 -0.700466
420 1 7.6265 4.98582 1.93152 0.0699746 0.318192 -1.55313
421 1 4.04568 9.01321 6.54549 0.552866 -1.36637 0.0728399
422 1 8.63054 9.14284 3.46497 -1.41705 0.333511 0.59122
423 1 2.06326 9.13879 8.1086 -0.131926 -0.169298 -0.129021
424 1 5.62009 7.07831 8.8357 -0.213248 1.74264 -0.137882
425 1 6.40381 1.48689 9.39093 1.07181 -0.103866 -0.652917
426 1 8.4403 0.559008 6.85557 -0.854578 0.141704 0.406611
427 1 2.67268 5.61503 7.42609 0.137891 -0.346076 -0.69021
428 1 5.99562 0.938292 3.68353 -0.20507 0.65865 0.997732
429 1 7.57899 2.71277 3.85729 -1.06766 0.463053 -1.57436
430 1 5.6565 8.07243 8.64461 -0.0957709 1.10923 -0.579027
431 1 2.33638 4.28452 4.45929 -0.107243 1.11391 0.950732
432 1 7.34093 1.6847 4.86163 -1.34648 0.907705 -0.012413
433 1 1.96462 3.09951 6.45353 0.112147 -2.01216 -0.63203
434 1 0.466404 8.28569 6.30828 -0.967429 -1.30549 0.452186
435 1 2.59005 0.805328 1.51533 -0.437796 -1.41507 0.542577
436 1 4.79349 7.08379 6.82645 -0.626914 0.650457 0.976038
437 1 8.77285 6.38822 7.77552 0.162054 0.739159 0.623075
438 1 1.9479 6.57548 3.11356 -1.4937 -0.486096 0.692561
439 1 6.60115 3.59398 4.52755 0.755287 -0.682506 -0.849365
440 1 5.49162 4.67882 5.33192 -0.616016 0.00892875 1.52549
441 1 2.80678 5.66211 5.27194 -0.415365 1.84267 -0.169266
442 1 4.45944 0.754302 5.85142 -0.49273 0.30275 0.345102
443 1 7.53549 3.0514 2.92895 -0.678012 0.894275 -0.641143
444 1 7.75061 9.06546 6.68187 -0.382538 -0.67366 -0.728732
445 1 2.90866 1.26574 5.81836 0.115826 -0.394848 0.266707
446 1 0.292251 5.63509 1.85082 -0.226273 -0.631787 0.939766
447 1 0.69125 1.35437 7.66879 -0.0303831 -0.427373 -0.0606805
448 1 0.239529 7.13189 7.42061 0.245926 0.308684 -1.4497
449 1 2.10182 6.44202 2.04973 0.335525 1.02725 0.813496
450 1 4.39216 1.97938 8.44514 0.992159 0.0932956 0.260561
451 1 1.80069 5.58711 1.38125 -0.342958 0.744595 0.0446757
452 1 0.379135 2.61633 1.77914 0.0992843 -0.294367 -0.0535139
453 1 4.35971 4.24565 2.74026 -0.330703 -0.371267 0.979166
454 1 5.53031 8.53403 2.68417 0.0161545 -0.901373 -0.0994481
455 1 8.56884 4.14065 3.6246 -0.830273 -0.740247 -0.637264
456 1 5.82863 2.048 6.37593 -0.234397 -0.841715 0.0282308
457 1 7.75985 5.30191 4.67393 0.552258 -0.139815 -0.0241817
458 1 2.65693 3.98587 2.32137 0.367395 -0.0931268 -0.351575
459 1 2.90842 4.08299 7.74658 1.29384 0.284963 -0.688654
460 1 2.1604 0.828253 5.79321 -0.443988 -0.114194 -0.53062
461 1 8.7564 3.98017 0.637803 -1.13801 -0.551809 -0.843434
462 1 7.69528 0.330147 1.89942 -0.511212 1.98983 -0.0108434
463 1 0.494136 4.83209 4.92051 -0.221718 -0.211785 0.403846
464 1 3.77194 6.34308 8.17713 1.53605 0.68942 -1.24335
465 1 2.40773 5.93669 0.618596 -0.373379 -0.868468 -0.63724
466 1 8.13335 8.5651 8.64577 -0.373151 -0.228468 -0.253218
467 1 6.92186 4.26457 6.30748 -0.500399 -0.573621 0.286961
468 1 7.95314 8.80949 7.72691 0.0725688 -0.160875 -0.575492
469 1 4.99745 3.97337 4.66489 0.637794 0.146079 0.162369
470 1 2.55024 6.94 0.081892 -0.37275 1.79887 -0.339305
471 1 3.16994 6.78705 3.59298 -0.38683 -0.193787 0.860942
472 1 4.54702 0.749549 1.30288 1.26121 0.628258 0.488069
473 1 6.1606 4.96505 8.30287 0.241724 0.386906 -0.0834574
474 1 8.11267 7.9378 0.345296 0.318518 -1.47106 -0.699784
475 1 4.97033 2.52719 4.85665 -0.182496 -0.716058 -1.80652
476 1 7.99336 1.13566 5.68012 -0.684942 -0.00282579 -1.59874
477 1 7.22397 1.95439 0.368406 1.83579 -0.436127 0.0391395
478 1 6.03032 1.2474 5.83038 0.174408 -0.554245 1.09282
479 1 6.3954 0.317807 2.21615 -0.557931 -1.34447 -0.772819
480 1 4.15521 8.28894 7.10061 1.12605 0.10463 1.66618
481 1 8.86156 8.33622 2.40648 -0.372338 1.24157 -1.06577
482 1 4.20185 0.630344 2.06746 -0.0900362 1.11336 0.400093
483 1 7.09122 2.01903 8.80208 -0.966063 -0.289295 0.904841
484 1 8.60353 1.51452 6.89615 -0.381078 0.753574 0.763783
485 1 1.84374 4.79417 2.69501 -0.302671 -0.0143645 1.10356
486 1 8.11826 9.3644 2.66685 0.888386 -0.313873 0.48271
487 1 6.32401 8.51897 7.05407 -0.771865 0.602639 -1.54703
488 1 6.35856 0.564232 0.763837 1.27709 -0.935243 0.785396
489 1 2.28468 4.67244 6.08256 -0.181414 0.365593 0.305735
490 1 8.97426 7.30793 8.12512 0.455934 -1.07894 0.55768
491 1 5.41163 4.66106 4.02793 0.916872 0.667368 -0.704011
492 1 8.66857 3.44561 2.37159 0.503091 0.104211 -0.714798
493 1 1.77367 0.568452 1.79871 -0.758113 0.244216 -0.66406
494 1 9.26264 6.03968 6.08325 0.11516 -0.464114 -0.359316
495 1 8.21202 7.22098 5.15279 -0.49063 -0.179628 0.693175
496 1 3.71658 4.34203 1.02141 -0.19915 -0.170669 -1.4555
497 1 2.40641 8.88635 7.28223 -0.592934 1.27201 -0.19435
498 1 3.89215 0.74886 6.65954 0.156136 -0.762194 0.18359
499 1 2.20294 9.36531 2.49378 -0.598753 -1.46307 -0.17275
500 1 6.40842 4.28294 3.11406 -0.116566 0.30342 0.617605
501 1 0.328998 9.11322 8.07383 0.240207 -0.466344 0.65909
502 1 7.93595 3.09609 5.92655 -0.318553 0.360628 -0.35054
503 1 2.15056 3.51448 5.62747 -0.259352 -1.66293 1.25766
504 1 1.23116 4.15816 8.94567 0.0136492 0.773693 1.78856
505 1 4.75111 6.58748 4.01444 0.0539415 1.84599 -0.0910541
506 1 0.788862 7.83341 9.12038 -1.25266 -0.311623 0.737383
507 1 3.39566 3.06911 2.90631 1.10389 -1.58384 0.0930059
508 1 4.85534 5.8856 6.84711 0.353769 -0.112004 1.13552
509 1 3.73432 0.965725 4.43952 -0.0464764 -0.63572 -1.09975
510 1 1.12703 5.93229 0.973748 -0.421306 0.327726 0.118883
511 1 2.3828 2.91413 3.5851 -0.194449 -0.952465 -0.58938
512 1 8.12323 3.44464 7.56208 1.25022 -0.842196 0.0454454
513 1 8.67934 0.731647 3.03604 0.235347 0.329353 -1.24469
514 1 8.86427 8.39272 6.11971 -0.117578 0.601867 1.24048
515 1 7.16117 7.18449 7.57102 -1.00997 1.1835 -0.934181