ITEM: TIMESTEP
138800000
ITEM: NUMBER OF ATOMS
1000
ITEM: BOX BOUNDS pp pp pp
0.0000000000000000e+00 9.4000000000000004e+00
0.0000000000000000e+00 9.4000000000000004e+00
0.0000000000000000e+00 9.4000000000000004e+00
ITEM: ATOMS id type x y z vx vy vz
1 1 3.41183 1.75134 2.66516 -0.747205 1.56024 2.1283
2 1 3.89042 4.82372 3.38807 0.408016 -0.929035 -0.544142
3 1 0.665895 1.3502 7.74711 -0.457886 -0.142665 1.16714
4 1 3.09607 1.60587 4.4028 -0.519849 1.56278 -0.802409
5 1 3.98779 9.02698 8.49048 -0.500713 -0.883001 0.547402
6 1 0.889667 3.38308 8.41393 -0.736111 0.372905 0.702865
7 1 5.44289 0.884397 0.635998 0.778119 0.699358 0.195118
8 1 0.841365 2.23271 5.64895 0.476758 -1.48464 -0.0846778
9 1 7.99137 2.22485 7.11592 0.550067 0.363592 0.79176
10 1 8.32518 4.92777 2.06533 0.63805 -0.272802 -0.355326
11 1 9.34155 3.59602 7.86068 -0.269956 0.385638 -1.32874
12 1 0.39707 7.90589 1.9314 0.251141 -0.604948 -0.682796
13 1 0.750329 7.69531 7.83759 0.0990539 -0.431694 -0.418977
14 1 5.21762 7.32618 7.2365 -1.87694 0.184454 -1.6624
15 1 2.93611 2.86948 6.66542 0.178808 -0.491521 -0.000189724
16 1 4.82209 8.46179 3.52137 0.396145 0.23432 -0.470314
17 1 6.03733 5.76387 4.46106 -1.88086 -0.931059 0.296273
18 1 1.36169 3.3885 5.44259 0.122988 -0.567961 -0.328769
19 1 7.91049 5.37397 5.32655 1.505 0.939135 0.669051
20 1 2.21621 5.55856 4.64341 -0.213737 -1.81653 0.509667
21 1 5.10181 1.18079 9.11482 -1.30451 -0.00249137 -0.629053
22 1 5.71204 6.3298 3.75132 0.291271 0.480784 -0.140923
23 1 3.69506 0.948408 2.94832 0.0837997 -0.17552 0.896239
24 1 3.28946 1.53372 8.82767 -0.640459 0.632294 0.00202459
25 1 7.08093 8.03921 6.4788 0.783635 -0.136737 -0.303035
26 1 0.533575 5.72076 5.50453 -1.31057 -0.733828 0.497935
27 1 5.9892 0.0457959 8.4603 -0.0916332 0.932654 0.81305
28 1 3.8113 9.04504 2.35804 -1.20937 0.405169 -0.171119
29 1 9.36632 5.87402 0.703675 0.201987 -0.166497 1.01521
30 1 1.61772 9.43315 1.39758 0.480218 0.782063 -0.00808545
31 1 4.19629 3.91344 3.33334 -0.0418351 -0.423159 -0.815936
32 1 6.63432 6.12311 8.10618 0.0211978 -0.658241 -1.11054
33 1 0.518833 1.40582 4.2389 -0.31649 0.391284 0.74476
34 1 9.04272 1.90083 8.64733 -0.31643 0.330156 0.141376
35 1 4.84883 6.66409 8.65453 0.203432 0.239852 -1.34717
36 1 9.18334 7.15238 4.32691 1.52648 -0.868154 -0.399221
37 1 6.00088 1.94767 5.34942 -0.995451 1.20572 0.470768
38 1 8.23239 4.56135 3.50603 -0.574256 1.33548 -0.438032
39 1 2.12083 9.07787 9.19426 0.744633 0.258408 1.03039
40 1 1.36608 3.27837 7.5786 -0.906631 -0.713602 0.0589505
41 1 1.06526 8.93141 8.01037 -0.421277 -0.0593225 -1.13212
42 1 6.43804 4.58528 4.04557 0.738379 0.861231 0.434199
43 1 3.76247 1.26801 1.91982 -0.733706 -0.26753 -0.354874
44 1 6.94689 6.74219 5.47407 -0.70719 -0.701447 0.46068
45 1 7.82846 4.57865 7.58884 0.305262 -1.69258 0.353502
46 1 5.16378 0.702748 6.31241 -0.959422 0.787734 0.0655205
47 1 6.8236 2.74205 6.75583 -0.0512729 0.661188 -0.647815
48 1 7.74063 5.49042 0.75995 0.179776 -0.669117 1.73822
49 1 4.9659 9.327 0.378517 0.561548 0.457365 -0.757074
50 1 0.407941 7.40329 8.95698 -0.237671 -0.423399 -0.9322
51 1 6.16742 3.06244 1.48517 -0.664882 1.48727 -1.13727
52 1 3.89627 1.42295 6.75061 0.829067 -0.645374 -0.505823
53 1 1.93565 9.02187 6.47363 2.29809 0.121599 -0.247455
54 1 4.3354 7.26686 0.363534 -0.291845 1.32994 0.860589
55 1 7.51212 2.50943 0.126844 -0.344405 0.619658 -0.0575345
56 1 5.50236 8.75541 6.06302 0.350881 -0.965582 -0.782745
57 1 2.87381 5.1961 6.16027 0.555626 -0.627542 -0.138849
58 1 8.89616 2.03685 6.87999 -0.546231 -1.48829 0.969523
59 1 6.34817 6.27231 7.2198 1.54075 -0.289736 -0.112733
60 1 4.77746 3.60651 0.885653 -0.556391 1.0782 -0.0153329
61 1 4.94855 0.851171 4.00055 0.162364 -0.599389 -0.921362
62 1 9.2171 8.42661 6.64972 -0.344261 -0.217675 -0.765268
63 1 1.53319 8.11593 8.39905 0.639802 -0.170341 0.188694
64 1 8.35091 4.08562 4.22395 -0.43311 0.302604 -0.26857
65 1 7.72646 7.57412 3.4635 -0.235192 0.609997 -0.541482
66 1 4.7278 0.14106 5.44379 -1.50749 0.120909 0.192788
67 1 2.71915 2.51272 4.13414 -0.0401178 -1.64439 -0.670676
68 1 0.593817 8.4055 8.5575 -0.279138 -0.429321 -0.280736
69 1 7.99903 8.03628 0.781679 -1.28309 -0.0208069 0.711521
70 1 1.60753 5.02318 9.02603 -0.12847 -0.209482 1.51148
71 1 8.35714 8.35662 3.71688 -1.23613 -0.151877 -1.48816
72 1 4.09244 3.45489 1.43286 -0.392928 -0.985397 -0.0222275
73 1 3.26188 8.73546 7.83018 -0.552536 0.171543 1.20539
74 1 7.70027 8.88485 3.47889 -1.34513 -0.943364 -0.560944
75 1 7.5469 6.36875 6.27477 -0.142924 -0.593167 0.230839
76 1 0.386819 2.50328 6.49346 -0.365283 -0.0292244 1.19826
77 1 3.0052 6.81813 3.59125 -0.349514 -0.961963 -0.00970915
78 1 1.1622 0.175011 0.49227 1.19366 1.89645 0.963377
79 1 7.7783 0.136966 4.31031 0.0919964 -1.65558 1.32317
80 1 1.56566 6.23489 6.83535 -0.404092 -0.502983 1.63613
81 1 3.51923 8.49198 0.768229 0.501861 0.0492317 -0.384142
82 1 8.33308 5.76846 3.44822 0.439266 0.561155 1.48028
83 1 4.31098 6.15385 2.83589 0.863531 -0.400621 0.155198
84 1 2.93907 3.39293 0.415681 -0.748986 -1.49768 0.0237979
85 1 8.06127 0.114771 8.15713 0.475255 0.588221 0.08279
86 1 1.21945 7.77696 1.28801 0.26718 -1.49304 -0.431713
87 1 3.83197 4.72823 1.09071 1.64704 -0.956184 0.0835115
88 1 3.75746 8.0017 2.6285 0.0430954 -0.468428 0.555463
89 1 9.25687 5.58957 9.03139 -0.229903 -0.357191 -0.800538
90 1 4.85936 5.35238 7.80942 -0.669284 1.08711 1.26613
91 1 3.18423 4.39441 2.43951 -0.722543 0.918906 1.12348
92 1 5.5067 6.39289 9.18515 -0.333032 0.95265 0.549875
93 1 0.0970938 2.01499 7.68928 -0.898982 0.557062 -0.263597
94 1 1.07714 2.65943 0.971983 1.48777 0.114887 0.41453
95 1 0.706838 4.22604 0.409011 -0.666718 -0.480341 -1.46977
96 1 3.60023 4.75185 4.86727 -0.124717 0.305298 -0.487951
97 1 7.52929 5.24088 4.52095 -0.00788433 -0.197708 -0.714402
98 1 2.65805 8.39599 2.33237 -0.105654 -0.0820213 0.773625
99 1 1.05172 3.84852 3.34221 -0.612722 -0.19624 -1.9472
100 1 9.11047 2.60364 4.36807 0.123049 0.211056 0.155819
101 1 1.91759 1.56398 1.87262 0.466791 -1.39617 -0.479781
102 1 5.54871 5.91137 7.43627 0.29748 1.38072 -1.24583
103 1 2.97895 1.71092 7.02961 -1.29952 -0.189494 0.741227
104 1 2.78384 9.26453 2.39715 -0.517031 -0.668779 0.148818
105 1 8.23218 3.09384 0.00746404 0.0642573 0.262211 -1.31948
106 1 4.52194 2.28879 4.5775 0.0719913 -1.32994 -0.837563
107 1 0.244472 5.72004 7.09012 -0.11658 -0.401374 0.173041
108 1 1.99329 6.62708 8.70537 0.0993487 -0.832976 0.0592748
109 1 4.38592 2.88927 7.02492 -0.0822214 -0.246901 -0.967339
110 1 6.16031 8.21814 1.62445 -0.179488 1.51584 1.42469
111 1 6.82757 7.45134 7.08953 0.533582 0.806506 -0.0775956
112 1 7.633 1.99073 6.1376 -0.265856 -0.798231 0.750998
113 1 5.34498 5.86701 2.85766 0.0427643 -0.127616 -0.733283
114 1 5.33911 1.54012 4.70403 -0.0813568 0.288679 -0.739968
115 1 9.26684 0.710128 4.13069 -0.840723 -0.75719 0.347471
116 1 2.833 0.0896224 6.31638 0.603512 1.02618 -0.273946
117 1 2.64652 5.88061 3.63409 0.981819 1.20073 -0.382153
118 1 3.68647 7.76404 6.26649 -0.23182 0.489225 1.19908
119 1 1.52312 1.54704 7.8795 0.251811 0.00284841 -0.537596
120 1 8.47555 1.62982 5.86387 0.367139 -1.01971 -0.359347
121 1 7.19211 0.995944 5.49623 -0.951305 0.228597 0.8352
122 1 5.77991 6.78658 2.9898 -0.596082 0.360388 -0.28389
123 1 6.6753 1.83883 9.12503 -0.329792 -0.405276 -1.16385
124 1 3.18237 0.770808 6.8224 0.117852 -0.0373457 -1.27772
125 1 7.60138 6.00764 4.00235 -0.697514 0.953407 1.19377
126 1 5.06962 3.91818 3.2282 0.130627 0.212062 -0.0765356
127 1 4.51284 1.09179 5.75985 0.19074 -0.0056674 0.621791
128 1 1.62057 6.94828 5.53016 0.704021 -1.12905 -0.0730103
129 1 8.69788 2.62473 6.2322 -0.522908 -0.140505 0.248858
130 1 7.70278 0.179159 0.514949 0.577149 -0.388316 0.115404
131 1 7.0384 0.543507 3.38712 -0.291989 -0.529848 -1.77122
132 1 4.18644 5.18671 8.36403 0.453709 -0.815807 -1.72598
133 1 9.01361 6.26218 3.95601 -0.58364 -0.624832 -1.92644
134 1 7.00673 9.03975 0.56604 0.682612 -1.28481 -1.07198
135 1 0.327846 5.82727 3.43155 0.643944 0.417703 0.191519
136 1 7.92971 5.58221 6.85406 -1.65875 0.421179 0.0373113
137 1 7.02829 1.80088 5.11888 -0.548262 -0.191484 -0.257249
138 1 4.90435 5.46609 4.48811 -0.754612 -1.1241 -0.012217
139 1 5.33617 1.98989 8.55038 -1.19559 0.430468 0.779109
140 1 2.1685 1.36384 2.95107 -0.0644378 0.292154 0.245846
141 1 0.860338 5.77605 1.3366 -1.17462 0.0734342 0.215221
142 1 4.6598 0.255599 7.69035 0.570854 1.28713 0.0452979
143 1 6.66729 7.06025 2.65861 0.382992 0.384742 -0.565609
144 1 2.01208 3.0002 0.202989 0.657789 -0.00012196 1.04972
145 1 8.66959 9.19926 3.93019 -0.268058 -0.0935769 0.545891
146 1 6.91102 5.9355 5.75949 -0.142359 -0.354358 0.0607272
147 1 5.57745 1.75603 0.125176 -0.511494 -1.14 -0.619819
148 1 3.4233 5.7449 1.26505 -0.0980011 0.921674 -0.601611
149 1 2.75732 9.06395 3.8992 -0.175284 0.0864252 0.829767
150 1 8.19375 2.87768 0.860348 -1.12285 0.503794 -0.606091
151 1 2.12694 6.39734 5.9901 0.555095 -1.18504 1.18336
152 1 0.65155 6.81965 5.14323 0.254045 0.448439 0.642736
153 1 4.59961 3.38836 4.17979 -1.07378 -0.645478 -1.54211
154 1 1.29319 0.421486 6.41776 0.154268 0.365286 1.11343
155 1 4.62478 9.01355 1.96624 0.0690091 -0.280168 0.674409
156 1 0.392622 7.10698 2.49888 0.224068 0.254465 -1.00723
157 1 5.03966 8.37741 6.99711 1.10049 -1.01938 -1.11421
158 1 4.36485 3.6598 7.62695 -0.46402 0.761738 0.705267
159 1 3.5446 8.91417 6.37279 -0.884455 -0.465439 -0.608865
160 1 5.68536 8.835 2.9966 1.05558 -0.192497 -1.04302
161 1 1.02839 8.93245 4.87509 -0.293856 -0.743447 -0.904544
162 1 8.72678 5.74413 7.11462 -0.855167 -0.348309 -0.563522
163 1 4.00188 7.87996 7.26187 -0.197735 1.37987 0.146028
164 1 8.46339 5.97721 1.17801 -0.771683 1.35581 1.07241
165 1 0.173408 9.21033 4.32809 -0.360507 -0.0232367 0.595775
166 1 5.1596 1.68408 6.36012 1.05639 -0.825167 -0.0246718
167 1 4.52191 1.19274 1.27146 -0.638693 -0.426013 -0.897863
168 1 8.67689 1.08957 0.53368 -0.969441 0.201808 1.34831
169 1 1.34413 5.78064 4.97641 0.35627 -0.11994 -0.409178
170 1 2.8245 0.375839 7.85778 1.41191 -0.33452 1.87617
171 1 6.14085 0.802808 6.87436 0.204616 -0.653133 -1.14646
172 1 9.35788 4.75112 0.0577228 1.03641 0.407949 0.657951
173 1 0.0754249 9.30515 3.0624 -1.24655 -0.394059 -0.794333
174 1 1.91864 0.560931 2.46883 -0.893545 0.91295 0.237882
175 1 9.30919 3.62974 1.77617 1.07035 0.499384 -1.27903
176 1 5.47709 2.70976 0.881509 -1.78376 0.181509 -1.24249
177 1 7.48828 7.63492 5.23886 0.39142 1.56844 0.945941
178 1 2.03535 8.94278 3.29467 1.15571 -0.114892 -0.449108
179 1 8.78052 1.0503 6.43546 -1.01096 1.24515 -0.206546
180 1 6.42417 5.34175 7.35275 -0.461515 -0.364192 -0.745735
181 1 4.38685 2.88958 6.06586 0.221621 0.317863 -0.465352
182 1 9.20357 5.2585 3.96628 0.236283 0.427654 0.943873
183 1 2.93044 4.24115 0.733506 -0.0145098 0.667244 -0.227176
184 1 0.355395 8.39987 2.92697 -0.323518 1.17045 0.158734
185 1 0.832391 5.36544 2.13923 0.753872 0.35699 -0.494446
186 1 4.89923 6.69979 2.38399 0.365912 1.15723 1.08696
187 1 0.113277 5.38792 6.28005 0.39855 -1.00668 0.193232
188 1 0.639137 4.50682 6.50948 -0.364983 0.968585 -0.546881
189 1 -0.0368192 8.58933 3.64576 -1.15273 -2.1788 -0.382255
190 1 5.45568 4.76223 2.7843 -0.639707 -0.208778 0.603291
191 1 7.09654 9.34158 8.35449 0.0110646 0.75838 -0.780417
192 1 6.75245 1.4788 3.15292 0.433363 0.0691982 0.382142
193 1 7.63071 6.7865 0.218293 0.483921 0.972238 -0.212192
194 1 8.06898 0.120474 5.51858 0.275571 -0.935812 1.39622
195 1 8.72706 8.90302 5.98779 -0.739363 0.0940898 0.41827
196 1 5.23019 7.7817 4.21062 -0.00709877 0.0956563 0.662925
197 1 4.51532 4.15488 1.71331 -0.0208665 -0.271483 -0.42603
198 1 5.28159 2.50693 5.89372 0.460574 1.44055 0.162965
199 1 9.20873 6.79135 0.99424 0.131853 0.212726 -0.520343
200 1 9.31703 4.17206 6.02362 -0.0692381 -0.480455 -0.32442
201 1 6.5993 7.45496 8.20041 -0.0547195 -0.51418 -0.412007
202 1 6.67354 -1.68499e-05 9.1812 1.6061 -0.401936 -0.523227
203 1 3.26506 4.19785 9.25314 1.40236 -0.617171 -1.20165
204 1 2.84623 7.98341 5.14113 -1.64112 -0.36733 0.556655
205 1 4.94001 1.92038 5.32793 -0.512665 -0.945248 1.21811
206 1 8.3805 1.17692 3.84708 0.182642 0.0420169 0.599613
207 1 0.806126 2.46664 4.08881 -0.545177 0.0769133 0.724298
208 1 2.74835 7.54741 2.92557 1.07004 -0.618498 -0.142562
209 1 0.654659 1.45801 2.1355 0.166348 0.492676 1.32107
210 1 8.46752 7.29296 2.46399 -0.604631 0.107588 -0.947019
211 1 5.93125 3.10209 6.44024 -0.294032 -0.14836 0.442516
212 1 4.31722 5.98427 8.93905 1.27246 -0.611241 0.000859828
213 1 1.4797 7.18817 8.1254 -0.117453 0.798242 0.41055
214 1 2.91768 4.73298 7.09246 0.41223 -0.10352 0.505055
215 1 5.49402 3.18079 9.42989 0.834315 -0.674507 1.10555
216 1 3.4993 8.3676 4.47476 1.27508 1.24814 1.13367
217 1 8.11472 0.433076 7.28508 -1.21832 0.638541 -0.699057
218 1 2.83432 0.753294 9.23993 0.535635 0.530295 -0.583304
219 1 5.86467 8.13962 8.10069 0.489994 0.87459 -0.746149
220 1 7.43396 9.31734 7.39068 -0.117878 0.245129 -0.26817
221 1 5.08143 7.14014 3.71877 0.881751 -0.623234 0.108648
222 1 1.7489 2.2308 1.32178 -0.376774 -0.900409 2.25446
223 1 3.90409 2.70658 4.92007 0.37138 -0.269744 0.347628
224 1 3.59676 8.71929 5.45277 -0.0252338 -0.981736 -0.548667
225 1 5.29657 0.938513 7.26353 0.0795381 0.716981 0.0294794
226 1 8.18823 0.508673 1.41956 -0.482947 0.751956 0.249895
227 1 4.0205 5.00483 2.0163 -1.5552 1.00987 -0.571583
228 1 6.55002 3.87746 0.610818 0.105277 -0.102778 -0.249431
229 1 2.11272 1.82523 7.23133 0.786236 0.328515 0.38794
230 1 6.92399 8.43575 7.40954 0.343279 0.578454 -0.452988
231 1 7.19239 1.72384 7.09882 0.478595 0.314667 -1.57116
232 1 5.33453 0.901195 5.32684 -0.341671 0.805462 1.39127
233 1 5.00601 5.08446 1.94088 1.45014 1.70427 0.225774
234 1 2.90261 6.82624 9.08267 -0.556238 -0.761545 0.576974
235 1 0.331793 9.16816 0.440886 -0.142441 0.806227 0.602673
236 1 4.42414 0.719408 6.94972 -1.30613 -0.660861 0.298323
237 1 3.58511 0.190654 5.62201 1.86529 0.198355 -0.494762
238 1 8.44509 3.91399 0.746292 -0.343594 0.219128 0.66245
239 1 7.23328 9.22982 2.6761 1.08903 0.229708 -0.999352
240 1 7.46749 3.56252 2.48713 -0.00530179 -0.72707 -0.0125385
241 1 8.1442 7.64394 9.36122 -0.743354 -0.477457 0.243436
242 1 6.57357 0.76545 2.46972 0.274744 -1.80205 -0.334904
243 1 6.44864 8.31948 2.40406 -0.867272 -0.926576 0.746115
244 1 5.80954 7.54432 2.45893 -0.313847 1.81392 0.863182
245 1 2.62928 8.13659 1.05538 1.04815 0.106302 0.801689
246 1 4.09546 8.82209 7.0435 0.693211 -0.664651 1.28876
247 1 9.34425 4.10615 1.05252 -0.651029 -0.035073 0.540763
248 1 5.55473 3.54374 4.8266 0.359926 -0.522453 0.227195
249 1 6.38169 0.304551 4.16381 -0.3176 -1.18933 -1.33394
250 1 7.10948 5.16027 5.3238 0.12131 1.13837 -0.11169
251 1 5.07964 6.73416 5.85986 0.252723 -0.308479 -0.755155
252 1 7.56456 3.53318 0.505625 -1.38369 -0.825875 1.08303
253 1 3.07926 7.4998 2.05474 0.278832 -0.0656977 0.424322
254 1 0.685817 7.93121 6.77433 -0.216691 0.747211 -0.883289
255 1 3.76696 5.78627 0.458493 2.286 -1.43318 1.16407
256 1 0.488356 0.893906 2.89173 -1.25164 -0.530373 0.453624
257 1 4.64619 2.39517 0.712003 0.845485 0.144198 0.282554
258 1 8.23599 4.82265 4.62788 0.185705 -0.542308 -0.489652
259 1 2.10909 -0.0137549 8.2994 0.788369 -0.8835 -1.00958
260 1 2.82464 5.24011 2.88164 0.588768 -0.700297 1.45137
261 1 0.073517 2.55766 3.29228 -0.38221 -0.840967 0.378305
262 1 6.51913 0.129293 7.0412 -0.180771 -1.8503 -0.47584
263 1 6.79917 8.77634 5.75796 1.01892 -1.88155 1.54554
264 1 7.61521 4.08671 9.2365 -1.06247 0.213216 -1.65821
265 1 2.29839 4.52257 1.3849 -0.274533 -0.899983 0.881288
266 1 2.44587 4.69345 9.03647 0.286875 0.155409 1.02994
267 1 7.25881 2.72832 4.08284 -0.312099 0.158493 -1.14499
268 1 3.02626 2.00333 5.85831 -0.569317 -0.0521206 -0.134176
269 1 1.47469 0.645879 4.64349 -0.432124 0.17844 -1.25986
270 1 7.43847 4.49185 3.85758 0.801648 1.29605 0.784612
271 1 6.91705 4.24752 2.29916 0.0617613 -0.246455 -0.4846
272 1 1.59814 4.92861 1.62911 1.25166 0.542226 -0.28904
273 1 0.536008 3.59677 6.96689 0.272163 -0.249304 0.921968
274 1 1.36832 6.59162 4.71483 1.06384 0.404806 -1.38156
275 1 6.25421 7.81184 0.708809 0.181264 -0.21761 -0.510114
276 1 3.09525 4.97533 1.66147 0.210333 -0.617616 0.856482
277 1 7.27368 2.86285 2.00611 0.115817 -0.503153 0.322051
278 1 2.68537 8.8485 4.88768 -0.405049 -0.300955 -0.381861
279 1 5.31627 6.85498 0.487898 0.757236 -0.602278 0.722001
280 1 3.54338 2.72716 5.78312 1.11019 -1.06414 0.634954
281 1 5.58852 8.73561 8.90312 -0.413011 0.112698 0.350243
282 1 3.76887 4.453 6.66297 -0.61274 0.590451 -0.408581
283 1 3.96723 5.39259 4.16195 0.779605 -0.0694638 0.459935
284 1 4.30858 1.74899 3.3621 0.274211 -0.0239969 -0.413178
285 1 0.337249 3.86237 5.2989 -0.768652 0.355972 -0.180342
286 1 6.69039 4.0278 5.60242 -0.296216 1.22664 -0.829028
287 1 5.96127 1.29258 3.88343 0.198057 0.821099 0.112121
288 1 8.23586 4.05331 5.21735 0.711174 0.673251 0.853416
289 1 0.0998164 0.390122 6.3033 -0.0764352 -0.242922 -0.578199
290 1 8.48703 4.07158 1.74978 0.846306 0.329698 0.785507
291 1 5.50469 2.38895 1.73953 0.877662 0.121397 0.207218
292 1 6.44888 3.41039 7.38942 -1.34273 -0.300762 0.338397
293 1 1.99673 4.17627 3.57755 -0.47008 0.315545 0.153761
294 1 0.726753 3.13451 1.83292 -0.564519 0.801135 0.708903
295 1 0.986875 6.58682 6.04792 -1.42464 1.22872 -0.487262
296 1 4.6298 7.22936 4.80432 -0.180689 0.55042 0.271589
297 1 8.23047 4.69311 8.5615 -0.676925 0.3065 0.231214
298 1 8.63142 4.8604 5.50134 0.736207 0.0135773 -0.104387
299 1 3.23974 3.41423 3.60531 -1.27013 -0.690508 -0.251033
300 1 0.614873 0.0392758 1.46807 -0.287352 -0.576577 1.36399
301 1 9.20129 6.71986 7.11217 -0.0766318 -1.40453 -0.522729
302 1 4.52166 0.781225 0.472307 0.168873 -0.403746 0.392479
303 1 7.4733 6.49756 3.24669 0.386594 0.931819 -0.396236
304 1 6.51688 3.14973 9.30193 -0.0787911 -0.713877 -0.926262
305 1 1.87771 2.45332 7.95771 -1.54327 1.50268 -1.11788
306 1 1.07842 1.56831 6.37892 0.574947 1.16698 -0.677222
307 1 0.655511 2.03016 0.457616 0.0891614 -0.677081 0.0636
308 1 6.84462 1.23638 3.96525 0.182103 -0.617434 0.256543
309 1 7.26111 3.85941 7.69886 0.582613 -0.092235 0.35378
310 1 7.14677 7.98816 0.875076 0.874523 -0.267262 -0.394214
311 1 5.94841 7.34104 5.84968 -0.867033 1.00593 -1.69374
312 1 3.03914 0.0470198 8.74711 0.0467946 -1.13667 -0.188892
313 1 5.07898 7.41991 9.14026 1.00781 1.71465 0.0226393
314 1 6.90077 2.49195 7.75074 0.337362 0.302511 0.470623
315 1 5.04032 2.34347 2.88123 0.810421 0.416539 -1.56159
316 1 2.33059 0.81168 7.11336 -0.260611 -1.59559 -1.95573
317 1 0.507705 3.21141 -0.0270627 1.05612 0.396239 -1.85308
318 1 2.10524 3.44247 6.20599 0.320532 -0.23376 0.392385
319 1 5.35498 5.55004 5.3421 0.161526 -0.290762 -0.257765
320 1 7.39353 0.808636 8.74429 -1.22357 -0.0557528 0.436662
321 1 0.577542 8.23731 0.333877 -1.49199 1.39016 -0.669698
322 1 6.8164 3.76347 6.50199 -0.792612 0.395407 -0.0754426
323 1 2.51799 2.23289 0.456548 -0.726357 0.665919 -0.702156
324 1 1.20986 2.93952 6.62214 -0.428683 1.29563 0.513875
325 1 4.55809 4.25311 5.80747 0.55003 0.144004 0.348046
326 1 9.30915 7.93694 5.98531 0.864706 -0.257609 0.59661
327 1 8.7113 4.82474 1.11957 -0.474697 0.678213 -0.692221
328 1 8.41162 1.97597 0.0603071 0.417242 -0.371603 -0.536681
329 1 4.51299 3.00482 9.06787 0.0738311 -1.11964 2.2887
330 1 0.750815 0.837981 5.69672 -1.21404 0.354419 0.247761
331 1 0.556133 4.99373 3.62206 -1.10003 -0.894223 1.02064
332 1 4.98493 6.35726 6.84559 -0.622691 0.475317 0.0755896
333 1 5.70726 0.275552 9.2728 0.753452 0.105856 -0.278462
334 1 6.02231 0.804551 1.43435 -0.712836 0.273588 0.957556
335 1 2.17412 2.87931 4.99181 0.19376 -1.75659 -0.508096
336 1 1.33932 0.173855 3.05614 -0.85458 0.0861652 0.289058
337 1 2.51513 7.10412 7.29025 -0.9482 -0.428577 0.474223
338 1 6.51195 5.8378 3.05586 0.506661 1.32357 -0.55573
339 1 0.749416 5.61512 4.30015 -0.815533 0.108278 -0.952002
340 1 3.2753 0.297747 1.24852 -0.464645 0.795178 0.433895
341 1 1.88153 6.30291 1.22743 -0.311891 0.266355 0.897275
342 1 0.633131 0.406326 4.79473 0.246597 -0.679865 -0.745392
343 1 6.19268 -0.0302261 6.25006 0.497742 -0.634428 -0.527504
344 1 6.63207 4.13971 9.10599 -0.235443 0.430428 0.052422
345 1 5.07328 7.53439 8.14581 -0.0197498 0.659675 0.670384
346 1 5.40281 2.89696 3.85728 0.196112 2.3088 1.42132
347 1 3.36959 6.97109 7.77717 0.308758 1.32858 -0.0809537
348 1 8.19261 1.31485 7.07696 0.563897 -1.16252 -0.227849
349 1 2.32514 4.39687 2.2712 0.379183 -0.234626 0.579417
350 1 0.849637 7.34524 3.16643 -0.909991 -0.136789 0.318153
351 1 9.30972 1.04366 8.42325 -0.28887 -0.731088 -1.34778
352 1 6.82814 1.40199 8.26183 -0.347351 -0.588782 0.604685
353 1 5.13722 8.74161 4.62043 0.0161771 -1.46081 -1.692
354 1 4.48851 5.34957 1.28114 0.21025 -0.29959 0.259404
355 1 2.08294 4.18548 8.40549 1.00718 0.0172725 0.166103
356 1 6.75622 5.49187 3.87954 0.138623 -0.146889 0.0836992
357 1 8.52222 3.54731 5.82509 0.248066 -0.83633 -0.933551
358 1 2.23696 3.17207 7.21704 -0.247649 0.345854 -0.406599
359 1 1.95776 0.414449 3.75955 0.580133 -0.0525982 -0.0248891
360 1 5.71849 2.91397 2.55922 -0.972758 -0.569035 0.0380131
361 1 -0.0104346 6.40003 5.92854 -0.463838 -1.15659 -0.0489237
362 1 8.38003 7.05552 7.35492 -0.0696223 0.831088 1.03142
363 1 7.27857 0.323084 6.04729 1.07208 0.0338609 0.503793
364 1 6.01164 6.41326 1.89907 0.26054 -0.560906 -0.0591408
365 1 3.04915 7.89401 8.40746 -1.9284 0.65175 0.122869
366 1 6.62977 7.43558 4.8515 0.611453 0.803181 -0.171604
367 1 4.23585 6.83824 7.586 -1.77995 0.881969 1.64539
368 1 1.05516 4.09564 7.89618 -1.34476 0.379469 -0.510202
369 1 7.65459 4.6848 1.53388 -1.32307 -0.935556 -0.201247
370 1 5.57876 0.248414 3.56443 -0.456829 0.82455 0.0323871
371 1 2.26882 5.69342 6.55239 -0.89375 1.14022 0.829002
372 1 6.63197 7.85075 5.62667 0.717736 -0.335433 -0.704218
373 1 3.44167 2.46802 2.02101 -0.530591 0.477099 0.59725
374 1 1.13889 5.88221 7.62562 -1.89791 1.40146 -0.730025
375 1 7.82334 3.48274 8.53809 -1.65932 0.0708322 0.615966
376 1 7.46081 8.36442 9.38287 -0.408951 -0.552366 0.248153
377 1 6.48124 2.67411 2.92805 0.145274 0.833115 -1.47992
378 1 4.51041 6.23163 5.11727 0.388005 0.00280216 0.75538
379 1 4.52629 8.63245 5.67518 0.200171 -0.00619908 -1.41813
380 1 3.4199 8.46339 1.70116 1.85317 1.40071 0.341218
381 1 6.95683 6.09818 4.6989 0.318391 -0.418677 -0.415039
382 1 8.0025 4.01333 6.90694 -1.00639 1.72791 -0.0814341
383 1 1.75216 2.61365 5.70933 0.393049 1.51065 -0.774733
384 1 5.26934 1.79679 1.05581 0.725546 0.490561 0.360942
385 1 5.39683 0.333992 4.55912 0.878948 0.649958 -1.29857
386 1 1.26155 4.90702 8.16266 -0.755302 1.31815 -0.799508
387 1 2.34305 7.24402 4.04102 1.85819 -0.920539 -1.45574
388 1 1.2688 2.12316 7.14402 -0.125248 0.237423 0.117988
389 1 0.300377 1.38826 -0.00849463 0.125844 -0.120401 -0.441708
390 1 3.11739 5.67024 4.46072 -0.382088 1.03347 0.504292
391 1 7.23848 2.57814 8.66373 -0.607253 0.723325 -0.832194
392 1 7.33199 7.88483 8.30944 -2.23899 -1.46623 -0.063431
393 1 8.89245 0.683075 5.64551 1.25645 0.0240413 1.00881
394 1 7.63075 8.94466 5.97989 0.931686 0.130438 0.175689
395 1 8.89624 0.301909 7.7409 -0.0848601 -0.228173 -0.00424297
396 1 5.07262 5.32034 0.538765 -0.911023 -1.0585 -0.0101807
397 1 0.484349 0.515145 9.1794 -0.558153 0.30261 -0.92528
398 1 3.71858 6.70689 2.99104 -0.067112 0.0262225 1.62848
399 1 4.52217 2.01446 6.94296 -0.38379 -0.10686 1.79565
400 1 1.20497 0.636046 7.9471 0.153032 0.185361 0.740813
401 1 4.06737 1.58057 5.02343 0.524796 0.749548 -0.560383
402 1 4.33759 6.1274 6.04544 -1.28999 -1.44622 -0.692821
403 1 1.11248 8.4931 1.84814 1.07095 0.379727 -0.629281
404 1 1.73418 7.97012 0.496389 -0.65637 0.151863 0.469416
405 1 8.49987 5.3117 0.191662 0.131666 0.0292437 -0.115499
406 1 7.77417 4.63551 2.66384 0.237613 0.873121 -0.220777
407 1 7.82274 6.57937 5.01992 -0.901508 0.176352 -0.0108262
408 1 7.22505 9.20851 5.09515 -0.066427 0.184437 -0.0296522
409 1 5.35845 0.21749 2.44022 -0.265286 -0.605199 1.46247
410 1 2.5478 6.47408 4.47051 -0.146613 1.04602 -0.432608
411 1 6.62171 0.0807347 1.67507 0.962626 0.124447 -0.878929
412 1 3.692 2.30006 1.13989 -0.761718 0.582902 -0.141464
413 1 5.80833 6.9971 6.74601 -0.770352 -0.357722 0.626894
414 1 7.56579 5.76932 2.59261 0.497432 0.576011 -0.134312
415 1 0.701563 3.43498 6.0751 -0.43987 -0.258429 -1.7297
416 1 6.57507 5.93591 9.00635 0.306693 0.211037 0.641798
417 1 6.16748 2.0013 3.50762 0.538654 0.7609 -0.208129
418 1 6.08638 8.03441 7.17859 -0.355124 -1.02326 -1.41004
419 1 5.97774 4.52488 0.354358 -0.950362 -1.03538 -0.495734
420 1 2.94829 -0.0344738 0.499199 0.447502 -1.15315 0.824495
421 1 0.971004 5.60622 6.65724 0.310137 1.64085 0.0608961
422 1 7.67567 7.39254 1.38865 -1.48684 0.0653851 -2.17525
423 1 4.73481 0.312313 8.73108 -0.207636 0.148817 -0.107729
424 1 8.70762 3.12995 8.53104 0.75424 -0.52544 -0.825999
425 1 8.36802 7.11872 0.782477 -1.15387 -0.334064 -1.03152
426 1 8.50453 0.550173 4.67189 0.0676024 0.0872691 0.0518926
427 1 1.30598 2.56757 2.27379 -0.77346 -0.673728 0.715862
428 1 8.01159 2.2599 2.40821 1.58073 -0.163317 0.254008
429 1 6.84671 6.23633 0.458281 -1.5441 0.172141 -0.9301
430 1 3.52075 2.3868 8.40873 -1.02416 -0.363009 -0.367844
431 1 4.90789 7.55943 2.01752 0.133654 0.0761585 0.0279236
432 1 1.81481 6.35917 3.82941 -0.508167 0.428509 0.302912
433 1 5.20985 3.46546 5.99039 -1.58196 0.516842 -1.04949
434 1 2.32304 8.042 6.96407 0.321561 1.08518 -0.191335
435 1 4.11278 3.28229 8.33726 0.672954 -0.224206 0.344927
436 1 4.33381 7.05709 6.53133 -0.320449 0.189317 -0.518741
437 1 9.30659 1.65569 3.67182 -0.945388 -0.278877 -1.03503
438 1 5.75885 5.11018 8.11884 1.19807 0.797728 -0.386869
439 1 4.69127 3.16166 5.20596 0.99696 -0.0100213 0.00574578
440 1 8.30514 3.02975 2.87019 0.388193 0.228033 -1.62889
441 1 6.15375 5.92803 6.37614 -0.777302 0.795345 0.689903
442 1 2.06192 1.60957 6.24082 -0.244041 0.277552 -0.72989
443 1 5.58873 3.14281 7.84709 0.290315 0.377073 -1.19032
444 1 1.5481 4.12404 0.0214365 -0.349408 -0.312797 -0.0868912
445 1 8.99909 1.75561 2.50384 -1.09395 -0.456614 1.63025
446 1 2.42811 3.37441 4.31892 2.44714 -0.699768 0.421917
447 1 4.92894 3.65254 8.43466 0.586117 -0.0669062 0.211606
448 1 8.92085 7.84653 0.477661 -0.492772 -0.538559 1.77737
449 1 6.8445 6.19603 2.26067 0.159089 -0.602938 0.763027
450 1 2.85749 2.9407 8.89751 -0.0196484 0.680145 0.706559
451 1 9.21429 8.00064 8.73126 1.86514 -0.835815 0.463184
452 1 9.3083 1.80269 5.96056 1.20784 -0.918954 0.799766
453 1 7.48188 5.9565 9.27727 0.814666 0.263156 -1.60571
454 1 8.04633 7.96827 1.97572 0.162654 0.189728 -1.08166
455 1 9.3077 9.31229 5.43616 0.829126 -0.00809424 0.758914
456 1 4.94609 8.55174 1.26039 0.0351876 0.645686 -0.996717
457 1 8.10397 2.33999 4.23965 1.04673 0.244223 0.6919
458 1 3.40643 5.0934 7.93479 -0.562604 -1.02826 0.69223
459 1 7.89034 8.49299 6.71444 0.955084 2.08267 0.459708
460 1 0.801434 1.67855 3.35116 1.00567 0.969496 0.405699
461 1 9.29652 6.5691 8.55719 -1.9312 1.21907 -0.0155568
462 1 6.39968 3.88957 1.568 0.798395 -0.763568 0.00753735
463 1 8.55668 8.39207 1.37445 0.463729 -0.216625 -0.0317677
464 1 4.23942 8.06396 1.63199 1.4455 -0.599469 -0.692715
465 1 3.41897 6.64015 0.476901 -0.235054 0.361106 -0.774044
466 1 7.5519 5.52618 7.70463 0.266815 -0.209811 -1.17113
467 1 6.12653 1.02666 9.14895 0.570804 0.1559 -1.15655
468 1 8.32382 6.91398 1.69013 0.998053 1.38216 2.12408
469 1 4.95026 4.34587 7.57137 -0.614045 -0.0898473 0.0660229
470 1 2.19151 1.4637 4.15791 0.334646 -2.19522 1.45593
471 1 1.55828 4.11462 5.00093 -0.336533 0.526881 0.635606
472 1 3.10949 7.32336 4.64693 0.565184 0.588533 0.444928
473 1 3.48535 2.64544 3.37475 0.166537 0.199639 0.296859
474 1 5.52075 8.39821 2.17795 1.20311 0.494161 0.628128
475 1 3.20106 3.37724 4.98804 1.62275 -0.205618 -0.570793
476 1 2.45481 4.11803 4.86086 -0.169691 -0.321463 0.606441
477 1 2.66389 8.27143 0.144908 0.0136466 -0.796995 -0.374504
478 1 8.33891 5.61533 8.40454 1.06851 -0.0210918 0.715199
479 1 4.68205 1.49038 2.468 0.911156 1.00388 0.537073
480 1 9.25059 7.2538 7.95279 0.133367 -0.835472 0.79284
481 1 0.226186 1.90783 5.03902 -0.22978 -0.0452288 0.169136
482 1 7.06099 0.734908 0.115674 1.58555 -0.457923 -0.5691
483 1 6.79252 4.4448 8.19483 -0.537594 0.883155 0.0953734
484 1 6.87338 2.8824 0.941961 0.682645 0.825254 0.0222873
485 1 9.07168 0.988754 1.37587 1.15495 0.361323 -0.24772
486 1 3.05455 7.9194 7.57545 0.597858 2.14962 -0.00286475
487 1 4.79726 4.82288 3.62198 0.184744 0.716509 0.739168
488 1 5.8387 6.25824 5.67966 -0.0287331 -1.11287 -0.935114
489 1 5.72732 5.69225 1.07526 -0.909741 -1.33685 -0.0226128
490 1 3.50757 1.13449 5.91216 -0.440073 0.149503 -0.323121
491 1 0.788539 7.84989 4.79588 -1.57158 -0.972401 0.0507282
492 1 8.63407 6.61325 6.46016 -0.367406 -0.0671917 0.0506282
493 1 7.32705 5.33211 8.49424 -0.314742 -0.142632 -1.33868
494 1 2.62207 5.88015 1.98142 -1.00312 1.38546 1.00451
495 1 4.16081 6.02848 7.23632 -0.413488 -0.0206201 -0.878322
496 1 1.56966 3.58833 2.58176 -1.39842 0.433247 0.766447
497 1 3.07794 3.76614 8.40253 -0.334549 0.0910175 -0.433433
498 1 1.42445 4.61581 4.0724 -0.836878 0.981253 0.909787
499 1 8.57748 4.24439 2.74708 -0.446158 -0.289815 -0.271325
500 1 8.14778 2.38608 8.74857 -0.594632 -0.824684 -0.471046
501 1 5.27012 2.75413 7.03093 0.317222 -0.599356 0.124607
502 1 4.30754 0.513535 2.37528 -1.13605 -0.495714 -0.937981
503 1 1.58098 4.03629 6.85087 0.375881 0.757718 0.317262
504 1 1.05954 9.24625 8.88445 -0.575929 0.0670969 -0.683014
505 1 6.65288 9.13494 3.40622 -0.00925268 0.543986 -0.16757
506 1 4.91918 3.52719 2.41705 -0.780392 -0.557028 0.266856
507 1 4.54307 9.15906 3.08105 -0.922575 -1.54315 0.459911
508 1 6.14155 2.38313 0.188695 -0.995321 0.124459 1.40614
509 1 4.55817 5.18532 2.87897 -0.248524 0.299151 -0.256021
510 1 6.11666 1.89437 6.59441 0.425351 -0.763987 0.179395
511 1 6.55263 7.23038 1.77479 -0.377924 -0.186941 0.268339
512 1 6.63402 3.49039 8.45354 0.345369 0.487797 -0.754388
513 1 0.803473 4.11919 1.95527 -0.133121 -1.1125 0.906284
514 1 7.60783 6.43162 1.01356 -0.532959 2.17588 0.190672