ITEM: TIMESTEP
50
ITEM: NUMBER OF ATOMS
1000
ITEM: BOX BOUNDS pp pp pp
0.0000000000000000e+00 9.4000000000000004e+00
0.0000000000000000e+00 9.4000000000000004e+00
0.0000000000000000e+00 9.4000000000000004e+00
ITEM: ATOMS id type x y z vx vy vz
1 1 2.2271 2.2911 8.92778 0.439952 -0.0922297 -0.355271
2 1 8.44611 2.25345 8.6975 0.898218 -0.75906 0.273679
3 1 3.94035 5.18187 2.28109 -0.383262 0.21138 0.195199
4 1 6.12914 6.21749 9.31954 0.821039 -0.364471 -1.09861
5 1 2.21737 8.57277 3.95561 0.689727 1.03805 0.861436
6 1 6.55242 0.353008 7.8247 -1.33603 -0.478165 1.16599
7 1 1.27796 7.88839 8.6776 0.201233 0.935011 -0.453672
8 1 4.18881 3.21174 6.85633 -0.651202 1.14134 1.75048
9 1 2.82065 3.04869 4.42585 -1.17007 -0.111879 -0.0322946
10 1 8.41946 8.46533 8.47366 0.115795 -1.3091 0.242832
11 1 0.815361 3.14568 8.96434 -0.465221 -0.325981 -0.421348
12 1 7.14878 1.03502 2.23821 0.738527 0.68881 0.537804
13 1 8.27707 2.01738 4.82698 -0.344109 0.0938451 -0.39916
14 1 3.61564 5.25037 0.0633659 0.74586 0.14093 0.781288
15 1 8.64049 3.25184 1.15291 0.422093 -0.446849 1.0197
16 1 1.89198 0.632584 6.6638 -0.00298653 1.02544 -0.664836
17 1 8.56569 3.93411 7.39075 -0.286353 0.992901 0.0271017
18 1 8.15934 7.00815 0.166264 -0.524825 1.43705 1.98229
19 1 3.69279 0.912811 8.05039 0.723291 0.56893 0.104895
20 1 4.13142 2.53643 7.66595 -0.385611 -0.245573 -0.255418
21 1 0.481627 2.83418 2.8937 0.136221 0.0981557 -0.127091
22 1 3.32204 4.72392 5.94503 0.459216 -0.175365 0.285151
23 1 5.93424 2.0814 8.20715 -0.388263 -0.341763 0.641258
24 1 3.27092 6.79032 5.90659 -0.162331 -0.343471 0.047299
25 1 6.03719 1.86212 6.97956 -0.154868 -1.50513 -0.287474
26 1 0.16573 0.524353 5.09619 -1.31901 0.173387 0.45094
27 1 7.37336 8.28944 8.42968 0.504281 1.41018 0.541106
28 1 3.6427 3.69985 6.09931 0.568507 0.883027 0.0852858
29 1 0.532698 4.56604 8.0945 -0.657851 -0.90579 0.932232
30 1 9.00181 2.15646 2.89498 0.229077 0.413136 -0.413652
31 1 0.256823 3.71891 3.99932 -0.923963 0.0894859 2.0439
32 1 3.90232 1.41233 5.18649 -0.484514 -0.806216 -0.0696249
33 1 1.86661 3.34832 9.11333 1.21005 1.64244 0.350647
34 1 7.20582 7.40225 2.45597 -1.30088 -0.318614 -1.18731
35 1 7.85579 8.58845 5.61664 -0.732025 -0.295218 0.745443
36 1 8.93092 6.50956 2.02889 -1.54984 1.21119 0.317282
37 1 6.07876 3.96867 1.96443 0.466345 -0.467783 0.518746
38 1 1.66382 0.0754415 2.33857 -0.112922 -0.058801 -0.002602
39 1 2.20505 7.12384 6.21457 0.976174 -0.37993 -0.0720326
40 1 2.19429 0.579655 0.269719 -0.551844 0.320759 -1.06212
41 1 5.92467 0.249389 6.95442 0.621098 0.612448 0.531302
42 1 0.639875 7.614 7.3211 -0.185161 -0.557138 0.315192
43 1 3.17843 1.49998 2.18237 -1.30865 0.383355 -0.282885
44 1 5.73855 2.68758 4.41845 -0.250459 -1.07338 -0.100845
45 1 4.31424 1.10412 6.25612 0.527297 0.161487 0.713953
46 1 1.00671 7.85109 2.72949 0.632501 -0.0180189 -0.0933373
47 1 3.55346 6.05996 6.8399 0.172778 0.938926 -0.912389
48 1 7.65445 4.33445 2.7241 -0.377118 -0.0100884 0.469802
49 1 4.10358 4.30986 5.33584 1.6018 -0.875625 -0.0459716
50 1 8.97024 9.31833 2.98632 -0.115995 -0.270745 0.224708
51 1 5.41954 5.64492 4.38547 -0.184133 0.186063 0.353213
52 1 5.20246 2.49711 0.973664 0.690858 -1.22451 -0.748446
53 1 6.44025 2.91911 5.38614 0.514361 0.62069 1.39553
54 1 8.44259 6.62388 7.38599 0.728208 -0.913956 -0.717423
55 1 1.35579 2.63391 6.44168 -0.0738322 0.49205 -0.516445
56 1 2.61439 4.22801 6.6046 1.0852 -0.919545 -0.895374
57 1 0.0924244 0.315402 6.99337 -0.0767575 -0.707302 -0.928288
58 1 9.10433 7.55033 0.354237 0.282354 -0.452519 0.673244
59 1 0.0326907 9.31832 5.94266 0.615368 -0.43117 0.829803
60 1 9.07292 5.69936 0.430254 0.771416 0.266202 0.785741
61 1 5.94049 5.90446 1.8852 -0.086739 0.14649 0.212216
62 1 0.962692 1.43654 2.14346 -0.549635 1.67657 -0.559774
63 1 4.01687 4.4883 7.88414 1.13937 -0.288473 -0.820728
64 1 4.67848 6.23775 8.13784 -0.42529 -0.0709114 -0.38807
65 1 3.03891 2.5429 0.150644 -0.243662 -0.546752 0.00671804
66 1 5.38153 5.33897 8.49622 0.606116 0.0233866 0.481944
67 1 4.65385 7.1783 2.705 -1.33034 0.557004 -0.901207
68 1 2.66991 6.51131 8.27338 -0.152586 -0.16949 0.00631859
69 1 4.49068 3.42332 8.83828 0.80369 -0.286336 -0.944144
70 1 0.777337 2.80122 3.98809 0.753091 -0.0180993 -0.254691
71 1 7.45976 5.30912 8.78357 1.14684 -0.84521 -0.0774366
72 1 5.83205 6.87369 1.40955 -0.42174 -1.52022 -0.358529
73 1 2.27035 5.57661 1.56836 1.06854 0.276701 -0.451311
74 1 5.17915 7.25169 8.48626 -0.552526 -0.394802 -1.23095
75 1 1.05125 8.38442 4.07713 -0.659315 -0.208287 0.299221
76 1 5.41701 1.83583 3.83099 -0.958378 -1.13877 0.0994436
77 1 3.50828 3.94945 7.12694 0.886962 -0.00487155 0.702203
78 1 0.267196 6.09521 1.32484 0.755326 0.203014 0.889052
79 1 5.60869 6.43059 2.73494 0.777034 0.166052 -0.311196
80 1 8.94483 5.57459 3.62691 -0.327447 0.103214 -0.25764
81 1 3.18182 1.86444 3.23976 0.0489589 0.284548 0.427338
82 1 6.46472 0.0177225 1.72371 -1.43275 -0.0764054 -0.589907
83 1 2.56859 8.181 4.90983 0.308036 0.106903 0.540699
84 1 8.0885 5.90542 0.0569582 0.580799 0.307099 -0.219649
85 1 2.44785 5.17462 2.53134 -1.39841 0.0243075 0.504019
86 1 5.44842 4.32872 0.468421 0.331267 -0.953178 -0.900647
87 1 7.99849 5.52606 3.05535 -1.18026 -0.330568 0.273765
88 1 1.89561 8.07197 5.68795 -0.130972 0.178729 0.0766048
89 1 1.32791 4.58758 0.701529 -0.931294 0.0280498 0.142918
90 1 5.61337 9.10758 4.52293 0.662053 -0.702196 1.15323
91 1 8.64232 5.67405 6.93062 -0.215238 -0.553903 -0.638559
92 1 1.58818 8.90059 8.09984 -0.564469 -0.664658 0.224577
93 1 2.15054 8.85229 0.578743 0.745104 0.156722 -0.0753473
94 1 6.22666 7.15568 8.85511 1.16334 0.446919 0.114942
95 1 5.43457 6.49811 3.75877 0.59309 -1.12111 -0.172504
96 1 3.72531 8.43601 7.89485 0.491524 0.264704 -0.302115
97 1 4.28444 3.78719 1.04734 0.843746 0.798109 0.828186
98 1 8.58166 9.25878 1.35696 1.2294 0.810662 1.43131
99 1 1.26434 1.10119 5.96044 -1.34528 -0.756681 0.0292742
100 1 4.40791 2.22574 6.57465 0.34259 0.11169 0.313711
101 1 6.89447 6.68653 1.73071 0.986025 0.0673964 0.090462
102 1 6.15336 7.86907 8.06829 -0.166038 0.998869 -1.3323
103 1 2.47099 1.13155 3.73185 -0.465608 -0.214791 0.415728
104 1 1.13914 9.09037 0.939043 1.50037 -1.02386 -0.445363
105 1 7.01151 0.397059 6.73079 0.823063 0.212844 -0.873813
106 1 5.32293 2.75152 5.43139 0.626858 0.885699 -0.579806
107 1 9.39129 7.24196 1.35375 -1.06971 0.257336 0.520607
108 1 8.32241 8.12714 7.03907 0.235183 -0.433817 -1.29956
109 1 3.38335 3.90139 3.55081 0.942716 0.0391167 -0.455137
110 1 1.39512 7.81689 6.56561 0.446801 -0.936632 1.59338
111 1 1.19289 0.884707 8.95244 -0.0115003 -0.00740418 -0.65301
112 1 3.49167 3.41053 2.58004 0.0280121 -0.966855 0.366432
113 1 0.111543 6.89775 8.06161 -0.060807 0.471214 0.258402
114 1 4.06206 6.28784 2.45381 0.164629 0.00756258 -0.405275
115 1 4.78836 0.847751 5.31074 0.485296 -1.71255 -0.317351
116 1 1.27637 8.31941 0.200124 -0.910559 0.0826948 1.1113
117 1 5.81065 7.15741 6.42422 -0.783976 -0.499728 -0.455788
118 1 6.43408 8.79694 8.60844 0.846916 0.124691 -1.03626
119 1 7.47546 8.16696 0.95543 0.660017 1.16287 0.869828
120 1 5.7233 8.93277 2.73103 0.0586729 -0.593307 0.567589
121 1 5.10809 8.85492 7.00474 -0.452422 -1.66937 0.751277
122 1 0.489731 1.46915 1.17079 -0.23255 -0.593921 -0.259849
123 1 0.983798 1.20469 4.87691 0.763574 -0.0667052 0.401896
124 1 1.83621 6.09543 0.706955 0.0598495 -1.00583 0.403324
125 1 8.96633 3.13006 5.56706 0.0499684 -0.595577 1.46601
126 1 2.15348 5.15549 6.98485 0.527158 0.355083 -0.0665955
127 1 3.57622 7.31814 3.58288 0.0959107 -1.083 0.472306
128 1 5.08428 1.95349 7.44555 -0.857785 0.355912 0.973152
129 1 4.4657 6.29132 0.745275 0.312774 0.0585958 1.00426
130 1 1.86973 6.06038 7.65419 0.774676 0.680585 -0.89579
131 1 8.64771 0.615991 5.6217 -1.25688 0.471116 -0.207621
132 1 6.69349 5.69879 2.87848 0.337465 -0.168879 0.961469
133 1 7.95566 6.87638 1.8176 0.0127838 0.448422 0.453159
134 1 5.27022 1.36959 8.66413 -0.454009 0.433321 0.0797404
135 1 5.65004 2.88987 7.57161 -0.401314 0.0396044 -0.794616
136 1 3.23628 8.14918 8.80973 -0.423108 0.113569 -0.501928
137 1 2.82526 4.61559 7.60236 0.0737219 0.48435 0.660038
138 1 3.69912 3.44986 8.06455 -0.0287918 1.56293 0.618932
139 1 0.572514 7.33204 4.30069 1.11421 0.987139 0.350861
140 1 1.50954 4.91614 4.88992 -0.0936052 0.390441 -0.0865291
141 1 1.21922 2.51745 0.356135 -1.08901 0.156444 0.10602
142 1 3.39845 2.24984 6.95868 -1.0157 -0.837868 0.0049386
143 1 2.15405 6.12019 6.5903 0.466102 0.823417 -1.11018
144 1 8.32693 7.51737 6.14679 0.0979703 -0.365395 0.0693636
145 1 3.7866 7.09871 6.7962 -0.290165 1.0473 -0.70722
146 1 8.84131 8.23429 2.78258 0.771829 0.748853 -0.472147
147 1 3.15537 0.0551488 7.73666 -0.70747 -1.01482 0.623892
148 1 8.29117 3.28228 8.15662 1.20287 0.561574 -0.778033
149 1 1.19395 6.55904 1.43527 -1.30391 0.538365 -0.670445
150 1 3.55955 8.48383 5.09409 0.458809 -0.0791674 -0.134821
151 1 1.19611 0.27001 5.30742 0.922273 1.15154 0.13096
152 1 5.42515 1.72207 0.261844 0.990026 0.255323 0.222739
153 1 0.33258 4.95518 0.746429 -0.554506 -0.904729 -0.0329464
154 1 5.94139 8.03884 7.04753 1.00174 -0.167351 -0.0760653
155 1 4.35287 8.41454 8.80318 -0.541912 0.831501 -0.726796
156 1 4.15064 2.73293 1.09346 0.321727 1.37545 0.205461
157 1 7.95093 0.972525 6.55486 1.01076 1.26531 0.612221
158 1 1.08195 8.67825 7.0955 -1.00205 0.117747 -0.439304
159 1 6.91815 8.29325 5.25839 -0.544821 -0.115155 -0.403127
160 1 7.32563 1.8796 8.61951 0.258875 0.507673 0.661615
161 1 8.29445 3.67401 2.07978 -1.11011 -0.430225 0.541886
162 1 8.31857 3.63592 9.13941 -0.443624 0.230808 -0.286214
163 1 8.19526 1.49044 8.02088 -0.154615 -0.148171 -1.1359
164 1 3.07706 7.49215 7.91512 1.08149 -1.25696 -0.383201
165 1 1.58438 1.2527 1.17552 -0.433882 1.53777 -0.187685
166 1 7.45903 6.49115 5.49642 -0.571327 0.231441 -0.152639
167 1 8.98494 8.22316 1.71796 0.19436 1.03947 -0.5561
168 1 5.81138 3.39805 1.12004 -0.921773 -0.00938864 0.343698
169 1 3.66286 5.41732 5.19592 -0.131427 -0.784674 -0.648874
170 1 8.73137 7.42424 8.75048 0.0302396 0.340644 -0.654916
171 1 9.07738 4.57268 4.00908 -0.236175 -0.380998 -0.525518
172 1 7.05556 8.58113 0.0513275 -0.533543 -0.988296 1.80939
173 1 7.4702 6.40769 2.69159 0.119567 -0.127859 -0.241951
174 1 2.07726 2.0359 3.26819 -0.693214 -1.40508 1.10598
175 1 3.87703 0.133721 0.214664 0.319047 -0.0168881 0.43727
176 1 0.576885 8.97764 4.81301 1.1246 -1.09568 1.08397
177 1 2.01942 1.1011 4.71632 0.65607 0.120426 -1.62128
178 1 5.25049 8.10995 6.25971 0.930348 0.233952 1.25581
179 1 5.05266 6.08326 9.17359 0.675797 0.646821 -0.309203
180 1 4.3822 8.05252 6.93857 -0.695825 -0.262103 -0.299181
181 1 8.99088 4.25628 1.13576 1.67718 0.695272 -0.0345402
182 1 6.08307 2.22685 2.84801 0.33748 0.64804 0.924807
183 1 4.32754 9.15276 1.89249 -0.0432347 1.23918 0.702263
184 1 4.71511 3.44474 7.82187 0.66109 0.282409 0.295958
185 1 0.801784 3.56702 6.31832 0.700918 -0.491804 -0.58346
186 1 7.16843 5.82339 4.73597 0.585323 -0.84844 0.771599
187 1 5.50919 3.13731 2.55047 0.245527 0.467256 -1.34663
188 1 9.27088 6.0502 5.44079 0.639671 -0.0388955 0.22085
189 1 2.91628 3.16308 6.6314 -0.138061 0.228549 0.612076
190 1 8.98697 5.54886 2.53696 -0.18161 1.08365 0.733358
191 1 6.28179 3.72232 7.78367 -1.4491 0.438335 0.503505
192 1 7.64701 5.33573 7.08592 0.302565 -0.284791 -1.28437
193 1 4.52907 8.92341 6.10384 0.6259 -0.264681 -0.743647
194 1 2.85343 9.29165 5.28014 -0.489352 -0.239384 1.14578
195 1 8.21909 0.674151 9.32856 -0.781233 -1.40769 -1.76299
196 1 5.90338 8.48464 3.66968 1.14893 -0.185789 1.8416
197 1 1.6746 4.65057 3.85307 0.250071 -0.627448 1.19916
198 1 2.9883 5.766 5.97751 0.0533435 0.123315 -0.664402
199 1 1.28241 7.19831 5.64646 0.47842 -1.52789 0.834205
200 1 4.04401 0.51914 3.68919 -0.697251 0.408772 0.353953
201 1 4.71597 7.21863 6.31831 -0.167682 -0.310388 -0.125074
202 1 1.22814 4.07005 5.44924 -0.429053 -0.0458231 0.527844
203 1 1.95286 6.29308 5.56731 -0.177882 0.00462151 0.151597
204 1 5.81741 3.50567 6.06265 -1.0915 -0.0368714 -0.158038
205 1 9.12459 7.89225 7.88092 0.8634 0.394417 -0.635108
206 1 6.55334 2.13875 3.85205 -0.464554 0.302486 0.659594
207 1 6.40531 1.94169 9.17471 0.894826 -0.5841 -1.14346
208 1 7.48553 4.40589 5.58619 -0.728182 0.0215684 0.123722
209 1 6.29108 1.19308 1.69862 -0.17214 -0.316378 0.339164
210 1 0.148549 5.28097 7.39911 0.262166 0.449727 0.284995
211 1 4.12085 1.84872 2.66744 0.199738 -0.319691 -0.767906
212 1 4.23448 8.11743 2.22851 1.23165 0.752243 -0.0787944
213 1 3.37392 0.799108 5.88812 0.685684 -0.664319 -0.593582
214 1 8.99161 4.16679 8.37494 -0.196631 -0.392897 -0.951076
215 1 1.58371 6.92811 7.10093 -0.0723374 0.111322 -0.504214
216 1 3.72019 2.58221 8.6902 -0.45597 -0.785059 -0.922825
217 1 6.51832 3.02608 2.23136 -1.10522 0.410222 0.076124
218 1 3.03879 2.92072 1.14203 0.823919 -0.0639441 -0.962432
219 1 5.49312 6.12691 0.774309 2.01736 -1.09929 0.443378
220 1 7.59024 2.84587 8.96732 -0.669379 -0.127111 -0.0953322
221 1 2.29435 0.76546 5.67398 0.190539 0.421491 1.06927
222 1 4.75093 3.69762 3.08278 0.316219 -0.846905 -0.737566
223 1 8.0721 5.8092 2.0001 0.938038 0.284829 -0.565249
224 1 8.35182 7.59578 1.11101 -0.195856 0.759438 -0.223309
225 1 2.14726 2.57379 5.08283 0.406584 0.725065 1.20962
226 1 5.07125 6.40249 6.8518 -0.375042 0.302655 0.604217
227 1 4.09486 1.50927 1.68524 -1.17532 1.29292 -0.415023
228 1 6.81103 6.27574 8.44642 0.464497 -0.625524 0.271582
229 1 2.4323 8.64987 2.89271 -0.0374368 0.461333 1.38181
230 1 2.21095 7.76718 0.238473 0.638721 0.739296 -0.518821
231 1 1.0914 6.00133 6.8414 -0.259012 -0.283636 0.968889
232 1 5.62502 7.07434 7.5184 -1.94259 -0.176126 -0.617781
233 1 7.68274 7.22673 6.92958 0.306086 -0.231432 0.216586
234 1 1.09147 3.60029 0.458512 0.199207 -0.407749 0.673968
235 1 8.0327 5.51064 4.17919 -1.10521 1.14797 -0.0826026
236 1 2.90529 5.68684 7.62546 -0.619526 1.54367 -0.0936416
237 1 7.54007 2.63287 6.68609 0.0611569 -0.427055 0.813809
238 1 4.99992 8.28029 0.27497 -0.715154 -0.641662 0.617381
239 1 3.00072 6.31283 4.97374 -0.426202 -0.104684 -0.237537
240 1 3.99615 0.115975 5.40553 1.41406 -0.15038 -0.781864
241 1 7.39602 3.63269 3.6384 0.586776 -0.0812868 0.771847
242 1 4.73333 3.52104 5.9775 -1.24892 -0.716787 0.0391994
243 1 6.0806 8.04877 0.00722113 -0.182847 0.373856 0.321652
244 1 6.80806 3.73601 0.856944 0.470398 -0.186578 1.21664
245 1 7.63102 2.81487 2.15514 -0.407251 0.766034 -0.139271
246 1 8.02365 5.81556 8.00376 -0.537913 -0.257679 0.0359607
247 1 8.39241 1.44598 1.37339 -1.30261 -0.615441 0.135605
248 1 9.08452 5.90932 8.10876 0.150908 -0.106347 1.18276
249 1 0.61934 6.30433 8.84623 0.348016 0.0669376 1.21691
250 1 3.12232 9.15086 3.55975 -0.105208 0.476404 -0.309421
251 1 1.40978 8.75829 3.14533 -0.131639 -0.891718 0.405282
252 1 5.37097 4.70023 3.85462 -0.739099 -0.725444 1.34344
253 1 0.0599401 6.33727 7.16754 0.117803 0.352523 1.6358
254 1 6.36111 1.08738 4.37612 0.245546 0.26489 0.158929
255 1 9.15896 0.716145 1.51782 -0.17466 0.451173 0.122294
256 1 8.03677 5.14913 6.09126 -0.492744 -0.0198371 0.55056
257 1 3.43176 8.72276 1.54995 0.243312 0.144156 -0.732221
258 1 5.39362 0.784475 4.12545 -1.02867 0.517244 -1.13645
259 1 4.54993 5.22145 5.77858 0.949785 0.140765 0.0792773
260 1 3.877 9.00864 7.02368 0.72806 0.0624537 0.128287
261 1 7.69531 3.26992 0.547694 0.603091 0.459746 -0.313919
262 1 4.40525 2.86717 2.55135 1.20519 -1.28782 -0.0735537
263 1 6.49488 2.69755 6.4511 0.02097 -1.01677 -0.643686
264 1 8.05838 4.42661 3.86191 -1.20245 -0.572948 0.610615
265 1 7.67108 3.80321 4.65953 0.479758 -0.613694 0.183381
266 1 8.66312 4.66857 3.01484 0.269775 0.521189 0.189124
267 1 2.13939 0.209758 3.2807 0.545024 0.911365 0.516297
268 1 5.56344 3.44835 8.49258 -0.462205 -0.723882 -0.527912
269 1 1.73621 6.15618 8.73252 -1.40999 1.9816 -1.05449
270 1 0.205004 0.959055 6.09066 0.331104 0.640287 1.47818
271 1 2.28243 2.07484 0.964984 -0.0517185 -0.548136 0.490179
272 1 5.40493 2.68279 6.54151 -0.0689709 0.101989 -0.30626
273 1 0.492829 5.64928 3.16952 -0.440723 -0.106334 0.248462
274 1 5.41602 8.48018 8.67593 -0.563788 -0.853013 -0.366789
275 1 3.29309 7.08868 8.93796 -1.279 0.355028 0.252055
276 1 9.15815 6.45642 3.06382 1.04326 -0.0312148 0.219455
277 1 8.24629 4.7285 4.91174 -0.538017 0.915749 1.58119
278 1 2.11851 2.71501 7.16297 0.228744 0.0462334 0.202745
279 1 0.903968 0.499019 1.62259 0.640712 0.442525 1.04278
280 1 6.53339 2.8926 8.69415 -0.956662 -0.0260844 -0.213934
281 1 6.476 8.03074 2.91479 0.916876 0.439666 -0.926457
282 1 4.25225 9.1425 2.94266 1.15091 -0.159551 0.0131202
283 1 8.97586 8.9467 5.06978 -0.919345 -1.39579 0.635124
284 1 3.80937 9.31057 8.56481 -0.476303 -1.31552 -0.628132
285 1 3.67989 5.65966 1.09205 0.412594 -0.670386 0.768817
286 1 0.965038 0.179577 6.39766 -0.217532 -0.694339 2.26116
287 1 4.02079 5.58891 4.19539 0.767753 -1.19635 0.3427
288 1 1.28484 2.23578 1.39537 1.16096 0.636179 -0.669047
289 1 6.11698 3.12745 3.4411 0.728902 -0.309693 0.149889
290 1 1.88114 7.79556 3.3172 -0.145264 -0.63686 -0.890608
291 1 2.78387 0.115462 6.44656 -1.47397 0.530496 0.308597
292 1 2.04942 3.44084 6.04714 0.182914 -0.383417 0.53314
293 1 4.06338 0.768393 2.561 1.05196 -0.389996 0.690237
294 1 1.44351 7.01605 9.2838 0.754044 0.221113 -0.304371
295 1 4.20427 2.69655 5.56544 0.170048 -0.193984 0.305969
296 1 5.94298 4.73686 7.83325 -0.198478 -0.0673478 0.833569
297 1 6.41382 5.33262 8.778 -0.990273 -0.388891 -1.14253
298 1 2.97836 6.44977 3.80365 0.239405 -1.29707 0.0252857
299 1 8.04207 7.95315 2.08692 1.4373 0.918992 -0.847001
300 1 6.70801 3.84517 2.89343 0.136735 -0.18588 1.14031
301 1 0.357369 2.79107 6.98096 1.1604 -0.847072 0.125063
302 1 6.66001 8.8063 4.32539 -0.582621 -1.00762 0.738564
303 1 4.27336 6.22962 6.08621 0.394625 -0.631665 0.0452235
304 1 7.41047 2.61399 4.9515 0.482434 -0.274663 -0.21173
305 1 3.1901 0.741028 8.95658 -0.418234 -0.436777 -0.066552
306 1 0.260189 7.00238 5.33139 -1.06386 0.18707 0.0951278
307 1 6.60909 7.65296 1.41667 0.71538 -0.0511998 0.177216
308 1 5.54032 1.40203 2.47412 0.498041 0.426976 0.889175
309 1 3.53752 5.00113 6.92885 -0.470281 1.03287 1.55362
310 1 2.43604 0.184163 4.29048 0.0536247 0.487017 -1.6558
311 1 4.8061 0.841341 0.45073 0.700997 -0.336017 0.359245
312 1 0.373269 2.41482 1.90777 -0.38137 -0.0484876 0.477068
313 1 7.19632 3.78754 1.91239 -1.16636 -1.10251 -0.592354
314 1 4.92954 4.34792 8.39218 0.392779 -0.522004 0.856106
315 1 4.50309 5.47691 6.82604 -0.646156 0.283933 -0.310304
316 1 2.53512 0.64142 2.19423 1.09219 0.103727 -0.686644
317 1 1.66808 1.58102 0.17828 1.26561 0.471492 0.49601
318 1 8.93555 6.41972 9.02496 0.698104 -0.357478 -1.61879
319 1 1.20471 0.274838 7.4499 -1.34188 0.24236 0.189297
320 1 7.9833 0.205988 3.17139 0.461128 -0.157009 0.632565
321 1 3.77475 3.41011 4.45724 0.789717 -0.360084 -0.0768861
322 1 -0.0088253 8.27038 8.88006 -1.1909 0.299898 -0.018874
323 1 3.62404 8.28464 3.10682 0.808504 -0.178082 -0.605626
324 1 6.94549 4.69216 1.32553 -1.04452 -0.590467 0.0178017
325 1 6.68554 4.76447 2.38289 0.609206 0.193627 0.623748
326 1 9.33446 8.62197 7.13766 -0.239691 1.1817 -0.404064
327 1 3.68232 6.63377 7.78089 -0.302896 -1.12065 1.14775
328 1 4.29654 4.07046 2.14632 -0.85046 -0.291544 -0.244457
329 1 1.03912 3.2507 2.01387 -0.296879 -0.43837 -0.409236
330 1 3.37777 1.92762 0.999856 0.690998 0.329395 -0.851129
331 1 2.85436 3.24031 8.69617 -0.666061 0.329117 -0.272291
332 1 1.20864 2.06891 8.66999 0.0838304 -0.0687006 -0.297103
333 1 5.73393 5.35658 3.0953 0.986148 -0.456378 0.000416855
334 1 3.31424 8.07535 6.92715 -0.0730978 -0.277157 -1.64088
335 1 4.91653 3.25737 1.70098 0.569882 -0.17775 -0.240618
336 1 8.5243 6.85281 5.34889 -1.37336 0.229473 -1.3118
337 1 5.72757 6.33447 8.32639 -0.313877 -0.455379 -0.579526
338 1 7.35516 1.45622 4.61097 -0.301338 -0.66478 0.321815
339 1 7.0937 7.3066 8.236 -0.250179 -0.41605 0.819429
340 1 0.582672 6.42539 2.33318 -0.937607 -0.367071 1.0228
341 1 0.150823 9.1273 1.80778 -0.34484 -0.528102 -0.987743
342 1 4.58598 7.11588 7.47997 -0.066589 0.403524 -0.868681
343 1 1.97507 4.27527 2.90368 -1.85484 -0.0842033 0.477158
344 1 5.27667 0.290003 6.11028 -0.486564 0.489873 1.01168
345 1 8.66749 8.99281 3.98665 -0.23778 -2.44129 -0.088392
346 1 0.450047 4.19449 9.11422 -0.141222 0.508633 -0.226093
347 1 2.73621 5.42547 0.63361 0.331334 0.927561 -0.054643
348 1 4.95468 2.54333 8.34929 0.396627 -0.727841 0.46811
349 1 4.54142 2.45476 9.36459 -1.34137 -1.1708 0.771834
350 1 5.58952 7.44197 3.27321 0.138228 0.142555 0.0763222
351 1 7.78536 4.49264 0.119761 -0.730292 0.0481401 0.0136187
352 1 3.68645 6.06455 8.66775 -0.269357 0.452666 0.372678
353 1 0.383011 2.36571 5.33102 0.724914 1.18579 -0.831413
354 1 1.54733 9.30386 9.15825 -0.384684 1.29239 -0.406477
355 1 7.5492 4.28422 7.47667 0.691699 -0.585964 -0.89396
356 1 0.161331 5.26437 8.98696 -0.615711 -0.932795 -1.28191
357 1 7.04289 8.40338 2.02758 0.0605233 0.105368 -0.282452
358 1 6.37366 7.0819 0.517771 0.686084 1.48295 0.405052
359 1 3.07388 1.70346 8.52246 0.365738 0.0417453 0.403213
360 1 5.88725 4.71776 4.77365 1.15798 -1.09315 -0.928042
361 1 1.00146 1.95816 3.34895 0.993926 -0.256664 -0.560207
362 1 5.37883 3.63664 3.97658 -0.630005 -0.791973 0.0305123
363 1 7.18983 7.5085 9.30851 0.004094 -0.540213 -0.228362
364 1 2.71698 1.08045 1.19412 -0.192439 0.572013 -0.169143
365 1 2.15339 5.18079 8.26602 0.70448 -0.373462 -1.29236
366 1 7.06392 5.61838 6.1493 0.673201 0.814513 0.00822616
367 1 0.857141 4.29831 2.51766 -1.02887 -0.750318 -0.81646
368 1 2.6407 7.941 1.30719 0.821948 -0.566627 -0.164583
369 1 6.68589 2.6105 7.55682 -0.866053 -1.94264 0.346969
370 1 5.94341 2.27875 1.71702 -1.21561 -0.247436 0.197194
371 1 9.29114 8.17148 4.39226 0.172236 -0.488387 0.644683
372 1 1.52729 4.37624 6.47125 -0.0992437 0.426445 0.366058
373 1 5.75141 0.714985 9.39075 -0.436207 -0.599131 -0.194384
374 1 6.2937 6.3217 4.31318 -0.0998222 -1.14731 -1.19468
375 1 6.39662 6.21146 5.41993 0.46378 -0.979549 0.359858
376 1 4.28975 1.72824 8.38486 -0.0292615 0.603984 -0.99962
377 1 1.1288 5.28628 8.59892 0.800643 0.0343426 0.0639146
378 1 5.95551 8.35765 1.87019 -0.353192 -0.221376 1.10613
379 1 7.9285 4.32388 8.45303 0.696747 -0.564628 0.158014
380 1 8.37288 7.19283 2.78994 -0.702739 -0.203141 0.240513
381 1 2.17121 1.16691 8.69901 -0.667139 -1.17662 1.13545
382 1 7.20175 6.08922 3.72026 -0.757856 1.07311 0.561461
383 1 6.50905 4.57211 0.28982 -0.530428 0.262997 0.0491533
384 1 7.27876 0.0126887 2.38861 -0.206492 -0.715269 0.0178495
385 1 4.91271 9.26754 0.807525 -0.315046 0.750545 0.664252
386 1 8.64268 1.03608 2.8429 0.0593743 -0.351501 -0.372532
387 1 0.469593 0.689744 4.10471 -0.303328 0.984532 0.749373
388 1 7.51665 9.11921 1.40587 1.75326 0.243255 0.526536
389 1 7.8345 3.37149 5.58777 -0.659672 0.547717 0.0482733
390 1 3.80979 4.87372 3.40489 0.0382309 0.264833 -1.12327
391 1 4.70876 9.07917 7.98744 0.0142344 0.762623 0.107925
392 1 8.08244 2.39642 5.7867 0.312334 0.275329 -0.141376
393 1 3.76501 7.74204 1.31962 -1.38178 -0.138865 0.0826478
394 1 0.493521 4.50572 6.74573 -1.22304 0.581488 0.166071
395 1 7.24328 8.09028 7.35354 0.681976 0.542029 -0.372379
396 1 2.88368 2.94146 3.37488 -0.185012 0.829599 1.33024
397 1 6.08203 3.5453 0.0685966 0.870442 1.14903 0.449882
398 1 9.00538 5.32296 1.49974 -0.841006 0.618595 0.164948
399 1 1.99037 3.20903 2.79382 -0.137827 -0.779983 0.475818
400 1 7.5557 8.28798 2.99064 0.868366 0.510312 -0.758544
401 1 5.5044 1.56851 4.90057 -0.204962 0.654906 -1.40212
402 1 8.74743 1.84443 3.88622 -1.07299 0.137407 0.79242
403 1 1.16166 5.46465 1.27419 -0.187295 -0.437845 -0.454546
404 1 6.40008 7.558 3.99156 -1.1671 -0.527215 -0.205561
405 1 2.21015 9.2829 7.33918 -0.949133 0.185807 0.810158
406 1 4.91292 2.14748 1.99632 0.581778 -0.377779 -0.73392
407 1 5.34158 1.44794 1.31342 -0.0520768 -0.0720113 -0.261526
408 1 3.37372 3.82977 1.57596 -0.4719 -0.119752 -2.34833
409 1 1.87517 2.87576 3.89825 -0.308781 -0.92583 -0.241493
410 1 0.262882 3.7326 7.4733 0.310433 0.98751 0.907355
411 1 5.79718 0.518353 5.19053 0.431985 -0.00836335 0.775599
412 1 7.20788 0.430943 4.23653 -0.172494 -0.506048 -0.136079
413 1 3.96642 7.75982 0.168222 0.402954 -1.33123 -0.379168
414 1 8.76283 3.74363 4.7445 0.0504472 -0.648347 -1.28062
415 1 2.04441 3.0624 0.703296 -0.859751 0.496395 0.841811
416 1 7.30523 1.43444 1.22856 0.494386 0.904819 -0.908801
417 1 0.919379 6.11161 5.77679 -0.248175 -0.452395 -0.474577
418 1 5.40047 9.23903 1.75304 1.10379 0.166752 -1.21907
419 1 8.18335 3.05203 4.12823 -0.73063 0.0681506 0.694183
420 1 1.38566 1.99618 5.50132 -0.315307 -0.469587 0.545002
421 1 5.95835 8.12778 4.83943 1.22916 1.23812 0.178088
422 1 3.96211 3.038 3.491 -0.034476 0.792677 1.3702
423 1 9.35701 3.42487 2.02265 -0.215212 -0.11547 0.108224
424 1 8.04475 9.35653 4.86466 -1.17781 -0.965317 0.539407
425 1 2.62897 2.03623 4.23841 -0.179 -0.68036 -0.338163
426 1 9.03758 1.10717 0.52293 -0.741595 -0.242524 0.640776
427 1 6.34463 5.24428 6.93912 -0.104448 0.0690859 0.471468
428 1 3.43049 8.8041 6.09287 0.232764 0.708771 -0.024287
429 1 3.10803 7.27284 0.619288 0.0918436 -0.332037 -0.31861
430 1 2.54592 7.40959 4.08755 -1.15277 -0.146563 1.36012
431 1 8.57842 0.754202 7.35379 0.372682 -0.0160399 0.105105
432 1 5.75466 1.07081 7.71163 -0.817222 0.0951397 -1.30268
433 1 3.56346 0.63801 6.96724 0.140251 0.259133 -1.7684
434 1 6.54562 6.05747 0.932988 -0.561156 -0.226814 0.182872
435 1 1.41581 2.35073 2.45657 -0.413712 -0.480335 0.372877
436 1 9.07856 2.18544 1.03414 0.0058046 -0.297599 0.711893
437 1 8.51896 5.19848 8.75058 0.562924 -1.06928 0.322797
438 1 7.38526 7.1064 0.881486 -0.16711 -1.11599 0.880363
439 1 4.88977 8.25659 3.09374 -0.81495 0.160017 1.17653
440 1 1.5033 5.87572 2.18859 1.14494 -0.256074 -1.15627
441 1 7.1993 1.70651 3.05125 -0.0128066 -0.608126 0.780512
442 1 6.05152 4.22024 6.88773 -0.508576 0.540377 -0.0364147
443 1 3.28062 5.01928 8.45821 0.887283 -0.30502 -0.356538
444 1 7.88574 6.26021 6.45354 0.731743 -0.549281 0.330445
445 1 4.31165 0.817116 8.92013 -0.912648 -1.41589 -0.510369
446 1 6.87134 4.46514 8.32766 -0.588155 -0.837351 0.0936533
447 1 2.79183 6.38475 1.11252 -0.702745 -0.0673404 0.0902098
448 1 6.61349 8.83686 6.9185 0.345752 -0.491305 -0.360263
449 1 0.970385 0.658418 0.541547 0.0206397 -1.36573 -0.643068
450 1 1.49902 4.3486 9.08256 -0.366278 0.860857 -0.322197
451 1 5.85265 8.88391 7.72736 0.449235 0.249919 -0.484298
452 1 6.85854 6.6242 6.4703 0.0969475 0.109234 0.153179
453 1 4.86849 6.53353 1.77106 -0.103761 0.020087 0.386761
454 1 4.63367 7.15389 3.73786 0.162878 0.62121 1.01477
455 1 6.70135 5.11222 5.32756 -0.110977 -0.0958613 -0.912227
456 1 7.19136 4.92897 3.42934 -0.568775 -0.869899 1.56193
457 1 6.14255 7.25455 2.32757 0.456841 0.123026 0.757841
458 1 0.649556 6.98203 3.26056 -0.0317286 0.436631 -0.343755
459 1 0.8819 7.42792 0.680796 -0.189412 0.0814073 0.58546
460 1 8.17327 1.70115 0.315302 0.423166 0.153489 0.747792
461 1 0.648121 4.63859 3.55989 -0.881562 -0.74554 0.559458
462 1 3.03268 8.05749 2.27395 -0.691507 -0.483776 -0.554873
463 1 1.96219 0.286401 1.30175 -0.207184 -0.0720739 0.343934
464 1 8.86548 4.66936 6.66452 -0.191814 -0.798235 0.200284
465 1 8.09023 7.52312 7.89618 0.59851 -0.124143 0.699821
466 1 7.46419 7.26263 3.50097 0.0595247 0.314178 -0.875281
467 1 6.34377 1.37319 0.66863 0.88055 -0.940679 1.2556
468 1 8.31551 7.99143 3.67062 0.797284 0.819397 0.624499
469 1 0.552585 2.87207 8.0065 -0.153199 0.270825 -0.162233
470 1 0.566752 1.95908 6.31522 -0.554399 0.0183444 -0.525881
471 1 2.21162 8.49969 8.8564 -0.655699 0.604994 0.323735
472 1 5.27567 6.57905 5.68039 0.777886 -0.595497 0.432628
473 1 9.01433 2.27091 7.74025 0.249852 -0.52531 1.15863
474 1 6.71183 0.23132 9.16414 0.283094 0.62104 -0.975706
475 1 2.97541 1.40085 7.47894 -0.726126 -0.624039 -1.56917
476 1 9.27488 1.50448 7.02077 0.418209 0.169685 -1.20221
477 1 9.22425 9.12738 8.16999 -0.680372 0.641757 0.253494
478 1 0.997077 0.320545 3.15903 0.0425665 -1.54988 0.407414
479 1 0.228383 6.62734 0.421831 0.192029 0.879258 -0.357867
480 1 5.93952 6.05998 6.378 1.78177 -0.677655 -0.0199251
481 1 3.7889 6.68567 1.47479 0.317735 0.228815 0.120709
482 1 5.10667 8.04331 4.17163 -0.448939 0.119809 0.435574
483 1 4.99869 5.45872 1.42822 0.524236 -0.0990902 -0.315795
484 1 7.86205 4.14087 1.15555 0.567504 1.2755 -0.295915
485 1 8.50286 4.92718 7.68428 0.140891 0.803327 -1.22856
486 1 1.48169 2.03196 4.38907 -0.48849 0.96757 -0.0496705
487 1 0.659932 5.59706 4.87806 -0.354681 0.902686 -1.29536
488 1 6.72117 3.15575 4.33672 0.301994 -0.506991 1.0935
489 1 0.41277 8.74651 2.74675 0.649159 1.94096 0.362057
490 1 9.03646 7.19541 3.78915 0.775539 1.21944 -0.460443
491 1 6.51632 6.79055 3.23994 0.193523 -1.15347 1.28857
492 1 1.98964 7.10897 1.04828 0.37626 -0.103423 0.646411
493 1 8.64808 6.517 0.989469 -0.314464 0.360013 0.260035
494 1 5.74008 3.64205 4.97442 1.21909 -0.0525606 0.252467
495 1 2.12906 1.67138 1.99102 -0.457368 0.761145 -0.42606
496 1 2.69345 2.43306 2.48753 0.600814 -0.0464485 0.12845
497 1 7.33642 6.4443 7.52915 0.698218 0.514585 -1.5713
498 1 6.36033 1.06731 8.61157 0.823848 0.254158 -0.932618
499 1 4.21529 2.05292 3.67674 0.0428278 1.22364 0.489879
500 1 4.44182 4.29147 0.0761182 0.311157 -0.250958 -0.285618
501 1 7.07867 4.5643 6.5621 0.114093 -0.234424 0.107337
502 1 9.39238 3.85932 3.00425 1.19782 0.400757 0.103407
503 1 2.37734 7.64646 7.11695 -0.0440237 0.106455 -0.789214
504 1 3.30017 8.20776 4.10754 0.011828 0.480318 0.171664
505 1 7.10132 3.77949 9.16402 0.061121 -0.194627 -0.952405
506 1 2.25932 4.46198 5.60785 1.36899 0.718978 -0.433925
507 1 6.35109 9.38075 5.96439 0.234682 0.85208 0.846881
508 1 4.83783 5.66192 3.51556 -0.607294 0.03731 -1.22825
509 1 3.80136 3.28547 0.236127 0.210273 0.778154 -0.534078
510 1 5.60884 4.89663 2.17785 0.603588 0.26294 0.530351
511 1 4.59208 0.357069 6.97355 -0.574235 0.781641 -0.553831
512 1 8.93621 8.53971 0.651377 0.176191 1.7484 0.292549
513 1 0.442373 7.33501 9.03201 0.191346 1.68544 1.85189
514 1 1.40142 5.15573 2.945 0.286079 1.01932 0.137249