#bin. KALJ data file T=0.5

1000 atoms
2 atom types

0 9.4 xlo xhi
0 9.4 ylo yhi
0 9.4 zlo zhi

Masses

1 1.0
2 1.0

Atoms

1 1 2.21329 2.28846 9.00247
2 1 8.42924 2.31431 8.71177
3 1 3.93166 5.13112 2.20016
4 1 6.12003 6.2808 9.30263
5 1 2.27685 8.56706 3.91661
6 1 6.54338 0.339217 7.80177
7 1 1.30946 7.86799 8.71014
8 1 4.18981 3.13155 6.81715
9 1 2.82386 3.05958 4.45149
10 1 8.42806 8.55667 8.50819
11 1 0.819031 3.16267 8.95029
12 1 7.5062 1.42231 2.09784
13 1 8.2801 2.01014 4.87992
14 1 3.62609 5.22975 0.0432087
15 1 8.66637 3.20636 1.23029
16 1 1.94035 0.655274 6.6228
17 1 8.53098 3.96428 7.42091
18 1 8.14247 7.04352 0.164755
19 1 3.67449 0.896303 8.03687
20 1 4.1346 2.51973 7.68372
21 1 0.501245 3.03227 2.96552
22 1 3.35773 4.69353 5.9191
23 1 5.93609 2.10546 8.25328
24 1 3.20857 6.76826 5.92254
25 1 6.04125 1.8838 7.09212
26 1 0.177764 0.597409 5.12605
27 1 7.36796 8.32685 8.47613
28 1 3.63791 3.66027 6.06899
29 1 0.52241 4.48938 8.04136
30 1 9.20829 2.22086 3.02816
31 1 0.262784 3.81339 3.96277
32 1 3.99947 1.42819 5.13622
33 1 1.85639 3.31197 9.13845
34 1 7.19051 7.39902 2.43102
35 1 7.96094 8.59176 5.79759
36 1 8.94315 6.51545 2.02155
37 1 6.11058 3.89724 1.96245
38 1 1.46031 0.164722 2.38321
39 1 2.19524 7.15421 6.16995
40 1 2.04497 0.602131 0.358723
41 1 5.87054 0.295885 6.95066
42 1 0.640443 7.63328 7.23661
43 1 3.10136 1.46569 2.12301
44 1 5.72575 2.66366 4.38313
45 1 4.34098 1.0177 6.15023
46 1 1.01094 7.84371 2.75698
47 1 3.54643 6.03857 6.82321
48 1 7.62159 4.32829 2.51867
49 1 4.11087 4.253 5.27845
50 1 8.94423 9.20924 3.04142
51 1 5.39759 5.66985 4.34449
52 1 5.17096 2.47246 0.908827
53 1 6.46045 2.90685 5.35286
54 1 8.45527 6.63703 7.49481
55 1 1.32626 2.345 6.48653
56 1 2.63757 4.20286 6.57979
57 1 0.108255 0.35542 7.02485
58 1 9.34234 7.68075 0.397159
59 1 0.0786743 9.33424 5.95082
60 1 9.10685 5.73445 0.345123
61 1 5.97954 5.80486 1.92359
62 1 1.02942 1.38102 2.20571
63 1 4.04897 4.46554 7.82747
64 1 4.71471 6.19494 8.08089
65 1 3.05784 2.51909 0.168288
66 1 5.37883 5.33281 8.4722
67 1 4.69708 7.03844 2.67846
68 1 2.67557 6.4986 8.22691
69 1 4.49387 3.43556 8.8405
70 1 0.78747 2.93136 4.04311
71 1 7.43603 5.26385 8.8832
72 1 5.85943 6.80076 1.49855
73 1 2.23955 5.51835 1.50192
74 1 5.12348 7.1517 8.47912
75 1 1.12481 8.57768 3.96212
76 1 5.38612 1.80319 3.77763
77 1 3.53197 3.9118 7.086
78 1 0.378576 6.21831 1.28541
79 1 5.6213 6.4235 2.67204
80 1 8.89349 5.70114 3.61863
81 1 3.20037 1.84172 3.21867
82 1 6.45057 9.29202 1.80633
83 1 2.5795 8.12011 4.85688
84 1 8.10977 5.94732 0.0194496
85 1 2.45679 5.20776 2.51139
86 1 5.44598 4.37903 0.456851
87 1 7.93868 5.58365 3.11153
88 1 1.89146 8.08986 5.62531
89 1 1.27025 4.59701 0.670037
90 1 5.56448 9.0368 4.54046
91 1 8.61972 5.69105 6.96267
92 1 1.59952 8.93324 8.05583
93 1 2.03905 8.79903 0.52116
94 1 6.18776 7.2146 8.77821
95 1 5.2918 6.47088 3.65594
96 1 3.77433 8.42446 7.85693
97 1 4.25682 3.76944 1.03142
98 1 8.5909 9.23097 1.42513
99 1 1.18489 1.23871 6.21692
100 1 4.43559 2.12611 6.5385
101 1 6.92253 6.67327 1.70362
102 1 6.27202 7.97819 8.02858
103 1 2.45324 1.13776 3.70561
104 1 1.04623 9.05962 0.943121
105 1 6.99986 0.446255 6.76248
106 1 5.34709 2.72966 5.39335
107 1 9.39159 7.24885 1.37855
108 1 8.33012 8.17562 7.07005
109 1 3.42902 3.8799 3.52455
110 1 1.44519 7.93617 6.56367
111 1 1.18494 0.844643 9.0461
112 1 3.52929 3.37671 2.56967
113 1 0.174714 6.882 7.97778
114 1 4.04895 6.20735 2.356
115 1 4.88757 0.863681 5.18679
116 1 1.01069 8.2412 0.22457
117 1 5.8157 7.11708 6.46739
118 1 6.42727 8.90297 8.61899
119 1 7.44809 8.2455 1.01332
120 1 5.69978 8.90574 2.72464
121 1 5.08619 8.84278 7.00419
122 1 0.462125 1.49309 1.25253
123 1 0.936548 1.26756 4.67269
124 1 1.82545 6.08279 0.591444
125 1 8.8991 3.18189 5.58717
126 1 2.1823 5.13764 6.97444
127 1 3.52757 7.3008 3.56471
128 1 5.06803 1.9314 7.58129
129 1 4.40368 6.24715 0.728368
130 1 1.89262 6.08399 7.60134
131 1 8.65681 0.618044 5.68294
132 1 6.70505 5.72123 2.88738
133 1 7.96619 6.90438 1.80529
134 1 5.24399 1.37806 8.64148
135 1 5.64271 2.85211 7.56455
136 1 3.26436 8.1077 8.73511
137 1 2.8412 4.56321 7.5964
138 1 3.69684 3.45149 8.04773
139 1 0.527747 7.31476 4.31722
140 1 1.4805 4.85033 4.89196
141 1 1.19724 2.528 0.404567
142 1 3.46508 2.22427 6.92802
143 1 2.19273 6.12128 6.55786
144 1 8.3032 7.56825 6.18312
145 1 3.7792 7.08786 6.76661
146 1 8.79479 8.19244 2.83482
147 1 3.15493 0.0337619 7.66025
148 1 8.26947 3.3422 8.20843
149 1 1.38238 6.54434 1.49642
150 1 3.55475 8.49478 5.09294
151 1 1.25826 0.53912 5.39015
152 1 5.40189 1.67834 0.243684
153 1 0.298938 5.03003 0.862803
154 1 5.92596 8.06569 7.03012
155 1 4.33857 8.39923 8.80841
156 1 4.10323 2.71603 1.0538
157 1 7.94802 0.978791 6.57744
158 1 1.04683 8.74425 7.1343
159 1 7.02871 8.37336 5.31094
160 1 7.31159 1.94088 8.6242
161 1 8.30092 3.49907 2.22926
162 1 8.34076 3.67594 9.20964
163 1 8.1581 1.52372 8.0633
164 1 3.09934 7.48597 7.8608
165 1 1.53705 1.24361 1.16951
166 1 7.41685 6.50614 5.55888
167 1 8.99299 8.2166 1.76846
168 1 5.83146 3.31415 1.10129
169 1 3.67654 5.38086 5.15094
170 1 8.72962 7.60087 8.89592
171 1 9.13771 4.71188 3.81804
172 1 6.98131 8.59009 0.0847096
173 1 7.46801 6.44609 2.70971
174 1 2.04284 2.15402 3.30164
175 1 3.8464 0.116047 0.212031
176 1 0.713848 9.10089 4.86303
177 1 2.01558 1.11687 4.67149
178 1 5.24324 8.1097 6.24418
179 1 5.06312 6.08639 9.1312
180 1 4.39125 8.03738 6.92026
181 1 8.98868 4.27679 1.18132
182 1 5.76273 2.22583 2.83458
183 1 4.33509 9.19259 1.82809
184 1 4.71489 3.40389 7.81381
185 1 0.493079 3.19985 6.26105
186 1 7.12297 5.87097 4.75142
187 1 5.47814 3.19978 2.51213
188 1 9.29968 6.07793 5.45033
189 1 2.92927 3.10556 6.61434
190 1 8.98158 5.57382 2.56255
191 1 6.25482 3.69172 7.77196
192 1 7.625 5.33846 7.11846
193 1 4.52976 8.9923 6.09586
194 1 2.88701 9.35618 5.2864
195 1 8.20513 0.672971 9.36213
196 1 5.82414 8.45853 3.65944
197 1 1.74827 4.65272 3.82235
198 1 3.02153 5.72821 5.94461
199 1 1.24885 7.23804 5.65289
200 1 4.05527 0.466407 3.62586
201 1 4.72659 7.19604 6.31976
202 1 1.2135 3.94402 5.51257
203 1 1.96708 6.27517 5.55101
204 1 5.80459 3.44649 6.05858
205 1 9.16777 7.86152 7.95833
206 1 6.45394 2.18415 3.69658
207 1 6.4024 1.89089 9.18364
208 1 7.39339 4.49217 5.61602
209 1 6.46317 0.980715 1.72054
210 1 0.15489 5.24185 7.37942
211 1 4.0662 1.76601 2.59496
212 1 4.19275 8.11739 2.22518
213 1 3.37297 0.8507 5.82212
214 1 8.96225 4.17712 8.38354
215 1 1.56324 6.95756 7.03102
216 1 3.73216 2.59219 8.6943
217 1 6.52661 2.95388 2.41503
218 1 3.00807 2.91627 1.14655
219 1 5.44293 6.23489 0.738892
220 1 7.61752 2.91731 8.97121
221 1 2.30227 0.84842 5.64981
222 1 4.71284 3.67739 3.06936
223 1 8.05519 5.85823 2.03987
224 1 8.36456 7.6044 1.09697
225 1 2.08587 2.58916 5.04066
226 1 5.13401 6.37447 6.84814
227 1 4.04988 1.33383 1.65276
228 1 6.88253 6.3254 8.51909
229 1 2.56059 8.5452 2.88603
230 1 2.06009 7.76966 0.137428
231 1 1.13405 5.97255 6.80851
232 1 5.66059 7.13003 7.56762
233 1 7.70678 7.27181 7.00547
234 1 1.02641 3.59302 0.486457
235 1 8.02378 5.68503 4.25023
236 1 2.91231 5.66006 7.61252
237 1 7.54411 2.69807 6.70289
238 1 4.99913 8.22145 0.275682
239 1 2.99917 6.28884 4.97323
240 1 4.01708 0.176193 5.36626
241 1 7.30928 3.86759 3.87089
242 1 4.71834 3.4823 5.94866
243 1 6.05852 8.00434 0.0900755
244 1 6.7884 3.77308 0.894144
245 1 7.54986 2.59206 2.21623
246 1 7.98208 5.81489 8.06146
247 1 8.44894 1.4993 1.54908
248 1 9.08434 5.88862 8.09484
249 1 0.574519 6.25245 8.78527
250 1 3.17196 9.17548 3.50845
251 1 1.5476 8.69267 2.98379
252 1 5.33703 4.69987 3.82631
253 1 0.0604141 6.29531 7.13297
254 1 6.44986 1.05857 4.28097
255 1 9.17931 0.687511 1.58242
256 1 8.04965 5.15521 6.14224
257 1 3.44398 8.74122 1.46449
258 1 5.48674 0.695316 4.13717
259 1 4.5483 5.20185 5.76494
260 1 3.89607 9.01202 6.99331
261 1 7.67795 3.27743 0.621478
262 1 4.43192 2.77871 2.54873
263 1 6.49337 2.65626 6.44694
264 1 8.11439 4.62061 3.95561
265 1 7.8689 3.96375 4.75968
266 1 8.52155 4.71233 2.94864
267 1 2.17485 0.122783 3.24878
268 1 5.56649 3.42611 8.50627
269 1 1.71374 6.1028 8.67457
270 1 0.180391 0.984936 6.13658
271 1 2.23957 2.06771 0.969027
272 1 5.39534 2.58029 6.51146
273 1 0.473948 5.63745 3.18166
274 1 5.44298 8.43384 8.68549
275 1 3.29543 7.05502 8.89008
276 1 9.19485 6.51317 3.04114
277 1 8.12593 4.94704 5.01232
278 1 2.09849 2.70804 7.14017
279 1 0.858544 0.516066 1.59777
280 1 6.5527 2.88552 8.76928
281 1 6.51987 7.96524 3.02248
282 1 4.30522 9.04875 2.88814
283 1 9.07031 8.95393 5.01542
284 1 3.79561 9.31509 8.53444
285 1 3.62454 5.64031 1.10355
286 1 1.01138 0.165462 6.40557
287 1 3.9727 5.58725 4.134
288 1 1.22593 2.23739 1.45231
289 1 6.10067 3.15191 3.39414
290 1 1.88313 7.73984 3.34266
291 1 2.83238 0.145637 6.39955
292 1 2.06607 3.38418 6.00856
293 1 4.05929 0.664043 2.52273
294 1 1.32898 6.88134 9.30251
295 1 4.26417 2.59742 5.54678
296 1 5.89145 4.67449 7.83505
297 1 6.38696 5.38423 8.77059
298 1 2.92699 6.42115 3.74961
299 1 8.04795 7.95645 2.08292
300 1 6.75985 3.88296 2.94317
301 1 0.39382 2.45811 7.04847
302 1 6.58701 8.76679 4.43475
303 1 4.30853 6.21386 6.12367
304 1 7.44007 2.68388 4.98211
305 1 3.22304 0.758407 8.97287
306 1 0.238004 7.06084 5.33662
307 1 6.60169 7.63218 1.42739
308 1 5.57773 1.30613 2.33507
309 1 3.52363 4.97811 6.91023
310 1 2.49491 0.181507 4.26562
311 1 4.69688 0.804102 0.485107
312 1 0.332147 2.46498 2.02771
313 1 7.15018 3.62804 1.90428
314 1 4.9448 4.32947 8.37794
315 1 4.51472 5.42989 6.80723
316 1 2.53012 0.48789 2.14867
317 1 1.64275 1.60317 0.185418
318 1 8.92859 6.53297 8.93849
319 1 1.17392 0.389236 7.42601
320 1 7.97298 0.23404 3.23307
321 1 3.79274 3.38375 4.46252
322 1 0.0836539 8.38253 8.96753
323 1 3.58165 8.2711 3.0948
324 1 7.14263 4.65188 1.44349
325 1 6.63376 4.78818 2.38649
326 1 9.36976 8.6232 7.21788
327 1 3.70619 6.61618 7.74811
328 1 4.29968 4.04937 2.08279
329 1 1.03527 3.27593 2.01262
330 1 3.33149 1.9107 1.04849
331 1 2.86651 3.22901 8.69604
332 1 1.1691 2.12969 8.73053
333 1 5.72865 5.3415 3.02531
334 1 3.32875 8.06637 6.91476
335 1 4.88625 3.17529 1.65708
336 1 8.5315 6.92345 5.37387
337 1 5.78084 6.30037 8.296
338 1 7.47059 1.3374 4.57328
339 1 7.1222 7.33762 8.21888
340 1 0.643886 6.46109 2.33594
341 1 0.20742 9.06498 1.7759
342 1 4.60947 7.08742 7.44342
343 1 2.04548 4.29463 2.87689
344 1 5.27815 0.438721 6.07614
345 1 8.51065 9.06868 4.04504
346 1 0.391714 4.1542 9.07869
347 1 2.71623 5.40655 0.561551
348 1 4.94027 2.54241 8.42434
349 1 4.52942 2.46064 0.0108847
350 1 5.5939 7.40967 3.30227
351 1 7.73706 4.39581 0.348075
352 1 3.68304 6.03783 8.6269
353 1 0.687389 2.27034 4.87563
354 1 1.65503 9.30236 9.06756
355 1 7.52546 4.31261 7.5173
356 1 0.152721 5.2146 8.94368
357 1 7.06804 8.39037 2.02731
358 1 6.34787 7.07207 0.553561
359 1 3.06662 1.71431 8.54629
360 1 5.87967 4.74452 4.74429
361 1 0.819932 2.0726 3.49602
362 1 5.3717 3.62811 3.97017
363 1 7.12728 7.49189 9.27845
364 1 2.62316 1.04809 1.20969
365 1 2.12155 5.12366 8.19092
366 1 7.06507 5.61512 6.19276
367 1 0.810665 4.25897 2.5537
368 1 2.61234 7.99166 1.24365
369 1 6.70207 2.61207 7.57827
370 1 5.82336 2.45671 1.74472
371 1 9.16224 8.11325 4.37696
372 1 1.53462 4.34996 6.45776
373 1 5.61252 0.659949 9.39151
374 1 6.21083 6.38854 4.24612
375 1 6.36149 6.26038 5.39056
376 1 4.26855 1.71705 8.39677
377 1 1.1036 5.22838 8.529
378 1 6.00266 8.30168 1.93339
379 1 7.87604 4.31706 8.531
380 1 8.35363 7.19555 2.778
381 1 2.17083 1.08635 8.76104
382 1 7.17808 6.15834 3.73955
383 1 6.55196 4.60624 0.258887
384 1 7.21756 0.412078 2.38019
385 1 4.8768 9.22756 0.79292
386 1 8.78347 0.806954 2.75023
387 1 0.436009 0.578491 4.11345
388 1 7.52515 9.21412 1.53685
389 1 7.8139 3.41144 5.62832
390 1 3.85122 4.84471 3.33996
391 1 4.69577 9.05793 7.98952
392 1 8.06818 2.43288 5.81356
393 1 3.7368 7.73555 1.28152
394 1 0.49703 4.42446 6.70267
395 1 7.21982 8.1514 7.42499
396 1 2.91196 2.9075 3.40538
397 1 6.06536 3.58104 0.0813818
398 1 9.00118 5.53671 1.50285
399 1 1.99801 3.20195 2.81258
400 1 7.57134 8.22309 2.97901
401 1 5.59528 1.57163 4.794
402 1 8.55916 2.13029 3.86293
403 1 1.18768 5.50622 1.25802
404 1 6.36124 7.60995 4.06048
405 1 2.15454 9.22057 7.19772
406 1 4.84105 2.03731 1.90596
407 1 5.51983 1.47235 1.28399
408 1 3.36716 3.80924 1.57595
409 1 1.84497 2.97237 4.00426
410 1 0.239456 3.63803 7.39863
411 1 5.87055 0.434729 5.16349
412 1 7.24608 0.338046 4.28005
413 1 3.9262 7.7006 0.120641
414 1 8.87484 3.68772 4.67051
415 1 2.03435 3.06474 0.726254
416 1 7.18536 1.58447 1.1327
417 1 0.943867 6.04788 5.76697
418 1 5.39318 9.11349 1.71148
419 1 8.07632 3.10583 4.15536
420 1 1.53179 1.78056 5.4125
421 1 5.95948 8.1495 5.02937
422 1 3.97755 2.99455 3.49002
423 1 9.36353 3.49374 2.03491
424 1 8.09446 9.40474 4.96344
425 1 2.66998 2.05193 4.19132
426 1 9.04564 1.08294 0.574135
427 1 6.33352 5.22722 7.05507
428 1 3.43763 8.78579 6.08104
429 1 3.0569 7.25602 0.57946
430 1 2.54521 7.3588 4.06888
431 1 8.5932 0.790028 7.39606
432 1 5.72565 1.04681 7.70991
433 1 3.58103 0.663023 6.94156
434 1 6.49168 6.03869 0.935523
435 1 1.32324 2.39488 2.5188
436 1 9.07246 2.17808 1.02767
437 1 8.51184 5.17335 8.7504
438 1 7.37805 7.17942 0.864592
439 1 4.89114 8.17143 3.06768
440 1 1.58258 5.86121 2.23925
441 1 7.25386 1.81966 3.03663
442 1 6.02524 4.1971 6.84225
443 1 3.30979 5.00173 8.42236
444 1 7.83279 6.28989 6.54436
445 1 4.30838 0.804509 8.91609
446 1 6.83167 4.48795 8.33155
447 1 2.75691 6.34553 1.06703
448 1 6.59241 8.8763 6.93255
449 1 0.809915 0.681489 0.582864
450 1 1.43042 4.27039 9.04413
451 1 5.83543 8.89805 7.7194
452 1 6.81966 6.62648 6.47885
453 1 4.84603 6.50991 1.7083
454 1 4.58157 7.28562 3.70205
455 1 6.62412 5.19414 5.35546
456 1 7.19846 4.84975 3.36334
457 1 6.13216 7.29308 2.35149
458 1 0.683685 7.00914 3.29556
459 1 0.93393 7.30972 0.774645
460 1 8.18893 1.70316 0.348291
461 1 0.733891 4.67449 3.60196
462 1 3.10962 8.03488 2.16643
463 1 1.85312 0.223073 1.3427
464 1 8.90037 4.72034 6.62885
465 1 8.11877 7.62737 7.95046
466 1 7.41852 7.28027 3.52173
467 1 6.31609 1.23739 0.624281
468 1 8.26825 8.03888 3.74927
469 1 0.469263 2.83282 8.02383
470 1 0.444672 2.02945 5.98573
471 1 2.2667 8.48312 8.76968
472 1 5.28523 6.5547 5.68543
473 1 8.97178 2.24448 7.77678
474 1 6.65321 0.278052 9.29484
475 1 2.95632 1.41668 7.48968
476 1 9.19979 1.55605 6.9857
477 1 9.24566 9.21497 8.25827
478 1 1.00631 0.104183 3.36578
479 1 0.238876 6.65357 0.331517
480 1 5.97883 5.95085 6.3331
481 1 3.74218 6.68906 1.44061
482 1 5.22788 7.88687 4.29979
483 1 5.13689 5.3793 1.32427
484 1 7.95784 4.00858 1.3431
485 1 8.48582 4.94581 7.69257
486 1 1.56598 2.01198 4.27799
487 1 0.628557 5.55189 4.87978
488 1 6.72106 3.06782 4.28324
489 1 0.467078 8.77526 2.77127
490 1 8.99707 7.23134 3.77355
491 1 6.48747 6.80832 3.24221
492 1 2.03508 7.11491 0.948458
493 1 8.6972 6.52559 0.958908
494 1 5.78958 3.66108 4.9515
495 1 2.05541 1.73428 1.9964
496 1 2.70465 2.44454 2.50006
497 1 7.30828 6.46334 7.54621
498 1 6.27971 1.0107 8.63694
499 1 4.27213 2.00873 3.58064
500 1 4.45206 4.30512 0.0747092
501 1 7.0242 4.57628 6.59649
502 1 9.23114 3.92674 3.00842
503 1 2.3592 7.66428 7.10622
504 1 3.32717 8.22297 4.11117
505 1 7.08196 3.79229 9.18566
506 1 2.25128 4.42478 5.60355
507 1 6.34503 0.0286382 6.03468
508 1 4.8069 5.57032 3.47032
509 1 3.78031 3.29416 0.211452
510 1 5.6011 4.80896 2.13564
511 1 4.60825 0.364695 6.9558
512 1 8.79325 8.50393 0.7092
513 1 0.403721 7.33998 8.90091
514 1 1.39665 5.13197 2.93657
515 1 6.67374 7.33597 5.69887
516 1 2.45213 6.29971 2.72634
517 1 7.96007 2.36889 1.18764
518 1 1.25205 3.36235 7.019
519 1 3.10604 3.89615 5.17411
520 1 2.09696 0.821767 7.68683
521 1 8.46598 4.20543 5.72478
522 1 4.37134 5.19601 8.70795
523 1 2.71727 7.31063 2.88493
524 1 9.24821 3.57346 0.391598
525 1 8.98962 2.53546 6.3895
526 1 4.71775 0.763588 7.92894
527 1 8.51877 0.976107 4.69076
528 1 5.44908 5.01198 6.38686
529 1 6.86646 3.63291 6.02785
530 1 5.49616 8.90342 5.63404
531 1 8.17916 8.34133 4.79056
532 1 3.10207 5.93922 1.99223
533 1 4.19735 7.72229 4.60114
534 1 7.30869 7.98131 4.33328
535 1 8.35637 0.433586 8.35419
536 1 1.51713 6.94738 3.96405
537 1 0.0983094 1.06795 7.98579
538 1 2.20997 7.14461 5.06689
539 1 1.97298 9.24204 5.82609
540 1 0.118016 0.640163 9.06841
541 1 6.23101 0.0792709 3.65707
542 1 0.826863 5.97708 7.81527
543 1 2.85713 9.22909 9.28158
544 1 8.81334 6.42825 4.49163
545 1 7.16503 6.41738 0.13713
546 1 1.71775 5.32104 6.0038
547 1 8.2577 5.90285 5.3763
548 1 0.63673 8.46658 8.06462
549 1 2.69399 3.49836 7.59541
550 1 8.94518 8.47648 6.2513
551 1 7.01793 5.64368 1.84037
552 1 2.34745 4.47529 0.899792
553 1 1.57719 7.82259 4.53435
554 1 0.637545 4.15065 1.45005
555 1 6.81109 8.99844 2.88981
556 1 1.80716 8.84813 4.85901
557 1 2.39861 6.69014 9.33504
558 1 9.00588 3.08718 3.63896
559 1 2.78732 6.70934 7.17313
560 1 3.48054 0.444457 1.63494
561 1 4.59264 1.24359 4.24192
562 1 0.020391 -0.00108223 0.778261
563 1 4.42684 4.07725 4.01445
564 1 7.08549 1.9804 5.78301
565 1 8.47189 2.96058 7.18196
566 1 5.08312 0.348048 2.5261
567 1 9.01805 5.40574 4.61382
568 1 2.75911 3.65148 0.287006
569 1 9.11419 2.63145 4.67264
570 1 6.1631 5.02103 1.19687
571 1 2.06507 3.62208 4.92247
572 1 1.56794 8.07968 1.14921
573 1 6.71679 1.51768 7.83496
574 1 6.63049 2.01629 4.73553
575 1 7.82698 1.28519 5.5636
576 1 2.47975 4.51732 4.53192
577 1 5.00623 4.54154 7.26152
578 1 5.17593 7.66174 2.03193
579 1 8.86291 0.654791 3.75519
580 1 2.06902 6.17058 4.45091
581 1 7.50656 0.896992 7.54219
582 1 4.99914 3.3822 0.399452
583 1 0.176599 2.60334 0.190243
584 1 0.31902 4.53708 4.74513
585 1 2.42913 0.117299 8.38116
586 1 4.76671 4.69477 2.83909
587 1 4.75331 8.31727 1.34715
588 1 7.93904 6.74395 8.5594
589 1 3.42813 4.38648 0.645224
590 1 6.23152 6.25335 7.34738
591 1 6.93768 5.4794 7.87288
592 1 7.24697 2.30328 0.338401
593 1 7.50112 2.22569 4.01257
594 1 4.62497 0.133905 4.47295
595 1 6.58995 1.91901 2.20154
596 1 9.06188 7.37997 6.94594
597 1 7.1724 2.92778 3.28869
598 1 9.28342 1.60338 5.18569
599 1 4.86894 0.674275 1.53981
600 1 4.30513 6.79167 9.1794
601 1 9.31698 1.52613 2.20942
602 1 3.57449 4.59197 4.39427
603 1 1.21707 3.92198 4.40431
604 1 5.59961 2.64606 9.25226
605 1 3.04194 8.3205 0.35784
606 1 1.87466 1.62413 7.01645
607 1 1.94759 2.9262 8.15988
608 1 8.47842 9.11997 7.5488
609 1 4.64529 7.28771 0.952987
610 1 5.17378 1.2215 6.80967
611 1 3.08997 2.8874 5.52368
612 1 6.94154 2.74311 1.34031
613 1 5.62522 7.75784 1.03741
614 1 1.31897 1.12357 3.67107
615 1 5.79638 9.02687 0.177051
616 1 7.21241 3.47709 8.13729
617 1 3.5896 2.46451 1.9428
618 1 6.65187 7.28128 7.26835
619 1 3.56946 4.09787 8.93928
620 1 1.18964 3.66657 8.09179
621 1 6.17516 0.459677 2.6408
622 1 7.15876 4.8202 4.47729
623 1 2.72738 7.06562 1.84523
624 1 4.64194 8.60801 5.04219
625 1 7.47011 9.2394 7.83603
626 1 8.97563 3.65613 6.53375
627 1 9.25911 4.58691 2.15186
628 1 0.658259 8.03808 5.07063
629 1 7.98776 8.15904 0.0550174
630 1 0.513834 1.60524 0.142857
631 1 1.3946 6.21958 3.21613
632 1 5.1642 4.18678 1.43577
633 1 2.38202 5.38557 5.16972
634 1 8.67905 1.60276 6.06916
635 1 3.67577 7.18759 2.42292
636 1 5.05396 8.02932 7.77104
637 1 4.69075 4.96758 4.72713
638 1 8.82524 9.20695 9.29068
639 1 6.30759 4.17809 3.94046
640 1 5.87146 4.43655 8.86727
641 1 7.73395 2.54723 7.82996
642 1 4.81025 1.15608 3.15668
643 1 7.25177 1.22458 0.117798
644 1 4.67034 2.39831 4.51656
645 1 4.74873 3.46787 4.88643
646 1 5.36291 5.54702 7.43282
647 1 8.30422 5.16728 0.802974
648 1 7.9804 1.24457 3.6453
649 1 1.21081 2.85727 5.57395
650 1 6.88147 0.357854 0.914063
651 1 6.15994 4.38182 5.77822
652 1 7.08769 6.93389 4.59516
653 1 3.98124 5.53694 7.71557
654 1 5.73219 5.34197 0.20751
655 1 1.79052 5.22983 9.32572
656 1 2.94148 5.46788 4.28333
657 1 3.26873 7.33157 4.91293
658 1 0.807418 0.149943 8.37488
659 1 9.08862 5.03335 5.58234
660 1 0.344256 0.420549 2.4929
661 1 1.65353 3.82739 1.34216
662 1 2.65831 8.46783 7.75096
663 1 7.92502 9.12021 0.562519
664 1 0.108834 2.09302 8.66935
665 1 2.64911 4.60986 9.21438
666 1 2.44732 3.85343 2.03897
667 1 0.202752 5.55566 6.37321
668 1 4.17039 6.97311 5.40037
669 1 7.05434 1.60894 6.79429
670 1 6.21631 1.09843 6.29441
671 1 8.1304 7.2467 4.4315
672 1 6.80847 3.90884 4.94872
673 1 6.29351 8.33574 6.03879
674 1 1.86902 4.17604 7.4318
675 1 1.24447 5.56893 4.04724
676 1 2.80536 4.74906 3.50853
677 1 5.80366 0.378682 1.0109
678 1 0.397719 3.03816 1.14496
679 1 4.17053 1.45455 7.29666
680 1 0.587816 6.85893 6.41914
681 1 3.08361 0.862624 4.80211
682 1 4.2421 4.79979 1.22869
683 1 6.4041 8.61671 0.980163
684 1 6.1503 1.28923 3.25609
685 1 7.8699 3.83492 6.59211
686 1 1.28957 6.92838 8.10093
687 1 5.54629 5.52045 5.4106
688 1 5.33058 7.14273 0.126715
689 1 8.20492 1.91272 7.04518
690 1 0.603333 5.34353 2.14267
691 1 2.70118 5.70892 8.94829
692 1 8.19479 2.72694 3.04373
693 1 1.65577 6.96227 2.51248
694 1 1.18291 8.62531 1.95837
695 1 8.55871 0.027453 6.55432
696 1 7.2749 8.00817 6.34177
697 1 0.642994 9.20009 9.35889
698 1 6.9548 3.53064 7.05159
699 1 2.42873 8.49649 6.46338
700 1 8.30171 1.72747 2.72028
701 1 0.042659 7.42221 2.46441
702 1 1.44456 0.280577 4.32494
703 1 4.43589 1.74591 0.787456
704 1 6.36622 5.33835 3.90625
705 1 4.8188 9.28557 9.12588
706 1 1.55316 7.91143 7.70045
707 1 2.37568 2.30737 6.14125
708 1 3.136 0.76543 3.01385
709 1 4.36663 4.38159 6.42242
710 1 3.89542 6.62689 4.40916
711 1 8.81711 1.35026 8.86602
712 1 0.864148 5.70557 0.241727
713 1 2.38425 3.79296 3.73754
714 1 7.65056 0.223775 5.92844
715 1 5.03669 7.62448 5.33937
716 1 0.798303 1.39444 7.15858
717 1 4.33521 8.60416 3.93217
718 1 8.97012 7.89801 5.38216
719 1 3.58134 9.34427 4.43769
720 1 5.93516 7.12346 4.96675
721 1 3.07286 4.85186 1.59788
722 1 3.00183 7.82667 5.83479
723 1 3.75442 1.69337 9.35662
724 1 2.72889 1.47579 0.209045
725 1 7.63309 8.92754 6.77937
726 1 8.90139 4.55812 0.14717
727 1 5.55868 0.228159 8.41855
728 1 2.98191 2.50751 7.83341
729 1 3.56248 1.40359 4.08195
730 1 4.11697 7.96611 5.86054
731 1 1.22151 5.0277 7.42547
732 1 4.11592 7.47603 8.33605
733 1 3.32758 9.16485 2.44614
734 1 0.468932 8.20736 1.18634
735 1 4.07107 6.36975 3.39338
736 1 0.954269 7.46397 1.81328
737 1 2.20667 5.61735 3.51505
738 1 0.422749 7.88491 6.16681
739 1 1.2116 1.26229 8.1002
740 1 1.60614 4.72746 1.9203
741 1 7.50038 8.86689 3.79433
742 1 3.58556 2.32689 4.73606
743 1 7.69005 6.16449 1.06528
744 1 5.71859 4.1438 2.99344
745 1 3.20805 4.39933 2.5686
746 1 6.73302 1.05498 5.33508
747 1 6.9557 0.00971397 5.20049
748 1 4.04706 8.59579 0.614971
749 1 8.19212 6.5274 3.59237
750 1 7.05341 0.766058 3.34245
751 1 0.473507 3.38044 4.95755
752 1 9.15561 3.14702 8.75777
753 1 7.34847 0.804919 8.56661
754 1 8.15144 3.75021 3.25432
755 1 3.42695 6.27804 0.238946
756 1 2.22213 4.04386 8.40621
757 1 0.777457 4.91536 5.73155
758 1 0.134038 4.06137 5.71183
759 1 1.25064 3.7048 3.36849
760 1 2.06717 2.8687 1.7602
761 1 3.63611 0.971227 0.727079
762 1 8.25665 4.85502 1.88104
763 1 8.5206 2.72307 0.274322
764 1 4.56368 5.99572 5.04691
765 1 2.24733 7.42838 8.50218
766 1 0.00670036 1.5634 4.13627
767 1 2.77818 1.34719 6.48703
768 1 6.21255 2.37294 0.694453
769 1 5.15308 4.36026 5.47964
770 1 1.99162 7.90345 2.18687
771 1 1.90186 1.02752 2.79145
772 1 7.65422 7.54341 5.33817
773 1 4.91858 5.61898 2.34059
774 1 2.82199 9.38505 0.940978
775 1 4.67211 5.29316 0.366672
776 1 8.84687 6.53834 6.30679
777 1 4.95624 6.85522 4.60726
778 1 0.269347 8.0052 3.4716
779 1 5.05282 2.74287 3.45455
780 1 4.99119 1.77043 5.71213
781 1 3.28387 5.68051 3.05014
782 1 2.13847 1.86149 8.02095
783 1 3.49159 1.95882 5.90565
784 1 0.148805 9.00795 3.89985
785 1 7.2423 5.34727 0.581179
786 1 0.313736 1.21022 3.17831
787 1 1.0344 8.70002 5.82277
788 1 7.91285 0.760588 0.952221
789 1 5.11364 9.29589 3.53673
790 1 8.14895 0.587265 1.98611
791 1 8.13598 8.97545 2.37952
792 1 1.2508 2.26663 7.62868
793 1 5.18545 3.54453 6.91722
794 1 7.65091 9.23955 8.93704
795 1 0.379593 6.26218 4.05223
796 1 1.11413 6.5283 4.84167
797 1 8.66516 2.49648 2.05835
798 1 2.70337 1.75767 5.24855
799 1 6.05946 1.96256 5.65185
800 1 2.37462 8.85499 1.85729
801 2 1.28113 3.05847 1.17003
802 2 0.689183 1.31684 5.49357
803 2 4.59868 3.19445 4.06895
804 2 6.07466 3.30367 6.92705
805 2 7.47861 5.20294 2.44906
806 2 9.15365 7.31684 6.03855
807 2 3.98622 4.11353 2.88741
808 2 4.04916 0.192601 7.65337
809 2 3.05253 3.88973 4.30555
810 2 6.33798 4.72726 3.23082
811 2 2.05439 0.280454 5.02638
812 2 7.93511 1.40403 8.93335
813 2 3.87842 7.5968 7.48651
814 2 1.85822 3.91421 0.416189
815 2 5.16133 4.01687 2.31723
816 2 4.74126 4.82965 1.94992
817 2 4.70763 1.20359 2.25801
818 2 7.3128 0.738256 1.57911
819 2 3.89316 6.95921 0.596397
820 2 5.20922 3.90808 9.13712
821 2 3.19976 0.601489 3.91119
822 2 3.03784 8.89408 8.42336
823 2 5.54999 0.624784 3.24506
824 2 4.61647 1.55701 9.2774
825 2 5.61738 1.76592 6.34391
826 2 4.95173 8.58348 2.26234
827 2 2.81698 0.892688 8.18751
828 2 0.158787 0.339686 3.33084
829 2 9.04526 3.15782 7.84477
830 2 0.284399 2.74882 5.51757
831 2 7.92668 8.48457 7.79619
832 2 4.01322 3.23651 1.81141
833 2 1.45696 4.50894 8.1582
834 2 6.94114 5.88042 7.00926
835 2 5.18093 7.58937 6.97245
836 2 1.04497 0.808199 2.86732
837 2 6.32157 5.13148 6.18968
838 2 3.47 2.36487 3.86914
839 2 5.09712 5.79887 6.15784
840 2 4.40143 3.91504 7.18022
841 2 9.06318 0.241659 4.48684
842 2 2.76078 2.20302 1.66538
843 2 5.68601 8.02206 2.69661
844 2 4.73454 5.09094 7.89786
845 2 3.63061 8.74663 9.22752
846 2 0.447404 8.74455 6.48865
847 2 0.87049 4.87992 9.33822
848 2 5.5126 8.63168 0.947822
849 2 6.20654 5.6289 4.73205
850 2 0.552221 1.93675 2.68116
851 2 2.15881 6.82602 3.37852
852 2 0.323819 5.35663 4.04128
853 2 5.14679 4.22153 4.58561
854 2 2.92253 0.621542 0.37221
855 2 4.16975 0.312275 1.06362
856 2 7.16116 1.03101 6.11097
857 2 7.44332 8.86142 4.67822
858 2 0.787077 6.7393 7.33969
859 2 8.43439 3.85422 0.64011
860 2 4.15428 5.55388 2.92253
861 2 5.42027 3.90908 7.71861
862 2 2.6291 8.60143 5.60924
863 2 3.86367 0.187156 6.25837
864 2 8.763 5.6837 6.08453
865 2 3.59884 1.85772 7.8493
866 2 7.21078 2.82989 5.8774
867 2 8.19882 8.46498 1.38685
868 2 7.48731 1.7779 7.53655
869 2 5.82832 7.62283 5.7385
870 2 4.48689 4.91451 3.90255
871 2 2.05969 5.28959 4.34491
872 2 4.88263 0.015523 5.33518
873 2 6.38694 0.208192 4.5139
874 2 0.169996 8.53168 5.60096
875 2 4.68726 7.61802 9.08105
876 2 1.73465 0.881993 1.93813
877 2 8.08709 0.45111 4.11863
878 2 2.53197 3.65323 1.18062
879 2 9.26352 4.42834 7.41169
880 2 1.59115 3.88489 2.25889
881 2 6.40699 6.85461 7.99091
882 2 0.326503 3.67006 8.3199
883 2 8.61394 9.14997 5.7239
884 2 8.80411 4.5503 4.62984
885 2 4.85363 2.72 7.20354
886 2 6.43385 1.01455 7.15755
887 2 1.99802 1.51939 6.13491
888 2 8.21187 8.77068 3.25019
889 2 8.09099 4.62552 6.92058
890 2 7.7707 1.79213 6.3038
891 2 6.47828 6.43972 2.4186
892 2 2.92821 3.11977 1.98927
893 2 6.71801 8.76242 7.80941
894 2 8.86636 1.45677 3.37285
895 2 3.73477 6.1976 5.45763
896 2 6.68656 7.66958 4.88835
897 2 3.46171 3.03605 7.31211
898 2 2.51142 1.61855 2.76043
899 2 0.991634 4.14988 7.36372
900 2 5.58515 6.30662 4.90639
901 2 3.88456 1.24074 3.26232
902 2 5.10406 4.84004 9.14121
903 2 2.80263 7.95006 3.47324
904 2 9.02686 1.9208 0.113703
905 2 3.93533 3.37384 5.31429
906 2 5.63722 1.1553 5.60961
907 2 1.49982 5.72519 5.04271
908 2 1.61815 8.84926 6.50578
909 2 8.87518 2.29553 5.51496
910 2 6.39621 3.75495 8.63847
911 2 4.63293 6.16281 4.14365
912 2 2.13628 3.54414 6.87737
913 2 6.01887 4.16859 1.09883
914 2 2.63024 2.05988 6.98884
915 2 2.7156 0.632014 7.11243
916 2 2.96445 7.33473 6.56706
917 2 0.218797 8.58879 0.429996
918 2 7.7679 3.43246 7.42712
919 2 5.70177 0.5349 1.88551
920 2 1.47273 6.58883 6.23544
921 2 8.38844 6.285 2.73906
922 2 0.701203 7.59444 8.1075
923 2 6.65644 4.44133 7.42803
924 2 3.07548 4.02972 8.23368
925 2 2.87333 8.85631 4.54307
926 2 5.27436 4.15544 6.31912
927 2 8.29754 2.92552 5.00535
928 2 3.66962 2.76407 6.21501
929 2 7.53882 3.42176 2.67028
930 2 6.27614 8.91113 5.28037
931 2 6.07853 5.54645 7.9285
932 2 1.07049 8.71198 8.77952
933 2 4.88141 2.02971 2.88469
934 2 2.2204 6.34482 1.83527
935 2 7.47621 7.15836 6.14905
936 2 4.16737 7.6441 3.00578
937 2 4.35507 7.28897 1.83119
938 2 6.34565 1.8012 1.35635
939 2 6.77271 7.86519 0.596525
940 2 6.51101 7.63222 6.50383
941 2 1.02599 5.12856 6.55766
942 2 2.55498 5.01898 6.17567
943 2 6.76639 1.15085 2.58781
944 2 6.61829 8.04015 8.82518
945 2 2.12909 7.01825 7.7162
946 2 3.67348 1.43908 6.56688
947 2 6.79694 3.07821 0.291281
948 2 8.9156 0.0979527 2.20737
949 2 2.75334 3.69264 2.91249
950 2 3.04026 4.78864 5.11669
951 2 8.82834 0.859916 6.54994
952 2 5.65312 7.10413 4.13344
953 2 1.61812 0.46913 8.33876
954 2 8.70758 7.38225 1.94395
955 2 5.79349 8.89021 6.50055
956 2 4.20413 5.90375 9.32313
957 2 8.60632 0.288813 0.652317
958 2 7.44826 0.373988 0.243693
959 2 4.35151 5.73135 1.62726
960 2 7.49779 5.41363 5.43976
961 2 8.74166 7.04718 8.22132
962 2 3.58637 2.52799 2.83401
963 2 8.30344 3.11188 6.31402
964 2 3.82263 5.44166 6.19651
965 2 3.95666 0.726463 4.58528
966 2 7.65285 5.00341 8.03443
967 2 7.69553 5.34038 1.39331
968 2 7.8034 0.980901 2.79816
969 2 7.88165 6.44577 4.76173
970 2 7.83762 7.60451 8.77898
971 2 0.434402 1.91551 7.82262
972 2 1.02743 6.44071 0.689525
973 2 1.38914 1.6734 2.98255
974 2 7.52035 0.641217 5.08981
975 2 0.489757 9.2287 7.62273
976 2 7.91298 0.268167 7.11887
977 2 3.00685 8.89409 6.98817
978 2 9.21037 5.00881 8.17481
979 2 7.8015 3.15348 1.54021
980 2 1.08154 7.70754 3.71784
981 2 1.33645 3.07864 4.73483
982 2 8.76778 3.92563 3.83256
983 2 0.554938 1.34459 8.694
984 2 7.03579 1.50437 3.81985
985 2 3.30017 6.57714 2.94122
986 2 4.80607 6.23827 2.93488
987 2 5.26673 0.183121 7.56034
988 2 0.0603963 4.85 2.98427
989 2 0.427306 8.16164 2.09968
990 2 1.87298 5.21415 0.785069
991 2 6.71254 8.5354 3.62767
992 2 4.3317 6.23556 7.21552
993 2 1.32559 2.79386 3.30871
994 2 0.080082 2.395 3.87566
995 2 0.408726 4.22214 0.575635
996 2 6.05472 6.05457 3.42904
997 2 8.98212 3.06393 2.73017
998 2 7.44098 7.59525 1.61368