#bin. KALJ data file T=0.5

1000 atoms
2 atom types

0 9.4 xlo xhi
0 9.4 ylo yhi
0 9.4 zlo zhi

Masses

1 1.0
2 1.0

Atoms

1 1 5.86414 8.9791 3.87319
2 1 1.65436 4.57047 1.80544
3 1 4.34614 1.67433 4.05977
4 1 0.448056 4.51391 0.456925
5 1 1.09307 8.61187 5.56508
6 1 6.14146 7.88662 6.94027
7 1 5.05002 7.10716 4.84198
8 1 3.03415 1.273 6.38909
9 1 1.90924 5.85981 4.41675
10 1 1.5028 4.09913 0.761359
11 1 5.35292 9.25126 5.5147
12 1 7.30575 1.70529 1.1979
13 1 0.208155 9.24435 5.31734
14 1 4.12782 3.95723 6.7381
15 1 0.230108 9.10244 7.86065
16 1 1.31877 0.681999 7.41944
17 1 7.48615 3.31846 2.00313
18 1 5.02685 6.02591 8.15207
19 1 4.36165 5.53566 7.47304
20 1 8.61492 4.16534 8.42005
21 1 0.179094 5.0466 8.24974
22 1 0.298875 2.92913 6.89029
23 1 5.17632 0.763857 0.237633
24 1 1.5511 7.78301 6.31533
25 1 8.80686 0.977852 3.20518
26 1 6.01461 3.9599 5.07378
27 1 9.39312 9.1824 1.14087
28 1 4.78112 1.58121 2.25578
29 1 1.656 2.48786 4.09301
30 1 8.31212 2.42294 4.67866
31 1 3.29428 2.19425 1.294
32 1 1.58502 2.60459 8.34371
33 1 5.44498 9.40561 1.18881
34 1 5.96387 0.00353635 2.40606
35 1 3.66944 2.50801 3.83675
36 1 4.26248 2.13422 3.08729
37 1 5.32672 5.09618 7.56529
38 1 1.25547 1.98341 1.22678
39 1 5.74559 8.01325 0.125889
40 1 0.707706 8.04843 0.0424912
41 1 6.33622 1.5848 8.40519
42 1 0.793231 0.844019 3.98914
43 1 2.11766 8.56472 6.96713
44 1 2.23196 0.615068 6.0024
45 1 0.237619 0.245044 3.33028
46 1 8.76028 6.58713 1.76492
47 1 1.48699 1.7521 2.20723
48 1 4.50764 7.92538 2.88509
49 1 3.46418 3.12939 4.66005
50 1 0.295939 3.29535 5.10084
51 1 9.22817 5.14171 2.87402
52 1 7.60327 9.24837 3.77102
53 1 1.85122 8.80572 4.09193
54 1 0.254008 6.07155 8.42969
55 1 1.15983 3.52609 4.47651
56 1 1.55693 5.85091 3.4431
57 1 2.3319 5.9015 6.23208
58 1 6.39268 6.63004 3.35061
59 1 5.35325 8.55997 7.11116
60 1 1.30236 7.75489 3.60948
61 1 2.76307 9.3685 1.64
62 1 6.29445 0.432501 0.713004
63 1 7.92211 2.68208 6.21377
64 1 1.12059 6.61037 8.46233
65 1 7.82867 1.064 3.5539
66 1 3.71943 1.80811 0.194979
67 1 6.72756 7.04071 8.34739
68 1 4.08952 7.67295 8.67713
69 1 6.75887 6.27308 1.12389
70 1 6.77261 3.05103 3.36932
71 1 8.8115 3.01363 0.961556
72 1 5.80719 2.13714 2.25292
73 1 3.57596 8.10015 5.36342
74 1 4.20067 0.740093 1.83799
75 1 7.15296 2.84245 1.17461
76 1 0.336405 8.21142 1.00304
77 1 0.607551 0.772251 4.98363
78 1 2.1226 7.21259 1.71122
79 1 6.99041 0.627665 8.44837
80 1 1.30134 0.465187 8.45938
81 1 2.86009 9.10354 7.53244
82 1 7.39343 2.29828 2.18122
83 1 4.15679 5.59018 5.46458
84 1 1.00631 4.61551 6.38478
85 1 0.446056 2.73664 8.56015
86 1 3.86591 2.94309 9.33715
87 1 3.62568 4.03199 2.50996
88 1 8.13685 1.08064 8.1956
89 1 6.09385 4.73073 5.72584
90 1 5.43315 7.39485 0.968872
91 1 7.65517 6.99244 4.33472
92 1 6.64627 8.32319 8.77736
93 1 3.30317 9.17581 5.29754
94 1 1.47242 5.01687 4.93845
95 1 8.51393 7.55729 4.59471
96 1 6.77033 6.12996 7.66159
97 1 2.57863 5.81957 2.66722
98 1 5.1671 8.93515 2.47995
99 1 3.76104 9.14558 7.04633
100 1 9.1758 7.50371 7.07941
101 1 4.97226 5.78024 6.53227
102 1 2.99969 0.613595 4.31586
103 1 3.37647 8.11915 7.76882
104 1 3.05893 6.74775 2.3886
105 1 1.13838 9.40402 4.58392
106 1 6.53978 1.39086 6.65123
107 1 7.02266 7.0558 1.7337
108 1 8.98117 8.82037 4.57809
109 1 7.50405 9.16709 1.90132
110 1 0.759371 4.85623 7.45425
111 1 9.22523 2.4911 7.89281
112 1 5.9525 1.47167 0.682976
113 1 3.94765 4.30075 1.49967
114 1 1.53747 3.88311 2.60553
115 1 5.91856 8.30893 5.99295
116 1 7.07756 1.35855 7.73765
117 1 8.26931 7.53913 7.70014
118 1 8.78393 1.59277 7.52106
119 1 3.19828 2.68504 7.44949
120 1 1.14321 7.84522 8.43922
121 1 4.03897 0.465538 5.63491
122 1 1.38293 7.13999 -0.0147434
123 1 3.5774 4.85716 4.86576
124 1 2.8024 1.91517 5.47099
125 1 5.17071 5.24726 5.66045
126 1 5.68559 4.68578 3.87289
127 1 4.85985 8.77206 3.44592
128 1 6.31274 5.50838 8.31495
129 1 1.56876 5.59889 8.64566
130 1 3.66888 1.80695 6.97463
131 1 9.24854 2.01761 3.33517
132 1 8.8948 1.04609 5.08514
133 1 7.01921 0.655994 4.11282
134 1 1.07314 6.80049 2.03843
135 1 7.13358 5.74198 3.34755
136 1 8.85428 9.31562 6.42386
137 1 1.47403 4.94367 0.145849
138 1 4.91716 3.17029 0.12941
139 1 9.22306 1.42743 6.58706
140 1 5.26741 3.48216 3.58471
141 1 3.63015 0.189369 1.07765
142 1 4.36896 6.66022 9.0933
143 1 4.53013 4.41154 7.69492
144 1 2.16787 1.18275 4.93954
145 1 7.94394 4.82316 8.89031
146 1 5.12972 1.1515 1.28883
147 1 5.37973 2.36127 7.14342
148 1 2.181 5.75173 7.8644
149 1 2.74612 8.2706 3.37949
150 1 8.01861 6.36054 3.63079
151 1 9.31148 8.55768 6.95859
152 1 7.55759 7.63051 8.5125
153 1 2.46457 5.38269 0.722701
154 1 5.10777 6.0103 9.32794
155 1 0.78094 5.58494 4.09805
156 1 5.98854 7.83919 4.15618
157 1 7.59092 5.91861 6.94791
158 1 2.99566 5.83677 8.83192
159 1 1.57029 6.64458 6.61694
160 1 3.61727 4.26525 8.26764
161 1 0.834411 1.98876 6.61804
162 1 8.82805 3.05894 8.85213
163 1 0.77391 2.91846 3.66186
164 1 2.71504 0.163015 0.511832
165 1 3.98839 6.19385 1.72159
166 1 5.97763 6.90056 1.69334
167 1 2.63798 6.21037 3.61675
168 1 7.58869 5.57709 1.26135
169 1 2.90059 6.1814 0.359447
170 1 0.156526 3.7254 4.04565
171 1 6.05609 5.56607 9.41871
172 1 2.28028 3.17286 6.98538
173 1 6.28415 4.32539 1.29862
174 1 3.20714 4.45807 6.2675
175 1 7.24188 4.67591 8.09266
176 1 1.88113 2.28803 6.21898
177 1 4.46973 8.069 1.83153
178 1 8.30084 4.98861 1.67656
179 1 4.91329 0.938904 5.8878
180 1 0.715042 8.91167 2.66829
181 1 8.94306 6.03607 3.28761
182 1 1.86401 2.29687 5.07206
183 1 2.92306 2.48688 0.344866
184 1 5.11142 8.05239 8.05586
185 1 2.37759 7.40939 6.86711
186 1 1.75599 3.39783 3.54121
187 1 2.25575 0.136733 5.02388
188 1 1.27038 7.50348 1.09742
189 1 4.67466 5.90422 2.51385
190 1 5.64988 8.12362 3.13538
191 1 4.87542 4.60833 6.61717
192 1 8.88002 0.408742 8.97676
193 1 3.02618 8.59075 0.891831
194 1 8.02496 8.67465 2.77798
195 1 8.19906 0.540856 4.40581
196 1 0.472224 1.25683 2.98568
197 1 5.99092 5.82355 5.77485
198 1 0.219447 1.49928 0.120913
199 1 7.3851 0.0296001 4.85689
200 1 2.73344 1.68967 7.37144
201 1 5.09403 1.43913 3.3733
202 1 8.64505 6.56079 4.53143
203 1 6.05798 8.4491 7.807
204 1 5.60621 1.80716 9.17655
205 1 4.47161 0.448415 7.62537
206 1 0.323554 8.16767 6.10298
207 1 5.15878 0.526976 2.1028
208 1 7.87191 3.84948 3.51644
209 1 7.27937 9.13007 6.89314
210 1 0.99221 1.92273 9.02594
211 1 8.14814 9.09953 0.202661
212 1 6.33887 7.28055 2.61073
213 1 0.805218 3.90636 3.31393
214 1 8.94863 2.03364 1.80906
215 1 3.59656 6.15695 4.74879
216 1 6.54383 6.97613 7.11749
217 1 3.26133 0.301753 6.28189
218 1 2.71033 2.19517 3.41372
219 1 8.13829 5.97592 9.21463
220 1 1.30274 1.54701 8.1344
221 1 7.70828 8.10777 6.98737
222 1 5.78246 5.21003 1.02599
223 1 0.15234 0.516487 6.99898
224 1 7.39928 6.04595 5.73548
225 1 8.5588 5.39962 7.02745
226 1 2.52192 8.54292 4.94808
227 1 6.57245 6.75125 4.35242
228 1 8.27397 8.99597 7.23557
229 1 4.00584 2.31898 2.11309
230 1 3.11678 8.01922 8.79627
231 1 5.80962 5.97039 7.34319
232 1 5.77572 4.39807 2.89952
233 1 7.74626 8.20554 4.2247
234 1 6.58192 8.93175 0.258916
235 1 8.40177 6.22764 6.19983
236 1 9.05982 4.9794 5.63034
237 1 7.62835 1.28643 2.39706
238 1 7.5683 4.14753 6.41747
239 1 4.27317 8.25644 7.03967
240 1 2.89055 2.2883 6.43711
241 1 3.60442 5.83738 2.83596
242 1 6.12173 4.46546 0.297648
243 1 1.58883 5.42765 1.16919
244 1 5.69629 6.542 6.47186
245 1 6.06304 2.08084 3.39944
246 1 7.46759 4.88712 3.95397
247 1 4.41089 3.25681 3.02403
248 1 4.85365 8.41847 6.17232
249 1 5.05074 3.23573 5.33463
250 1 5.61581 6.74917 3.96519
251 1 5.36135 0.148183 7.17077
252 1 9.17044 3.90828 5.77466
253 1 2.44559 5.30178 1.72001
254 1 6.67189 1.55946 1.99889
255 1 6.69708 6.09901 2.16485
256 1 8.23497 3.91374 1.5223
257 1 6.11353 0.320126 4.82975
258 1 1.74227 8.47686 3.00723
259 1 3.1253 6.75329 6.27367
260 1 4.1662 3.32909 1.86683
261 1 9.03159 6.77668 7.93902
262 1 2.1696 1.07094 0.558593
263 1 7.7197 5.08941 4.9328
264 1 8.2516 7.27671 6.64716
265 1 5.65625 2.99474 4.56463
266 1 8.53991 5.6995 2.34253
267 1 7.24595 3.81356 0.674552
268 1 4.13143 1.25748 8.75987
269 1 1.19119 6.51613 1.08763
270 1 1.77494 8.27455 1.76909
271 1 4.82283 6.89874 1.90909
272 1 0.732322 4.83012 1.38701
273 1 6.71211 3.91856 2.3292
274 1 4.63264 7.59827 0.236679
275 1 5.47638 7.83969 2.08359
276 1 0.384442 8.05996 3.21558
277 1 3.96308 9.35912 4.4449
278 1 0.782299 2.63599 5.83848
279 1 9.21996 5.55768 1.42743
280 1 3.87251 1.13229 2.88786
281 1 6.53957 7.2712 0.823863
282 1 0.282366 3.56767 0.892697
283 1 8.57097 8.3228 3.59611
284 1 7.99261 7.31897 1.94398
285 1 6.78395 8.52591 3.76123
286 1 1.88048 2.26023 7.35088
287 1 3.79801 8.53593 0.0785348
288 1 0.955522 7.15901 4.48534
289 1 5.92012 1.15557 2.62296
290 1 2.89312 7.6787 0.367565
291 1 6.45513 2.35185 7.59101
292 1 2.6752 6.18929 5.21047
293 1 8.33684 2.06924 2.67879
294 1 8.9672 4.65636 7.51835
295 1 8.49255 4.44882 4.16091
296 1 7.06502 8.09634 1.48803
297 1 6.07556 7.27269 5.04701
298 1 3.15947 5.45559 5.71291
299 1 4.38274 8.82991 5.24065
300 1 9.12938 3.84045 0.104926
301 1 3.12591 8.37956 6.75699
302 1 7.76384 0.988926 5.15969
303 1 1.11028 0.709951 2.28076
304 1 8.36949 5.70122 5.33554
305 1 1.74214 0.193025 0.0606545
306 1 1.84002 8.99114 0.924438
307 1 5.93056 1.04193 3.82009
308 1 0.851532 0.861486 6.47894
309 1 0.057227 6.1567 5.82025
310 1 6.66496 5.00814 2.64785
311 1 8.64193 7.35883 8.6963
312 1 6.41446 6.52901 0.0174299
313 1 7.31195 4.44743 1.52405
314 1 6.12227 3.75106 4.058
315 1 4.13445 4.64808 5.85715
316 1 8.53434 2.62662 7.16464
317 1 8.2708 1.31625 1.25886
318 1 8.68606 3.19674 3.60866
319 1 4.15799 1.5911 1.32135
320 1 4.13855 6.47094 6.078
321 1 0.193164 2.80971 1.78015
322 1 1.75318 7.8739 5.27818
323 1 3.37739 5.50506 3.87486
324 1 1.64016 5.22128 7.04437
325 1 6.06845 8.19666 1.13859
326 1 5.47211 2.2358 5.51412
327 1 5.3861 2.88709 8.71198
328 1 8.47109 6.82572 2.73436
329 1 9.2519 8.85073 0.167189
330 1 3.39386 5.35826 1.18379
331 1 2.67297 1.03727 3.19675
332 1 3.49259 0.309429 3.42257
333 1 0.824787 4.65371 2.44837
334 1 1.02495 8.52536 6.90611
335 1 2.91662 4.3097 1.51428
336 1 7.60393 7.7772 5.85515
337 1 8.52815 0.0561384 5.3512
338 1 6.12827 2.47838 6.51728
339 1 1.80646 3.85216 6.18925
340 1 4.37082 0.159103 2.75832
341 1 6.65296 5.1645 7.27443
342 1 7.03708 3.19759 9.32722
343 1 0.139735 7.2202 2.61542
344 1 0.500243 1.29612 7.45955
345 1 0.0735339 4.97624 6.56307
346 1 0.426024 0.961119 8.58724
347 1 8.03284 6.59248 8.27572
348 1 6.5349 0.568276 7.19988
349 1 3.2917 3.41538 0.825459
350 1 2.17219 4.09296 5.27377
351 1 4.96452 7.63568 3.8196
352 1 4.21486 7.4947 7.6939
353 1 8.59573 4.40311 6.56707
354 1 0.707331 7.31504 6.70595
355 1 8.70925 7.85221 2.64342
356 1 5.02762 2.81197 6.28242
357 1 8.59054 3.7167 2.60566
358 1 5.01015 6.33204 5.58484
359 1 3.28071 7.03154 8.97191
360 1 5.01818 1.04964 8.31502
361 1 7.31512 2.44925 5.23942
362 1 1.79433 0.519561 1.35891
363 1 7.92487 2.95405 2.89463
364 1 1.28803 1.57065 4.64614
365 1 2.45928 4.99233 9.15451
366 1 6.07176 0.753952 1.66801
367 1 2.0732 3.61929 1.62867
368 1 1.57758 4.67742 3.22487
369 1 8.27833 7.7633 0.19301
370 1 2.12798 6.50644 8.76351
371 1 1.55257 1.432 5.68788
372 1 4.85855 1.45573 7.40531
373 1 7.05875 4.86499 0.691817
374 1 8.43927 0.889371 6.07229
375 1 4.70135 6.64884 0.91669
376 1 4.3458 3.83284 0.788268
377 1 2.25959 8.31613 8.07754
378 1 5.31436 7.17759 2.89465
379 1 6.94366 3.96983 7.42644
380 1 7.27986 2.1097 6.90654
381 1 5.0093 2.54332 3.69927
382 1 5.36525 7.47693 6.13765
383 1 9.41092 8.12999 8.67448
384 1 3.27935 0.394376 2.37786
385 1 5.39857 7.01398 0.0349273
386 1 7.69485 4.25721 2.59144
387 1 9.11957 8.34675 1.8265
388 1 3.72761 0.422259 8.29177
389 1 5.60402 1.77553 4.41769
390 1 2.58751 5.13771 4.82471
391 1 9.07601 8.86786 2.86162
392 1 5.71504 6.24005 0.733677
393 1 7.34157 6.78497 2.81739
394 1 6.69777 5.37218 5.11645
395 1 7.87029 1.72375 0.374114
396 1 5.10104 2.17954 1.44031
397 1 6.49088 4.08859 6.50371
398 1 6.17708 4.49112 8.09754
399 1 8.01328 0.331617 2.77667
400 1 0.88877 3.77114 1.71069
401 1 6.99144 5.17148 9.071
402 1 2.72005 2.18381 2.27348
403 1 1.3492 3.02144 0.959643
404 1 3.48643 7.81866 2.57813
405 1 2.23237 4.86725 6.077
406 1 4.82384 1.88042 0.427417
407 1 7.26258 0.711184 1.45886
408 1 3.25291 2.25737 8.77908
409 1 2.45208 3.12145 5.82766
410 1 8.16998 2.31859 1.15831
411 1 6.44537 0.188579 3.39579
412 1 3.227 7.13721 5.35036
413 1 0.290813 0.473655 0.281909
414 1 6.95973 1.12 0.325085
415 1 6.23438 9.26306 8.74526
416 1 8.56538 8.52946 0.899987
417 1 6.87569 1.20437 3.0895
418 1 4.70461 1.48345 5.02882
419 1 9.15061 2.78695 2.70014
420 1 0.777215 2.49048 4.76291
421 1 8.65943 8.02361 6.16439
422 1 7.60436 2.8906 4.00249
423 1 7.52222 3.55689 5.55171
424 1 4.64531 6.14259 4.57477
425 1 0.024365 0.653452 5.89607
426 1 1.31931 0.268345 5.52034
427 1 6.58438 4.55596 4.41318
428 1 2.68233 1.5956 9.21613
429 1 5.9623 0.65569 8.10487
430 1 7.31791 2.16742 3.21324
431 1 9.28865 5.08851 3.95374
432 1 1.41713 7.54002 2.57057
433 1 2.18774 7.71262 4.2051
434 1 6.87711 5.165 6.27675
435 1 8.65695 5.67156 8.25058
436 1 9.37316 6.53319 6.8278
437 1 4.74783 4.08686 2.30658
438 1 1.95322 6.69049 2.74712
439 1 3.60437 8.77534 2.97631
440 1 3.91701 5.92319 0.220185
441 1 6.00248 3.43671 9.35225
442 1 1.64836 5.39164 2.43863
443 1 3.08416 3.10442 1.89841
444 1 7.33883 5.96674 4.43645
445 1 6.76737 3.33129 4.72354
446 1 7.85428 2.00215 7.94182
447 1 9.08876 4.81862 9.20493
448 1 1.35035 0.0712987 3.30032
449 1 5.26541 7.49039 7.23316
450 1 3.25952 0.783068 7.37468
451 1 5.68514 4.25419 7.12108
452 1 5.76965 6.85737 7.76301
453 1 2.69841 2.22766 4.45683
454 1 2.98912 7.87347 1.65447
455 1 7.96309 5.03889 6.05228
456 1 9.12641 5.88087 9.30097
457 1 7.87484 6.92888 9.26773
458 1 2.58719 7.92842 5.96756
459 1 8.27824 4.34244 5.36762
460 1 4.61373 4.94437 4.78018
461 1 9.34048 4.36431 4.75161
462 1 4.60842 9.27985 0.492675
463 1 2.55081 8.7864 9.23214
464 1 8.62661 1.40861 4.19146
465 1 1.04335 5.87308 7.70168
466 1 3.19944 1.34319 8.30685
467 1 6.59695 1.43596 4.65885
468 1 7.92917 8.82563 6.15762
469 1 7.52024 0.241634 5.83386
470 1 8.13627 2.93146 8.10031
471 1 3.02587 0.880008 5.37679
472 1 0.256141 2.78197 0.215608
473 1 1.32167 3.02886 6.6308
474 1 0.914224 9.00115 0.47659
475 1 0.655132 9.17276 8.81462
476 1 7.65661 0.313828 7.65657
477 1 8.59386 9.35513 3.63472
478 1 4.20168 8.79741 7.93236
479 1 1.36234 2.82271 9.33482
480 1 2.33245 0.746841 2.18386
481 1 3.28063 1.38639 1.96653
482 1 7.35508 2.99409 7.39367
483 1 4.2998 7.32988 6.69647
484 1 2.38628 9.39382 3.15947
485 1 5.80691 6.38304 8.66673
486 1 6.88008 7.5235 9.29651
487 1 7.3309 7.8591 2.63784
488 1 7.48581 6.95493 7.44811
489 1 9.11379 0.578525 7.92227
490 1 2.78841 7.13611 3.38746
491 1 8.085 8.276 1.80233
492 1 4.0938 2.82511 6.92902
493 1 9.12552 0.798836 1.2245
494 1 4.36816 3.29751 4.19033
495 1 4.41786 0.721232 3.72783
496 1 3.75904 3.94075 9.29431
497 1 1.75728 1.19558 9.02894
498 1 8.31582 0.320996 1.10311
499 1 4.064 6.77797 2.67808
500 1 6.11475 3.28129 7.15177
501 1 5.87257 0.515467 6.36784
502 1 0.841031 4.2547 5.21107
503 1 5.89818 7.5977 8.5964
504 1 5.36885 3.97321 0.730493
505 1 6.07756 5.63326 3.17342
506 1 0.584132 9.24538 6.34136
507 1 0.40011 1.33748 1.80661
508 1 6.54233 2.91842 2.08318
509 1 1.5516 7.67868 7.47354
510 1 9.09449 7.24266 3.51941
511 1 7.18257 8.54376 5.40487
512 1 5.36817 5.68377 3.9791
513 1 1.87488 6.232 1.77231
514 1 9.41368 7.00373 4.98595
515 1 6.87163 7.81371 4.71717
516 1 3.79804 7.46386 3.53878
517 1 8.19342 2.28366 8.90435
518 1 5.66165 3.65771 1.97537
519 1 2.48336 4.18164 3.49654
520 1 6.46539 3.34808 8.22326
521 1 7.44093 0.813788 6.77563
522 1 5.13795 4.85864 0.195686
523 1 3.58012 3.76649 3.48122
524 1 2.20886 0.964264 8.02883
525 1 6.14931 3.25989 1.09529
526 1 2.84042 3.71973 7.70388
527 1 4.64256 6.67035 3.5515
528 1 5.72135 5.02103 4.83694
529 1 4.18125 3.32498 5.95132
530 1 7.31677 0.184574 0.614346
531 1 7.51247 3.69398 8.43007
532 1 3.60178 8.73272 1.94725
533 1 0.205871 7.09403 8.7741
534 1 8.77785 7.55588 1.07398
535 1 6.17566 8.64737 4.895
536 1 2.08023 1.55941 3.93419
537 1 1.86529 3.55669 8.04433
538 1 3.8361 8.74819 6.10831
539 1 4.22475 3.90553 4.99722
540 1 2.78617 4.98615 8.15472
541 1 1.35757 2.88898 2.11345
542 1 1.00734 4.21947 8.39241
543 1 2.19957 9.30013 8.26883
544 1 0.512548 1.5797 5.62658
545 1 7.52443 5.43986 2.33823
546 1 1.73702 6.69315 7.64104
547 1 9.087 7.1604 5.96463
548 1 6.99631 7.46812 3.64361
549 1 2.36593 0.506942 7.07646
550 1 9.36089 5.67202 4.85159
551 1 2.72602 4.04338 8.78192
552 1 8.31381 5.14988 3.31605
553 1 4.048 0.853951 6.7296
554 1 4.57402 1.8847 6.47344
555 1 3.37332 4.98862 2.15429
556 1 1.71106 3.72151 9.01141
557 1 2.72321 5.33809 7.04241
558 1 6.51344 1.89531 5.70589
559 1 4.34914 5.60713 3.55909
560 1 2.76503 3.14597 3.62243
561 1 3.32715 3.82711 5.46132
562 1 8.42615 6.45763 7.21953
563 1 2.6916 8.68528 2.43089
564 1 5.0878 8.8205 4.48152
565 1 7.39301 1.46885 5.96907
566 1 0.636009 5.6969 0.803065
567 1 7.7226 4.84774 7.21672
568 1 2.25892 1.49675 1.48059
569 1 8.80602 2.13269 0.30518
570 1 2.88204 6.63117 1.29014
571 1 0.0533439 5.77427 7.42362
572 1 3.96814 4.58413 3.96013
573 1 0.672895 2.26822 2.73244
574 1 3.36416 1.42468 3.90052
575 1 4.49932 4.60827 8.76919
576 1 7.2031 2.57665 8.43282
577 1 7.01456 8.88244 2.85048
578 1 3.96637 3.53315 7.64299
579 1 0.995264 1.87333 3.73993
580 1 1.8877 1.36635 6.74208
581 1 5.67996 1.21448 5.29381
582 1 5.57603 9.14787 0.0859839
583 1 1.61578 2.42968 3.07357
584 1 2.21948 2.60908 1.41442
585 1 2.21722 6.9859 5.89286
586 1 6.50195 9.2216 5.74473
587 1 1.18259 1.13409 0.454284
588 1 8.48083 0.66764 7.08992
589 1 9.28017 2.66746 4.19621
590 1 1.92465 4.36847 4.31791
591 1 3.22319 7.82578 4.39314
592 1 8.36966 5.59893 4.29943
593 1 0.599604 5.32861 9.14492
594 1 6.89187 4.24052 3.34916
595 1 7.73615 7.39328 0.99913
596 1 8.36205 9.3536 8.29953
597 1 0.535954 8.08872 7.686
598 1 1.67266 5.8874 5.48162
599 1 1.73394 9.2481 2.20288
600 1 6.93017 0.414364 2.42792
601 1 0.705876 8.06109 1.97617
602 1 6.56812 6.10769 6.50082
603 1 4.68244 2.78578 7.94298
604 1 6.24397 9.04572 6.84889
605 1 4.11663 5.62968 8.64445
606 1 0.805717 8.75205 3.76181
607 1 3.53161 0.151332 9.31365
608 1 0.63432 6.32487 9.411
609 1 3.33027 3.261 8.50986
610 1 5.44013 2.02279 8.12041
611 1 8.95192 1.61155 8.56874
612 1 1.65176 6.04368 0.214553
613 1 6.56779 9.0685 1.39308
614 1 1.60069 8.62476 8.85121
615 1 8.46895 5.44871 0.666555
616 1 9.18003 4.52115 2.02711
617 1 5.27909 4.55251 1.61813
618 1 6.35645 5.7353 4.13825
619 1 3.96249 4.8111 0.528806
620 1 0.921997 6.18932 4.8812
621 1 6.86351 9.09345 7.84913
622 1 7.53761 1.82906 4.32922
623 1 4.60428 0.0261772 6.30669
624 1 6.71529 4.13579 8.94297
625 1 3.31964 4.87168 3.17208
626 1 0.205896 3.68642 2.53
627 1 9.23299 0.415364 4.30881
628 1 1.39761 3.96822 7.16068
629 1 3.80608 7.18664 1.67857
630 1 3.18892 8.99157 8.45399
631 1 4.42729 7.53062 5.64614
632 1 9.14231 7.9987 5.222
633 1 0.0780755 7.93798 4.24317
634 1 6.27257 2.3159 1.35009
635 1 3.46793 2.91913 2.85839
636 1 7.57835 3.99843 4.57699
637 1 5.21481 5.20172 3.11487
638 1 2.71093 6.4118 7.17856
639 1 0.772357 3.33112 7.75572
640 1 7.15888 6.16103 8.64618
641 1 1.56559 9.40787 6.62029
642 1 0.225716 2.17249 1.03138
643 1 1.94995 0.465753 4.06906
644 1 2.38961 7.69312 2.57499
645 1 4.51915 3.5777 8.61488
646 1 3.84628 5.33275 6.58851
647 1 2.67536 0.646882 8.88245
648 1 5.8388 5.1528 6.64369
649 1 0.706719 7.65606 5.38332
650 1 5.12822 4.03549 4.40321
651 1 5.80618 5.32153 2.1731
652 1 5.31178 8.05943 5.17912
653 1 8.34599 8.43098 8.87962
654 1 4.51529 9.15319 1.68994
655 1 6.3636 8.41567 2.23359
656 1 4.55128 2.18299 8.86915
657 1 5.30922 9.18403 8.13641
658 1 1.84686 6.89449 4.87791
659 1 8.06547 3.82489 7.48034
660 1 4.95115 3.46117 7.07271
661 1 1.96078 2.10966 0.442789
662 1 4.82197 8.6443 8.93899
663 1 2.15158 7.63076 8.95661
664 1 6.68267 0.835968 5.56979
665 1 2.61672 7.30946 7.99522
666 1 8.28678 1.88206 5.55776
667 1 0.186628 1.6811 4.46755
668 1 4.80325 5.58239 0.791065
669 1 0.0723083 6.1723 2.43775
670 1 4.38829 2.31864 5.56359
671 1 0.871942 5.81069 1.90439
672 1 5.15734 4.24486 5.56754
673 1 3.98154 1.87602 7.98091
674 1 1.80842 4.5943 7.88066
675 1 3.8639 7.96756 0.93508
676 1 7.6733 5.59473 7.91192
677 1 7.35385 6.87227 6.42152
678 1 8.55567 3.4981 4.57876
679 1 1.50391 3.27067 5.41043
680 1 0.802686 5.7606 6.54879
681 1 5.42117 0.400219 3.16132
682 1 5.70488 6.1689 4.81813
683 1 4.2347 2.68119 0.953223
684 1 6.87744 8.3296 6.26295
685 1 5.00999 7.12989 8.39902
686 1 0.622779 7.05721 7.69705
687 1 5.72996 3.49326 6.0932
688 1 8.79281 3.38768 6.51621
689 1 1.81341 6.7926 3.80305
690 1 0.80483 0.489889 1.2081
691 1 4.60712 0.261429 8.91181
692 1 8.53867 9.19487 2.04301
693 1 2.28876 3.30209 4.56079
694 1 2.35601 5.14484 3.80016
695 1 0.742929 3.65137 6.09168
696 1 7.75465 6.33184 1.8955
697 1 7.99598 3.81889 9.32524
698 1 0.806873 2.30377 7.5996
699 1 0.905973 6.79247 5.84725
700 1 0.129248 0.351533 2.21682
701 1 7.87557 0.672473 9.24655
702 1 8.21729 7.052 5.43497
703 1 1.12818 8.21324 4.56156
704 1 5.23322 6.01648 1.64724
705 1 5.57538 1.60232 6.3264
706 1 0.203494 4.02362 6.8522
707 1 6.97581 3.19245 6.41156
708 1 3.96703 7.0845 4.57632
709 1 2.21381 6.99187 0.572888
710 1 3.5198 4.90884 9.02347
711 1 2.40229 2.85777 8.90667
712 1 2.82919 6.84777 4.41821
713 1 3.79163 6.35065 7.00733
714 1 3.84145 1.47408 5.76322
715 1 5.73227 6.30306 2.50402
716 1 3.66586 1.99173 4.82714
717 1 3.96438 6.65238 8.09383
718 1 7.95468 2.85214 0.358842
719 1 8.94716 2.37855 6.16797
720 1 8.18881 6.47868 0.797269
721 1 3.6472 6.45252 3.68509
722 1 7.26208 5.927 0.351696
723 1 7.32998 1.5281 8.8145
724 1 2.9772 3.99921 4.39842
725 1 0.182675 6.45174 4.04368
726 1 2.08347 8.91498 5.89027
727 1 6.6562 5.23183 1.5906
728 1 8.2277 1.76166 6.63672
729 1 8.28646 2.24968 3.682
730 1 8.02306 4.52112 0.646461
731 1 2.93568 4.39306 0.443287
732 1 7.99021 7.46092 3.39163
733 1 2.49361 4.15004 2.44821
734 1 2.33352 3.13417 2.69953
735 1 7.74423 8.52737 7.96085
736 1 4.9876 8.39331 0.875799
737 1 0.818705 4.51308 4.07633
738 1 4.19644 0.879924 0.409998
739 1 2.38486 4.29585 6.95001
740 1 0.835364 6.70939 3.20323
741 1 4.96044 0.468975 4.73801
742 1 8.56758 3.11215 5.47529
743 1 5.85635 1.36729 7.41589
744 1 4.97703 2.76956 2.23639
745 1 3.24484 5.81241 7.81014
746 1 3.89597 0.976355 4.67389
747 1 3.20894 1.05083 0.772195
748 1 3.72338 6.96106 0.5605
749 1 7.38506 9.03096 8.78418
750 1 8.74066 1.13273 0.363246
751 1 3.30661 7.258 7.18347
752 1 6.28554 2.46883 8.84802
753 1 3.42515 4.6374 7.27165
754 1 5.69698 2.56199 0.522158
755 1 4.70388 6.60226 7.2843
756 1 5.39701 5.18502 8.6513
757 1 8.79638 8.40792 7.87657
758 1 4.00483 8.40046 3.88777
759 1 6.65669 2.38479 4.31775
760 1 5.46743 4.19222 8.91976
761 1 1.73707 8.08414 0.406293
762 1 7.49637 8.46678 0.605251
763 1 5.38324 3.66674 7.95507
764 1 2.4158 2.02796 8.26701
765 1 1.24174 8.91588 7.86759
766 1 0.0814245 3.75287 8.59834
767 1 6.30478 2.86279 5.53071
768 1 4.68726 4.25325 3.34499
769 1 7.06925 6.97923 5.34257
770 1 8.9973 4.49226 0.977898
771 1 8.71701 1.01017 2.15569
772 1 9.30816 2.30828 5.27836
773 1 4.46715 7.94931 4.66221
774 1 7.06268 4.40574 5.38681
775 1 4.22762 4.95719 2.69926
776 1 5.09569 3.11374 1.21833
777 1 6.4383 7.24376 6.0794
778 1 8.47788 2.9465 1.93884
779 1 4.749 2.44486 4.64765
780 1 8.96228 6.92613 0.1261
781 1 2.25421 3.40166 0.491791
782 1 0.470378 7.19914 0.483919
783 1 9.12793 4.2279 3.2691
784 1 2.84228 9.07257 3.9689
785 1 0.695053 5.63618 3.05811
786 1 0.787554 3.67721 9.395
787 1 0.307422 7.25974 1.53977
788 1 8.20569 8.45824 5.25193
789 1 6.98607 7.84729 7.70866
790 1 9.05696 3.55509 7.66272
791 1 6.70594 2.3002 0.357245
792 1 0.710434 5.28368 5.60143
793 1 6.14125 0.86203 9.12564
794 1 9.32589 6.43916 0.923137
795 1 3.47457 2.78529 5.6026
796 1 4.40797 5.17286 1.64872
797 1 1.49035 1.20394 3.12751
798 1 3.17543 3.40797 6.60019
799 1 5.79122 2.92683 2.88482
800 1 0.913285 8.95947 1.65542
801 2 7.09833 3.58231 3.93708
802 2 7.5573 8.29722 3.38915
803 2 1.47503 0.755746 4.72213
804 2 0.967842 0.665467 9.17163
805 2 7.77239 7.69812 5.01978
806 2 7.40111 8.19498 9.13073
807 2 2.32043 7.99671 1.06626
808 2 1.05876 5.12454 8.21925
809 2 5.66627 8.60425 8.75192
810 2 2.01729 5.98243 7.04222
811 2 6.56759 3.67342 5.77068
812 2 1.48996 5.13459 3.90352
813 2 8.03688 0.153717 6.53387
814 2 0.365607 1.91012 8.28454
815 2 6.19784 2.25983 4.98568
816 2 8.97158 1.68656 0.993828
817 2 4.95271 5.0016 2.27109
818 2 3.81145 2.40246 6.28914
819 2 4.43897 2.19623 7.29915
820 2 7.94922 1.2952 7.27559
821 2 6.53222 1.7062 9.17961
822 2 6.90079 0.255817 9.30099
823 2 2.89243 0.462103 8.03407
824 2 9.21556 7.59266 7.998
825 2 6.56046 5.00883 3.6985
826 2 3.24736 5.41356 0.250062
827 2 7.18483 6.51448 3.76211
828 2 0.385614 8.54067 4.81702
829 2 8.70422 5.00689 4.8326
830 2 4.49934 5.36233 0.0422663
831 2 6.09263 5.94604 1.58607
832 2 6.09166 9.28616 7.68711
833 2 0.887818 2.21341 0.483358
834 2 4.54423 0.535501 1.11467
835 2 1.5174 5.41774 6.1736
836 2 7.77984 3.05989 8.8872
837 2 9.38882 5.16935 0.512071
838 2 9.02233 1.54744 5.80019
839 2 5.61549 4.38674 6.30039
840 2 6.14638 7.64218 7.7582
841 2 8.44369 3.77221 0.63762
842 2 5.22337 4.49796 8.10235
843 2 8.94817 9.37704 7.35636
844 2 8.76549 0.170285 0.394631
845 2 3.93341 8.81088 1.12882
846 2 1.27722 1.56296 7.29027
847 2 6.6487 7.85556 5.55196
848 2 8.87254 5.53363 6.24003
849 2 5.70461 2.85573 1.77143
850 2 8.83739 6.47235 8.73452
851 2 4.61169 5.20875 8.17921
852 2 0.299881 4.16127 7.78171
853 2 6.1728 3.7036 3.04384
854 2 6.62172 2.27207 2.74832
855 2 4.88026 6.72683 6.3916
856 2 8.08295 1.84135 1.90317
857 2 0.0133993 1.14279 3.76446
858 2 2.26675 2.79325 7.85009
859 2 5.32284 6.11909 3.26095
860 2 2.59592 9.27936 6.5341
861 2 4.63886 9.07929 7.15266
862 2 2.23565 4.64163 1.02639
863 2 6.09131 2.87439 3.81403
864 2 7.95919 3.3689 6.75317
865 2 3.7721 3.84771 4.35103
866 2 8.93483 7.41302 1.92375
867 2 7.09562 7.61942 6.66095
868 2 9.21975 7.79959 0.128151
869 2 1.86723 9.27082 7.3897
870 2 4.8257 3.78453 6.20984
871 2 9.36201 2.12726 7.0203
872 2 2.43649 4.84951 2.8749
873 2 4.15589 3.04179 5.13065
874 2 6.36389 7.6865 1.71883
875 2 4.06374 5.50623 4.44054
876 2 7.03868 2.41673 6.0999
877 2 0.24474 6.34048 1.66765
878 2 6.11561 4.82258 8.91996
879 2 0.499782 5.04431 4.78208
880 2 2.29565 1.54267 6.02698
881 2 1.7063 8.88294 5.02345
882 2 4.26737 6.60599 5.28224
883 2 8.1704 4.93655 7.98621
884 2 7.8359 0.895254 0.641823
885 2 5.18303 2.11885 2.85052
886 2 9.33019 8.87945 3.80419
887 2 7.77905 3.14012 4.86465
888 2 7.3487 2.27805 9.2481
889 2 0.906272 3.15715 2.86194
890 2 3.05334 4.69371 4.03047
891 2 2.99575 8.68277 5.96183
892 2 2.58136 8.01296 7.42022
893 2 5.68195 2.87215 7.88325
894 2 2.96033 3.37801 9.31665
895 2 9.39786 3.12362 5.95222
896 2 0.240497 5.27291 2.14915
897 2 5.09108 7.79522 8.93859
898 2 1.53494 4.53175 5.72145
899 2 8.88622 0.275855 2.74402
900 2 1.50557 3.05343 7.44424
901 2 7.11272 8.7255 4.50705
902 2 1.24583 6.25705 2.62388
903 2 8.9891 8.76014 5.80096
904 2 9.24813 2.33901 8.95143
905 2 1.27169 1.20729 1.56443
906 2 6.93712 3.67503 1.43536
907 2 7.37487 4.35586 0.0787645
908 2 6.51006 5.55121 0.738056
909 2 5.91215 7.39264 3.42553
910 2 1.16947 3.29183 8.58711
911 2 8.00436 0.582775 1.94099
912 2 3.5095 6.22515 0.956534
913 2 6.14823 8.83245 2.95941
914 2 5.75738 6.80842 5.68791
915 2 4.86729 1.30914 9.12675
916 2 2.74587 1.7334 0.759492
917 2 8.30701 1.44999 9.12005
918 2 7.2608 0.424108 3.23299
919 2 5.07395 0.090502 3.8871
920 2 3.17685 5.89875 6.54109
921 2 2.10514 7.63733 3.34462
922 2 6.73714 8.43927 7.15485
923 2 5.81939 1.55948 1.68597
924 2 4.06609 2.75841 8.46806
925 2 5.57087 8.67321 1.73005
926 2 3.91757 1.10889 7.76065
927 2 5.00265 0.954504 6.75864
928 2 2.11079 4.31786 0.0871146
929 2 3.21964 5.93351 1.978
930 2 0.536814 0.544624 7.872
931 2 3.9609 9.00845 8.77593
932 2 6.69516 1.61418 3.81538
933 2 7.97745 3.18658 1.22525
934 2 4.70264 4.7058 0.929283
935 2 2.85164 4.62699 5.45401
936 2 2.9762 3.60805 2.93043
937 2 1.71207 7.18589 8.3032
938 2 5.4327 9.05041 6.42157
939 2 1.04837 6.46294 4.08791
940 2 3.42722 7.32522 8.15555
941 2 0.80818 9.36369 7.18845
942 2 1.8717 2.11555 9.0095
943 2 2.28391 1.54962 2.59652
944 2 2.18422 6.14785 0.922215
945 2 8.48808 4.7773 2.47153
946 2 9.15367 3.64792 1.76426
947 2 3.5493 7.66063 6.32228
948 2 6.16479 4.54662 2.0773
949 2 6.56175 1.24835 1.14591
950 2 0.0636801 3.27991 3.34666
951 2 3.37004 0.9745 9.14851
952 2 4.72516 4.02021 0.00362585
953 2 0.4732 4.73369 3.35843
954 2 2.75168 5.92211 4.42773
955 2 8.57508 8.20833 7.06735
956 2 8.41296 5.78815 1.45607
957 2 6.4385 6.43089 5.18375
958 2 0.521489 7.32641 3.69376
959 2 6.72163 0.274317 6.40958
960 2 7.27087 3.55258 2.90505
961 2 0.341092 4.53876 5.9163
962 2 6.56659 8.01377 3.13146
963 2 2.56353 7.55484 4.97107
964 2 4.32363 8.74229 2.54777
965 2 2.78204 6.45197 8.07937
966 2 7.48812 4.93314 3.05634
967 2 9.25328 1.71084 2.50611
968 2 8.80059 6.44892 5.34377
969 2 7.92435 6.05382 2.80121
970 2 5.17645 3.46835 2.69384
971 2 1.20631 8.41649 1.01437
972 2 3.7084 5.16239 7.9323
973 2 3.72354 7.64695 0.0304169
974 2 4.88868 4.89723 3.97493
975 2 0.850155 6.45209 7.06992
976 2 7.81022 6.37795 5.08339
977 2 4.54398 7.39098 1.28792
978 2 3.49483 8.62392 4.67655
979 2 3.34046 1.85637 2.84206
980 2 1.75318 4.6554 8.72429
981 2 9.01776 8.88048 8.73237
982 2 7.70725 5.20649 0.179633
983 2 0.401489 1.26879 0.923902
984 2 4.83885 3.87169 1.52118
985 2 8.12956 8.95884 4.48194
986 2 0.699674 2.13964 1.88389
987 2 4.77645 0.862912 2.82732
988 2 6.58373 9.32068 4.19709
989 2 4.16591 9.20786 3.60965
990 2 5.00931 1.16037 4.25064
991 2 6.707 8.07173 0.553067
992 2 7.19739 6.82474 0.45493
993 2 7.86157 9.0227 1.11322
994 2 8.21952 3.77731 5.97913
995 2 3.49592 6.26637 5.59619
996 2 2.70134 2.78869 5.08837
997 2 5.46645 0.396209 8.81112
998 2 0.475914 4.43102 8.98778
999 2 2.78992 0.804329 1.42572