#bin. KALJ data file T=0.5

1000 atoms
2 atom types

0 9.4 xlo xhi
0 9.4 ylo yhi
0 9.4 zlo zhi

Masses

1 1.0
2 1.0

Atoms

1 1 8.46778 6.90936 2.33399
2 1 5.54055 6.02887 0.499934
3 1 4.00008 3.01011 3.63718
4 1 2.16554 7.05469 3.25748
5 1 0.140243 0.363336 2.42289
6 1 5.49925 8.21132 4.51219
7 1 3.53757 8.90175 2.05907
8 1 3.67456 0.625517 7.38681
9 1 1.99092 6.65834 5.20662
10 1 1.30568 5.18464 2.99148
11 1 6.04364 0.810496 4.51665
12 1 8.67916 0.195297 0.478128
13 1 1.46406 1.5842 2.00037
14 1 4.10647 3.82252 4.22203
15 1 0.779286 9.37437 7.44597
16 1 1.40724 0.191146 6.60051
17 1 7.30593 4.35913 0.967499
18 1 3.69944 6.00866 8.3931
19 1 2.91809 4.65919 7.89791
20 1 9.01889 5.6094 8.37805
21 1 9.18405 9.04326 1.1647
22 1 7.7144 4.58206 9.07737
23 1 5.1873 1.42892 0.843883
24 1 2.98734 7.28244 5.12008
25 1 7.1656 2.67868 1.42286
26 1 9.09752 3.77981 4.51242
27 1 0.747855 7.34588 1.80911
28 1 5.47847 2.43589 0.661978
29 1 1.42273 4.05127 5.04063
30 1 0.0491815 3.61862 6.54615
31 1 2.16465 1.49463 1.15601
32 1 8.51425 3.74012 7.14218
33 1 6.20801 7.90867 0.670996
34 1 5.31359 0.175612 3.24202
35 1 3.43529 1.01937 2.48806
36 1 3.55865 3.06307 1.42832
37 1 5.76813 7.49553 8.98146
38 1 0.141737 0.554427 1.29887
39 1 4.98995 6.91813 0.141318
40 1 7.49616 0.0456667 0.83692
41 1 6.6645 9.31656 5.87931
42 1 8.65235 0.748457 4.93883
43 1 2.11797 9.23212 5.84562
44 1 1.24129 2.48014 6.1249
45 1 8.23387 1.85184 0.109036
46 1 8.5063 6.28277 3.25948
47 1 1.52808 5.67147 0.154089
48 1 6.41784 6.62446 2.23722
49 1 3.15112 4.29348 6.97387
50 1 1.34716 5.90179 5.35812
51 1 1.6206 5.76705 2.10868
52 1 4.36289 1.38813 2.40658
53 1 2.9494 1.12771 3.51247
54 1 8.90994 6.12313 0.623713
55 1 2.01426 4.69122 7.30464
56 1 0.554767 3.81661 7.58668
57 1 2.46885 5.57277 7.80394
58 1 5.65111 6.02548 1.71866
59 1 7.13874 8.00623 7.39485
60 1 1.8143 8.76623 4.19117
61 1 2.57093 1.86044 2.1029
62 1 3.48807 7.72176 1.766
63 1 7.36091 1.31538 6.09968
64 1 1.8035 7.4444 1.21322
65 1 8.07053 3.251 4.09788
66 1 3.47215 0.37209 5.03626
67 1 4.63071 8.81164 2.59628
68 1 5.01608 7.56397 7.45502
69 1 7.48999 4.99787 2.85513
70 1 7.2537 3.91429 4.08825
71 1 7.56707 3.4684 9.0102
72 1 5.63032 1.66085 4.0897
73 1 2.85004 8.31619 5.39332
74 1 5.85216 7.13463 3.03965
75 1 7.26837 1.86625 6.93201
76 1 6.90067 0.657345 1.64167
77 1 1.14427 3.78591 4.11474
78 1 1.087 6.57088 2.49809
79 1 6.32188 1.2895 6.59918
80 1 9.194 7.30056 8.67636
81 1 1.42468 8.29221 6.11088
82 1 5.2142 8.42236 3.54657
83 1 5.58217 5.0486 5.00279
84 1 0.907289 6.75971 5.8309
85 1 1.1481 1.61065 8.12497
86 1 4.19013 1.31212 0.453586
87 1 5.01888 3.58599 2.48761
88 1 9.18818 1.22206 6.8539
89 1 2.9336 4.89102 4.25685
90 1 5.25577 3.57678 0.741166
91 1 7.38682 6.53924 5.88017
92 1 7.25606 8.55621 8.40535
93 1 2.55752 9.11491 4.88544
94 1 0.358362 6.86186 3.81286
95 1 8.85805 6.7197 4.4043
96 1 5.22217 8.82135 7.27294
97 1 1.70662 3.07927 1.45173
98 1 5.39281 8.37328 2.02342
99 1 2.56452 0.590703 4.28143
100 1 6.44563 8.58437 5.00425
101 1 4.40181 5.53737 4.13175
102 1 3.94287 8.06548 2.71429
103 1 2.77369 9.01686 3.80395
104 1 2.23723 8.05681 3.56539
105 1 8.02548 1.39321 4.34961
106 1 8.35549 0.443403 6.91072
107 1 6.41326 7.02714 1.28283
108 1 9.15516 2.35372 3.36648
109 1 6.18282 3.28965 2.25599
110 1 9.29912 4.54483 7.06509
111 1 7.45945 5.19852 7.35538
112 1 6.38468 9.1123 1.04692
113 1 4.79313 4.14459 8.19205
114 1 0.401636 1.34384 2.03624
115 1 6.24941 0.602925 3.5754
116 1 5.33139 2.76823 8.71908
117 1 7.24555 8.46466 0.528413
118 1 7.63561 2.35112 6.04334
119 1 4.64769 0.296923 7.49572
120 1 1.07227 7.09814 8.86375
121 1 5.6452 9.1931 4.16263
122 1 1.78419 7.98992 8.48895
123 1 2.24946 7.5354 5.85516
124 1 5.26666 1.21106 6.19939
125 1 6.39355 6.71619 6.29672
126 1 9.02396 4.5432 1.29404
127 1 3.65425 8.87996 4.35625
128 1 4.52656 5.6384 7.79432
129 1 3.95322 4.72167 0.0642272
130 1 3.51011 0.388484 3.93659
131 1 8.76235 1.83303 2.45392
132 1 7.59118 3.19075 5.43788
133 1 6.27677 8.2474 1.61423
134 1 0.70489 5.91956 4.48059
135 1 3.83585 9.03473 3.26492
136 1 8.98603 0.855291 5.93202
137 1 2.02691 4.62652 0.112837
138 1 8.0325 2.89333 0.410469
139 1 9.34257 1.82317 6.01568
140 1 2.79283 3.81818 6.00029
141 1 3.45759 8.49905 8.03932
142 1 3.56936 2.04214 0.93612
143 1 4.69351 5.34768 0.158382
144 1 0.510404 3.3686 4.99227
145 1 8.36091 4.53166 0.482126
146 1 6.04679 1.36813 0.0863163
147 1 5.79307 2.11115 6.44547
148 1 8.74671 4.71395 8.92656
149 1 1.99563 8.70942 2.80053
150 1 5.91864 0.707054 2.47375
151 1 0.135162 0.123174 5.35028
152 1 6.0961 0.149977 9.40964
153 1 2.10431 6.45558 1.38704
154 1 3.98742 7.30544 9.21326
155 1 0.501982 8.87186 3.40979
156 1 4.33316 7.31975 3.45949
157 1 6.16703 4.09914 7.1585
158 1 2.66044 6.30869 8.49998
159 1 1.95518 6.65234 6.30997
160 1 4.37857 1.30541 7.83691
161 1 1.2349 3.54722 5.99244
162 1 8.52385 2.44301 8.71341
163 1 0.957141 2.74212 4.27807
164 1 4.56627 7.75737 0.725804
165 1 6.19543 3.26452 1.23121
166 1 5.09632 5.62143 3.32381
167 1 3.99245 6.9783 2.49389
168 1 6.61151 4.00338 9.20651
169 1 2.02643 6.53931 7.38806
170 1 8.88755 3.40851 3.45197
171 1 7.44206 7.00989 1.96037
172 1 2.52177 2.72647 8.86382
173 1 9.23488 5.11773 0.360332
174 1 0.542792 4.15586 5.71407
175 1 7.10569 7.28456 0.489292
176 1 2.41108 0.0308411 6.76555
177 1 5.61199 8.45842 0.113895
178 1 7.04097 2.96284 3.36259
179 1 4.8464 0.218724 5.88761
180 1 9.23559 9.2229 4.39507
181 1 7.90842 6.65111 4.07484
182 1 5.77422 3.16086 5.7265
183 1 2.28036 5.38135 8.78223
184 1 3.83194 0.205711 8.35657
185 1 3.64454 6.34844 6.79623
186 1 3.07919 5.5173 5.31113
187 1 2.59977 1.64804 6.00682
188 1 3.83954 5.39496 0.857935
189 1 4.12 5.30057 2.78261
190 1 5.54492 3.98939 1.65292
191 1 4.90349 5.02133 8.63952
192 1 0.39723 4.77144 8.04962
193 1 3.3926 7.07755 8.37405
194 1 1.3271 8.88802 0.195469
195 1 7.74677 9.22938 3.86628
196 1 2.65716 1.56016 4.61165
197 1 6.9786 5.90523 8.04424
198 1 2.54555 2.04741 0.265656
199 1 9.13565 7.6006 4.9923
200 1 4.546 8.89097 8.07899
201 1 4.98627 2.87373 3.27741
202 1 8.60037 8.35387 2.7366
203 1 5.20841 7.86454 6.53678
204 1 5.18457 1.59859 7.29269
205 1 5.49563 8.97434 5.26364
206 1 1.63243 2.04777 4.43614
207 1 6.95649 3.42625 0.588915
208 1 7.3382 4.69478 4.82165
209 1 5.82682 0.477696 5.65335
210 1 0.252452 0.742158 7.76895
211 1 8.65968 1.20119 0.771866
212 1 6.83297 7.4074 2.85662
213 1 3.02473 3.1039 4.35092
214 1 8.94145 2.08783 7.4582
215 1 2.77553 5.6421 3.47487
216 1 5.54262 6.3113 5.67058
217 1 3.52989 1.63739 6.97389
218 1 3.00252 3.81859 2.26249
219 1 5.97287 3.19768 0.0802404
220 1 0.492807 2.15037 6.85381
221 1 6.78841 0.755196 5.21086
222 1 8.60563 4.88056 2.11881
223 1 1.28044 0.648617 8.33151
224 1 7.28788 6.82382 4.88637
225 1 7.04768 4.69203 6.56529
226 1 1.21875 8.14813 3.67606
227 1 5.18554 7.42749 3.94219
228 1 7.4543 2.4267 8.92773
229 1 2.76848 0.781148 1.58958
230 1 3.74223 3.90792 8.02069
231 1 6.23161 6.16421 7.246
232 1 8.81715 5.8053 2.28052
233 1 6.35595 7.82818 8.11445
234 1 5.17913 9.13423 8.92366
235 1 7.17112 7.31929 6.61552
236 1 1.4174 6.08577 8.35912
237 1 6.71704 0.787435 0.600901
238 1 6.10724 6.92483 0.33527
239 1 3.73569 8.31832 5.99278
240 1 4.18359 2.73345 5.75451
241 1 3.33373 4.78588 2.4967
242 1 7.59502 4.06212 2.18073
243 1 1.62821 8.4863 1.06996
244 1 5.93747 7.18786 7.32994
245 1 5.74991 3.74481 3.25264
246 1 0.244037 9.29951 0.0821919
247 1 4.60393 3.92118 3.40472
248 1 4.28701 9.14769 5.14814
249 1 2.30067 4.76445 6.32432
250 1 4.68215 6.14204 5.02148
251 1 6.27405 2.00211 7.37907
252 1 0.0974275 4.13875 3.67564
253 1 8.54304 5.23493 3.14913
254 1 3.57402 2.10749 1.93012
255 1 8.08855 2.18258 1.11905
256 1 0.948132 3.0705 0.73113
257 1 5.16359 1.02385 1.77042
258 1 2.36641 8.24599 1.94389
259 1 3.47058 5.52752 7.42039
260 1 2.65129 2.50512 1.26911
261 1 7.93075 5.31412 8.31314
262 1 3.98236 1.20532 8.85489
263 1 6.19298 4.40436 4.48622
264 1 7.28075 6.23505 6.90991
265 1 4.78562 4.61542 4.32256
266 1 5.40354 6.93715 4.84658
267 1 6.72622 2.41687 2.50034
268 1 4.77976 8.66016 6.1605
269 1 2.82315 5.05864 0.777696
270 1 0.132743 8.78001 2.42311
271 1 5.71575 7.26295 1.96697
272 1 0.259078 0.508293 3.44785
273 1 7.48794 3.10066 2.4711
274 1 5.37422 6.7588 6.60183
275 1 4.94435 5.55409 2.21179
276 1 7.70164 6.87387 3.10358
277 1 4.61613 9.24529 3.95523
278 1 1.33768 4.77311 5.81595
279 1 1.74183 7.44218 2.27914
280 1 3.18422 1.98728 2.93626
281 1 6.10641 7.93558 3.67154
282 1 9.30211 7.70614 2.10923
283 1 0.20578 7.82513 3.19928
284 1 6.3047 7.66566 4.64575
285 1 7.04486 8.28974 4.03767
286 1 2.92529 0.0491521 7.68791
287 1 2.79432 0.918814 7.06145
288 1 3.49928 7.62157 7.43399
289 1 7.16056 1.76297 3.15673
290 1 3.00429 6.52294 7.55704
291 1 4.49024 3.36115 8.86948
292 1 0.344668 7.82064 6.15653
293 1 0.544918 1.8316 4.16085
294 1 0.0317664 5.65169 7.36919
295 1 8.09463 4.59703 6.66359
296 1 7.92276 7.24722 9.20679
297 1 6.31048 3.42969 4.08971
298 1 2.90927 6.56843 5.87949
299 1 6.04874 6.82676 4.04879
300 1 0.896967 4.94336 1.4905
301 1 2.53581 0.687774 5.37294
302 1 7.68068 0.46655 5.66394
303 1 1.52652 8.9686 1.89975
304 1 7.94536 4.65932 3.83906
305 1 1.92291 0.271126 1.2012
306 1 5.32764 9.33613 1.94879
307 1 6.29372 9.04274 2.29423
308 1 0.941156 1.11368 7.16434
309 1 8.77578 6.64752 7.94922
310 1 6.02525 5.08551 6.6016
311 1 8.65457 6.4587 8.89533
312 1 3.96184 6.06277 1.73537
313 1 7.74694 1.09344 2.45005
314 1 7.52451 5.79739 3.5241
315 1 4.08804 5.408 5.67248
316 1 0.518652 4.41707 4.65615
317 1 8.78148 1.41709 8.2842
318 1 0.195165 6.07305 6.08478
319 1 1.77845 9.12426 8.60519
320 1 4.5687 6.31781 6.13573
321 1 0.89309 3.5876 1.76627
322 1 1.19752 7.14947 3.35034
323 1 3.27614 5.95982 2.63267
324 1 1.64853 3.56193 7.58933
325 1 5.51676 5.10574 1.05236
326 1 6.08637 2.3768 4.9322
327 1 5.60788 0.0483638 7.97426
328 1 6.66645 5.98681 0.496488
329 1 0.0641881 8.30371 8.41933
330 1 3.30223 5.62692 9.27795
331 1 3.99876 2.8478 4.61927
332 1 4.01948 1.35292 3.42206
333 1 0.182658 5.0918 3.20966
334 1 0.453381 6.9426 6.73571
335 1 0.213696 2.42103 2.32703
336 1 8.18939 8.1272 5.4379
337 1 7.74045 4.22033 7.8321
338 1 0.319317 2.80914 5.90629
339 1 0.855537 3.10089 6.84843
340 1 4.27246 2.27743 2.94589
341 1 7.41389 3.22282 7.94038
342 1 7.55588 5.36618 0.604475
343 1 4.88938 6.45454 3.9686
344 1 0.764722 2.10273 5.10966
345 1 6.97872 4.87338 8.41241
346 1 7.14751 8.14241 2.25672
347 1 4.98176 3.88973 7.19424
348 1 6.71972 2.77839 6.65136
349 1 1.44804 5.0867 8.1454
350 1 2.70591 3.50507 8.18581
351 1 7.10387 7.28862 3.9749
352 1 4.21399 7.8176 8.13723
353 1 8.17863 2.68228 3.13616
354 1 8.84906 6.53217 6.85722
355 1 1.08188 8.27886 2.56355
356 1 5.20896 0.739859 0.0543135
357 1 0.572209 2.40546 9.25367
358 1 3.80691 7.2813 5.77436
359 1 4.1861 6.74341 7.70117
360 1 2.53027 9.24668 2.03003
361 1 7.26241 1.93241 4.96521
362 1 1.13985 9.37226 2.7942
363 1 7.73358 3.52228 1.29642
364 1 1.96921 1.18258 7.66398
365 1 1.63533 4.13435 1.12052
366 1 4.48144 8.83866 0.468037
367 1 4.19274 3.71968 0.495032
368 1 1.92205 3.15145 4.18796
369 1 0.286044 6.86798 0.975664
370 1 1.27038 7.07822 7.81573
371 1 3.19211 4.05532 4.8092
372 1 6.13567 0.958141 7.59904
373 1 7.82851 5.97209 2.42373
374 1 9.0885 8.56931 5.41667
375 1 4.84291 6.59862 1.9576
376 1 6.84722 2.21771 8.09177
377 1 2.86813 7.17086 6.65496
378 1 4.67323 7.73041 1.74532
379 1 6.48712 3.684 6.20688
380 1 8.91587 4.49452 6.07078
381 1 3.53009 2.87606 2.65583
382 1 4.64246 8.11136 5.29876
383 1 0.124434 8.43262 7.35691
384 1 3.0314 0.183827 2.88549
385 1 4.92171 7.04103 8.51736
386 1 8.70412 4.26631 2.89838
387 1 8.74088 0.817952 2.97413
388 1 6.14904 5.76852 9.01136
389 1 5.50578 3.99004 5.19967
390 1 1.76576 7.62902 4.34671
391 1 7.68956 0.755841 0.168561
392 1 4.55246 3.76082 1.56461
393 1 8.07698 7.24289 0.971507
394 1 8.99771 5.72329 4.98444
395 1 8.54086 0.708196 9.02114
396 1 2.62628 3.62269 1.329
397 1 6.54817 3.05535 8.6445
398 1 9.0181 2.59704 0.372024
399 1 7.85404 0.934087 1.36889
400 1 0.742336 5.9866 3.38084
401 1 4.37046 2.28623 8.58175
402 1 1.31955 2.65304 2.30204
403 1 2.57559 4.63976 1.70114
404 1 4.15394 6.26247 0.17993
405 1 2.07151 4.29531 8.35816
406 1 4.44617 8.83697 1.54578
407 1 6.79523 0.0972538 8.03713
408 1 1.90979 1.2707 9.38387
409 1 3.22111 3.09288 5.38703
410 1 8.6031 0.406634 7.93222
411 1 5.00042 7.74984 2.79327
412 1 0.855421 9.0211 4.64354
413 1 2.66126 8.92147 1.03419
414 1 7.05718 1.18338 7.86443
415 1 7.99871 8.94203 9.35277
416 1 0.0782624 0.711012 8.79371
417 1 5.11444 1.33828 3.12853
418 1 3.51403 2.10461 3.93625
419 1 6.09167 1.28253 1.41238
420 1 2.37069 4.73627 5.18839
421 1 6.56448 7.53095 5.71124
422 1 8.1126 4.05459 4.72427
423 1 7.63162 2.24394 3.97986
424 1 3.09736 6.67071 3.33346
425 1 1.80594 1.14649 6.56319
426 1 2.4158 1.77056 8.39554
427 1 7.38914 4.17829 5.70451
428 1 4.33706 8.25233 7.07543
429 1 6.74053 9.39624 4.18864
430 1 8.07513 5.00724 5.58739
431 1 8.19989 1.66429 3.28347
432 1 2.93258 7.48611 2.59443
433 1 1.70832 8.49367 5.16729
434 1 7.40224 5.82515 9.10045
435 1 7.24954 6.08522 1.48766
436 1 8.42095 6.19535 5.77253
437 1 6.3256 4.84841 2.93562
438 1 2.32952 6.47348 2.37986
439 1 3.50897 8.06669 3.70459
440 1 6.59729 5.20905 1.12899
441 1 6.24491 2.27615 1.60519
442 1 6.58621 3.59753 5.14531
443 1 1.74886 4.21193 3.24388
444 1 0.191677 6.57493 5.07501
445 1 6.56257 3.93119 8.09782
446 1 8.40909 1.79236 6.52658
447 1 0.532816 5.80503 0.530894
448 1 2.51832 7.32856 8.84948
449 1 5.28689 5.79755 6.92647
450 1 2.51198 8.40922 6.30288
451 1 4.60808 3.13511 7.89425
452 1 4.91394 6.02885 8.85652
453 1 2.18401 2.90415 6.06767
454 1 1.7439 7.63632 0.151562
455 1 0.53367 5.25802 5.30184
456 1 1.94307 3.66183 2.31958
457 1 7.4918 7.54913 8.28407
458 1 2.29165 5.75596 4.65321
459 1 8.95897 4.14428 8.05569
460 1 6.71059 2.63098 5.67275
461 1 8.66212 3.46219 9.12122
462 1 3.98704 8.67671 8.88629
463 1 3.12169 0.634733 9.15539
464 1 8.15742 3.51587 6.23993
465 1 0.999543 6.26965 7.27387
466 1 5.36202 1.82737 8.23844
467 1 4.57914 1.95729 1.49105
468 1 8.18138 7.60948 4.32257
469 1 6.08826 1.52462 5.57029
470 1 7.84133 2.87987 6.90205
471 1 3.09717 2.50492 6.29928
472 1 0.109899 3.00515 1.40015
473 1 3.44635 1.97064 8.01565
474 1 8.65086 9.26664 2.03837
475 1 0.845239 1.42724 9.10813
476 1 0.61331 9.19133 8.55366
477 1 0.900255 9.32876 1.07921
478 1 5.34642 8.29406 8.23781
479 1 1.55078 4.58847 2.14739
480 1 4.52656 0.477182 0.97632
481 1 3.56305 3.80015 3.18549
482 1 9.27854 3.07422 7.80777
483 1 2.51426 6.77211 4.36531
484 1 4.96281 0.387452 4.83612
485 1 5.70836 5.73577 8.09369
486 1 6.95789 0.392487 2.57219
487 1 6.84051 5.56588 2.31661
488 1 6.93485 6.98475 7.66764
489 1 0.18016 0.833199 0.402604
490 1 2.80936 8.06403 4.3808
491 1 7.64041 7.90333 3.32694
492 1 7.31895 0.803233 6.93079
493 1 7.75527 1.47607 8.66394
494 1 5.21395 2.26009 5.59757
495 1 6.0115 2.75416 3.16564
496 1 3.59332 2.91318 8.43084
497 1 3.4871 9.14519 0.247779
498 1 7.65024 0.366066 8.53122
499 1 4.22348 0.364411 2.02598
500 1 4.80171 5.84406 1.18795
501 1 4.39062 8.0992 4.2426
502 1 1.97933 5.06887 3.79863
503 1 4.98077 6.52617 2.95219
504 1 6.63775 2.50399 0.462726
505 1 9.38064 6.54036 1.84475
506 1 1.0065 9.20286 5.64325
507 1 8.61222 8.7524 7.76197
508 1 6.22516 8.94932 3.30969
509 1 0.205216 7.43652 7.75954
510 1 8.47362 0.530386 3.89527
511 1 6.43353 6.45861 5.27901
512 1 0.932562 4.96692 3.93715
513 1 1.3333 7.49339 5.30042
514 1 8.1936 7.39818 6.20816
515 1 7.54805 5.7545 5.06872
516 1 3.48709 7.07975 4.20217
517 1 7.92054 2.30764 7.92737
518 1 3.36359 2.07006 9.01231
519 1 0.742881 4.20148 2.96727
520 1 5.11691 1.88219 9.31527
521 1 7.43743 8.89189 5.25002
522 1 3.3822 4.66146 5.91241
523 1 2.31355 3.52669 5.12213
524 1 0.564582 3.13464 8.59048
525 1 6.96283 1.70138 1.15289
526 1 2.47572 3.70251 9.13995
527 1 4.38204 7.15694 4.73424
528 1 6.74476 5.74274 6.09397
529 1 4.53262 3.01172 6.88486
530 1 6.68354 7.88507 9.15187
531 1 7.88814 6.37068 0.41575
532 1 5.35636 6.99309 1.03895
533 1 8.91657 9.10399 8.67692
534 1 4.33412 6.79148 1.08101
535 1 7.64064 0.500538 4.57447
536 1 2.62529 3.58143 3.46865
537 1 1.59337 2.16141 8.89261
538 1 3.19001 9.19754 5.88956
539 1 3.94838 3.83927 5.44084
540 1 1.65932 3.19596 8.51002
541 1 0.852522 2.32974 1.44397
542 1 8.41157 5.30394 1.20957
543 1 0.666222 8.79729 6.50156
544 1 3.76948 1.2538 4.48414
545 1 6.9359 4.86984 3.78297
546 1 3.07966 5.63288 6.42504
547 1 9.00231 8.54501 6.43729
548 1 7.27521 8.17251 6.13477
549 1 3.44957 0.824172 6.15985
550 1 8.62658 7.55642 3.39417
551 1 3.58444 3.82491 9.03954
552 1 0.0889828 2.14093 8.33389
553 1 4.24802 0.933264 5.38495
554 1 2.52655 3.15843 7.06991
555 1 2.44499 2.82001 2.50517
556 1 2.0207 3.00634 0.444668
557 1 8.95243 4.65911 5.06218
558 1 4.79961 3.59765 5.9765
559 1 5.59887 4.64981 3.7363
560 1 2.19627 4.2023 4.27464
561 1 1.41416 6.58895 4.12635
562 1 8.57605 4.95836 7.63026
563 1 2.44025 6.98271 0.514955
564 1 5.61721 8.0004 5.59231
565 1 8.26123 1.50207 5.52288
566 1 2.4196 5.29858 2.63201
567 1 9.05734 7.57883 6.91152
568 1 2.50014 5.94188 0.516698
569 1 8.59178 3.82488 1.85154
570 1 1.04569 6.16375 1.35847
571 1 8.36965 5.52112 9.37685
572 1 5.22977 4.67077 2.69505
573 1 7.74066 2.07817 2.21512
574 1 1.85946 1.19442 3.85644
575 1 4.65168 4.59599 0.884505
576 1 5.52752 4.23112 6.28336
577 1 7.18284 7.78985 1.35408
578 1 4.2869 2.24597 7.49612
579 1 9.00973 1.44142 3.93655
580 1 1.76689 1.73649 5.40558
581 1 0.400221 1.11614 5.30901
582 1 4.29289 0.219949 9.27228
583 1 2.74511 7.89994 0.934833
584 1 0.360679 1.83579 0.681505
585 1 8.17273 5.94155 7.41207
586 1 7.04352 1.67751 0.0896358
587 1 3.76191 1.1756 1.42361
588 1 9.22663 1.66289 9.20127
589 1 1.47428 2.92381 5.24018
590 1 2.05845 5.66752 6.85089
591 1 2.05625 0.215668 3.32417
592 1 0.149378 4.52172 2.20903
593 1 0.338689 4.57477 9.14551
594 1 4.90757 3.03854 4.94816
595 1 6.15507 4.32206 0.724177
596 1 0.911128 1.53544 6.16912
597 1 0.986235 7.73749 7.0577
598 1 9.03244 2.74549 6.71167
599 1 1.86509 1.88098 3.02009
600 1 5.28538 2.24316 2.44996
601 1 9.08791 7.97783 1.07154
602 1 5.31314 4.88265 7.50896
603 1 7.63208 9.18308 6.57904
604 1 6.28862 8.73861 7.48527
605 1 3.8333 4.97953 8.36102
606 1 8.22719 7.095 5.23057
607 1 2.26015 8.54601 0.0376687
608 1 1.92643 6.51468 9.15045
609 1 2.34441 0.645976 8.50656
610 1 4.01916 9.31114 6.64823
611 1 0.0141013 5.45969 1.44946
612 1 2.48658 7.51566 7.82078
613 1 5.45321 8.70353 1.056
614 1 1.05375 8.50085 7.92071
615 1 9.25974 5.87241 3.89652
616 1 8.25527 6.31986 1.51423
617 1 1.61245 3.14175 3.16579
618 1 6.87097 6.20507 4.25447
619 1 3.20269 4.08462 0.572176
620 1 8.24468 5.64963 4.31139
621 1 6.56907 0.0968451 6.9282
622 1 5.57585 2.71642 4.10392
623 1 4.4518 1.9301 5.05214
624 1 6.66465 6.41356 3.29023
625 1 3.63647 4.16037 1.48027
626 1 7.83547 3.77641 3.26303
627 1 8.34377 9.15644 4.94434
628 1 1.0539 4.91361 0.465822
629 1 9.19234 8.19928 0.0433798
630 1 3.19793 1.0495 8.2078
631 1 3.69239 6.49387 5.1374
632 1 8.06941 8.14491 6.93507
633 1 8.62589 8.51988 3.90793
634 1 5.63156 0.432128 0.958592
635 1 4.76633 0.597695 8.50949
636 1 -0.024358 3.46553 2.50623
637 1 4.66434 4.58869 5.48287
638 1 2.23085 5.76358 5.82486
639 1 1.06889 4.08039 8.4538
640 1 6.13378 6.69925 8.30262
641 1 2.0085 7.60299 6.89135
642 1 0.192936 1.44123 3.0832
643 1 2.46705 2.29775 3.88561
644 1 1.19494 1.04876 2.98864
645 1 4.53384 2.9479 0.995163
646 1 5.18137 6.47928 7.64599
647 1 5.72482 9.08187 6.32636
648 1 5.25711 3.66026 4.19793
649 1 7.72416 5.50586 6.34954
650 1 5.2864 5.3042 5.95366
651 1 7.51255 5.09682 1.7432
652 1 7.26672 7.88811 4.94961
653 1 8.1961 8.06868 0.412752
654 1 6.11744 8.06789 2.65631
655 1 5.70621 4.99093 0.0589656
656 1 3.03903 1.21107 0.559417
657 1 6.26828 8.06741 6.68058
658 1 9.10241 6.98763 6.00294
659 1 7.23915 3.75782 6.88088
660 1 3.45219 2.76048 7.33005
661 1 1.08345 0.624913 1.86998
662 1 3.25411 8.68524 6.97904
663 1 2.85632 9.00975 8.67796
664 1 6.98922 1.31444 4.21345
665 1 4.73231 7.97404 9.09354
666 1 7.54893 0.751847 3.44448
667 1 7.97495 0.0960306 2.79466
668 1 4.98304 4.28707 9.32618
669 1 8.89008 4.88026 4.06356
670 1 5.26078 1.25956 5.18548
671 1 0.669593 7.37141 4.55422
672 1 6.36684 4.65612 5.49465
673 1 4.39883 1.00402 6.6665
674 1 1.34799 3.894 0.117046
675 1 0.549781 8.46839 1.51425
676 1 5.96047 4.6957 8.54897
677 1 7.71137 6.54146 8.33529
678 1 9.09561 1.80857 4.96541
679 1 3.78305 1.76313 5.98394
680 1 0.425677 6.39036 8.23943
681 1 4.38819 0.467923 3.09611
682 1 5.75435 5.99442 4.63084
683 1 6.14896 1.58864 3.10614
684 1 6.22909 8.70142 8.67568
685 1 6.34958 5.09842 7.54204
686 1 1.65284 8.62149 7.03455
687 1 4.32882 5.50704 6.7636
688 1 9.04701 3.56084 5.53751
689 1 8.89123 9.1969 3.21137
690 1 8.25575 7.83187 1.86063
691 1 3.16443 8.0872 9.19983
692 1 8.90534 7.18622 0.317895
693 1 2.78664 4.58646 3.31583
694 1 1.86686 5.29741 1.16899
695 1 1.47933 1.97184 7.14357
696 1 0.554124 5.62084 2.3064
697 1 8.38261 3.2695 8.14096
698 1 9.09907 2.75231 4.28144
699 1 1.19967 5.88877 6.3138
700 1 0.90396 2.28081 3.23277
701 1 9.27526 0.0243483 7.03349
702 1 8.50722 9.37287 5.92088
703 1 1.74446 0.248269 4.81901
704 1 3.85128 4.92766 4.77802
705 1 5.53553 0.522727 6.92252
706 1 1.90632 3.8579 6.67815
707 1 0.399032 5.06306 6.37261
708 1 2.96969 8.46637 2.78273
709 1 4.14923 5.00306 1.82623
710 1 4.69811 2.05455 6.53102
711 1 2.01906 2.58049 7.80765
712 1 0.619201 8.20596 5.25833
713 1 3.86666 4.73383 3.72648
714 1 3.43169 2.0653 5.03497
715 1 6.05594 5.60854 3.75385
716 1 1.00566 4.25324 6.72683
717 1 2.95947 4.70157 9.00975
718 1 3.6697 8.33135 1.02878
719 1 0.526816 0.499277 6.2447
720 1 5.61158 3.75227 8.60766
721 1 3.17438 6.71991 1.84194
722 1 3.29466 6.3292 0.902536
723 1 5.73025 3.28528 6.77826
724 1 1.71857 6.06974 3.3161
725 1 0.26889 8.25083 4.18019
726 1 1.42868 0.763579 5.609
727 1 6.76994 4.98517 0.0162141
728 1 8.54886 2.64376 5.65304
729 1 8.48072 2.7753 2.10317
730 1 0.829979 7.74925 0.730534
731 1 0.656054 5.59218 8.88714
732 1 5.90636 5.74645 2.69947
733 1 1.48336 5.06647 4.72253
734 1 0.558771 3.23939 3.31662
735 1 7.89729 7.01133 7.26369
736 1 3.50207 0.100248 1.21211
737 1 4.24329 4.21476 2.48172
738 1 2.24134 0.176235 0.0642072
739 1 2.42158 2.47579 5.09426
740 1 0.160953 6.77566 2.84226
741 1 6.5232 2.22567 3.95852
742 1 8.1886 2.4027 4.73044
743 1 8.07476 1.34313 7.4719
744 1 4.40178 2.79626 2.08937
745 1 3.01234 3.05404 0.468679
746 1 5.33733 2.94729 1.62601
747 1 1.18409 0.452695 0.142151
748 1 4.28157 7.20612 6.75844
749 1 6.9993 9.29356 9.21484
750 1 7.21109 9.02288 1.77655
751 1 3.69092 7.9995 4.93979
752 1 6.76233 1.46524 2.24998
753 1 5.36484 2.5651 7.41838
754 1 0.853036 2.53236 7.76105
755 1 4.0348 6.26566 3.37316
756 1 4.19347 4.70832 7.43689
757 1 8.55531 7.68842 7.79358
758 1 4.69734 1.11279 4.14847
759 1 7.11773 2.95897 4.51538
760 1 4.00542 2.65291 0.123145
761 1 3.19283 6.67279 9.28933
762 1 8.33422 8.13657 8.72786
763 1 6.85781 6.77059 8.98148
764 1 1.85692 0.0562184 7.62138
765 1 2.4146 8.57392 7.81176
766 1 8.81223 3.6001 0.79194
767 1 4.27549 4.46556 6.4424
768 1 6.8195 3.91095 2.9057
769 1 6.60344 5.46397 4.91836
770 1 0.295512 6.60131 9.25065
771 1 1.23402 1.13623 1.01557
772 1 1.1789 1.17891 4.6778
773 1 3.31303 6.0083 4.27338
774 1 6.38321 3.0852 7.62086
775 1 5.89186 4.97505 1.96225
776 1 6.1976 2.12408 8.87081
777 1 4.90455 7.16936 5.70505
778 1 1.47097 2.04882 0.51663
779 1 4.54261 2.10907 3.99256
780 1 8.7637 0.896436 1.91731
781 1 2.84197 5.6603 1.61544
782 1 0.856202 8.09672 9.0999
783 1 8.79124 5.51416 6.45642
784 1 0.327476 0.709324 4.39987
785 1 7.28752 8.80507 2.98526
786 1 1.21221 0.300863 3.8852
787 1 3.59204 7.36486 0.732841
788 1 9.06823 2.04777 1.38546
789 1 7.59497 9.0578 7.62598
790 1 0.27307 3.5005 0.0617684
791 1 6.80524 0.921946 8.86354
792 1 0.993507 5.20919 7.18767
793 1 5.79241 0.821426 8.61647
794 1 1.18817 6.83331 0.54515
795 1 3.6888 3.45858 6.49753
796 1 6.55923 4.2299 1.67813
797 1 0.524003 4.10467 0.842803
798 1 2.52326 2.0363 6.98557
799 1 2.30026 1.00233 2.57181
800 1 8.14195 8.74365 1.2434
801 2 1.87602 0.276454 2.39979
802 2 0.885131 1.1555 3.76597
803 2 2.56337 0.739859 6.18053
804 2 5.27963 9.24022 0.381548
805 2 5.78937 1.52616 2.30682
806 2 0.111893 5.17467 4.57564
807 2 8.6896 8.27994 4.71313
808 2 1.41118 6.99405 6.95721
809 2 9.23247 2.82576 8.97328
810 2 2.80431 7.99818 7.11146
811 2 4.74386 5.22457 4.95859
812 2 9.35179 5.96205 2.98932
813 2 8.50749 4.06134 3.99991
814 2 1.71322 2.94518 6.85867
815 2 8.40399 3.41339 2.7013
816 2 8.0206 8.97107 8.43777
817 2 6.36624 1.46323 8.27187
818 2 2.43369 3.96175 7.34245
819 2 3.31978 3.58841 7.33915
820 2 1.66856 7.96319 7.60557
821 2 9.32673 9.26972 7.90329
822 2 0.332194 7.48073 0.0386711
823 2 3.40096 8.86304 5.13483
824 2 2.63933 7.10781 1.37646
825 2 5.62618 7.40021 8.07725
826 2 8.52384 2.85319 7.39346
827 2 0.022825 3.85269 1.61379
828 2 8.91326 7.88419 5.90478
829 2 0.441404 7.33308 5.44014
830 2 3.94217 2.48487 6.57499
831 2 8.82051 7.12888 1.3843
832 2 7.77771 7.55761 2.57426
833 2 3.73595 0.573913 0.524291
834 2 1.9541 0.943878 1.76329
835 2 1.26701 4.45642 7.56584
836 2 4.14805 3.92317 7.06236
837 2 9.23175 5.80092 9.27306
838 2 8.19602 0.937317 6.23982
839 2 5.90639 5.96226 6.34788
840 2 5.98056 5.63609 5.48974
841 2 8.4961 2.1606 3.92216
842 2 5.46111 3.2853 7.91189
843 2 3.21867 0.162262 6.81306
844 2 2.71803 0.438042 0.761973
845 2 1.10306 6.31409 9.194
846 2 1.73273 1.28597 8.58346
847 2 8.24652 6.3192 4.86493
848 2 6.40832 6.06519 1.322
849 2 3.32882 0.300188 2.00868
850 2 9.23522 7.52497 4.01828
851 2 1.84831 2.21694 1.52114
852 2 3.81704 3.54688 2.11487
853 2 8.26247 4.09159 5.57229
854 2 7.82407 8.72749 2.27807
855 2 4.9263 8.78027 4.57955
856 2 5.50677 7.85807 1.24913
857 2 -0.0338368 9.26524 6.10776
858 2 5.21524 0.888682 7.85972
859 2 5.72179 7.12295 5.86689
860 2 7.81411 8.57226 4.51408
861 2 4.56565 6.35324 7.01493
862 2 1.34054 7.4403 6.19311
863 2 7.33436 3.86412 4.91421
864 2 7.80805 3.73943 0.403072
865 2 2.79271 6.38321 5.04339
866 2 5.47545 8.86773 2.75968
867 2 7.55958 8.06303 9.18065
868 2 1.48143 8.98009 3.44759
869 2 0.888299 7.76513 8.21594
870 2 4.31442 6.0987 2.58111
871 2 4.17338 0.444732 4.53848
872 2 1.90898 3.99398 5.84013
873 2 4.71967 2.95717 4.13261
874 2 5.64958 6.31114 3.4813
875 2 4.22559 4.32225 8.73449
876 2 7.56447 0.504478 7.63185
877 2 6.08832 0.240686 1.71946
878 2 5.63163 4.18292 7.87678
879 2 1.6113 5.71015 7.54782
880 2 2.73966 5.12387 7.07283
881 2 4.43956 7.85858 6.11571
882 2 2.26021 7.79269 5.03323
883 2 7.13593 5.13864 5.59077
884 2 1.13317 8.2292 4.59193
885 2 4.62838 1.57932 5.78344
886 2 4.57204 2.13296 0.60988
887 2 8.03421 8.61266 6.1096
888 2 8.07982 4.52945 1.36953
889 2 2.37134 4.42817 2.49154
890 2 7.38283 5.41175 4.2739
891 2 0.874426 1.8665 2.51975
892 2 4.9099 0.0313862 6.74904
893 2 1.21464 3.05248 9.23185
894 2 3.3173 5.0253 1.4881
895 2 8.49273 3.19533 4.93597
896 2 8.17477 3.90911 8.57077
897 2 5.35276 7.68467 0.368528
898 2 1.3056 7.9208 1.68957
899 2 0.346249 3.48161 4.07879
900 2 2.71634 1.36465 9.1199
901 2 5.38237 2.15757 3.37229
902 2 3.11822 2.78375 3.40571
903 2 6.24906 1.58851 4.70559
904 2 0.739415 7.45973 2.61165
905 2 0.958051 0.395679 4.97641
906 2 1.43477 6.83865 1.71095
907 2 9.16826 4.22497 0.263306
908 2 6.94071 3.48245 1.85225
909 2 5.29909 2.13003 4.77988
910 2 3.29497 1.14891 5.37859
911 2 7.40709 7.42402 5.668
912 2 6.23087 9.39786 4.88254
913 2 4.10856 6.30972 4.38046
914 2 8.05409 6.54414 6.43951
915 2 4.3799 8.33899 3.39798
916 2 1.0877 3.52202 2.59672
917 2 3.97102 8.12085 0.176494
918 2 2.85204 2.60075 7.9357
919 2 1.6715 7.78583 3.01979
920 2 6.78097 5.53076 6.94536
921 2 8.07927 8.65046 3.27214
922 2 7.54196 1.14376 5.09213
923 2 6.55326 7.51121 2.03687
924 2 5.0109 2.90019 0.154048
925 2 6.3239 8.50908 5.89114
926 2 5.19927 2.69747 6.37508
927 2 3.90371 0.249947 5.74089
928 2 3.25247 4.12975 3.92664
929 2 1.56828 4.94062 6.58972
930 2 2.33027 3.86516 0.559284
931 2 8.72329 8.77282 0.51067
932 2 5.83619 3.2121 4.75926
933 2 1.42114 4.94108 9.00633
934 2 5.76404 4.02372 0.0140968
935 2 3.10994 5.41202 8.3798
936 2 1.87845 1.9758 6.36009
937 2 1.99564 6.80844 8.28319
938 2 5.46735 0.845451 3.78868
939 2 8.62451 0.363925 1.29933
940 2 3.67339 6.16311 5.92001
941 2 6.96575 4.54417 7.37364
942 2 1.64698 2.42714 3.66461
943 2 9.21407 5.32385 5.71792
944 2 2.81795 7.37456 3.81424
945 2 1.17241 6.6762 4.99007
946 2 7.17686 2.61462 7.40098
947 2 3.07491 7.79988 6.01795
948 2 6.78544 1.04894 3.04887
949 2 3.03135 1.60376 1.36776
950 2 0.00355476 3.84026 8.76966
951 2 2.7467 8.0343 8.41447
952 2 6.21721 1.82994 0.753252
953 2 4.71874 3.96589 4.79644
954 2 0.0190117 2.62289 5.13067
955 2 5.92009 2.49644 8.13302
956 2 5.42087 2.03471 1.43421
957 2 4.72366 4.88325 3.5034
958 2 6.75456 8.16361 3.27752
959 2 6.99098 0.116289 3.34232
960 2 5.97368 4.16804 2.43101
961 2 7.83338 8.21853 7.80779
962 2 5.72286 8.0089 7.30233
963 2 0.208203 6.53888 7.44189
964 2 5.67121 6.52813 9.0158
965 2 2.71828 6.25001 6.78732
966 2 7.71006 1.48906 0.619615
967 2 8.23691 4.90786 4.73349
968 2 6.88751 4.65871 2.38202
969 2 6.75891 5.58594 3.23277
970 2 6.39863 4.19481 3.62051
971 2 8.31596 1.57419 1.62679
972 2 3.60586 5.52997 3.63839
973 2 4.17458 6.6389 8.70879
974 2 5.62264 6.46444 2.45203
975 2 0.268717 1.62975 7.55206
976 2 8.42261 8.93717 6.96704
977 2 6.67524 1.93516 6.23127
978 2 3.77423 9.08021 7.51818
979 2 4.98398 4.74124 6.75059
980 2 0.732249 5.59338 7.935
981 2 6.9089 8.71088 6.88089
982 2 6.43453 8.68875 0.267867
983 2 0.715878 9.24543 1.9236
984 2 4.99945 4.7569 1.85432
985 2 6.2289 8.6272 4.14773
986 2 0.487608 8.54237 0.540724
987 2 8.61818 2.80924 1.29038
988 2 3.65 7.84475 6.69053
989 2 6.69788 0.687498 6.13125
990 2 4.35025 3.28148 2.87906
991 2 7.8018 0.180622 1.81949
992 2 5.27047 5.50775 4.15174
993 2 1.38721 5.69914 4.03844
994 2 4.21376 5.49084 8.95411
995 2 3.71127 4.95893 6.70499
996 2 2.0079 1.1094 4.82334
997 2 8.34766 7.20986 8.47663
998 2 8.92796 8.49613 1.79631