#bin. KALJ data file T=0.5

1000 atoms
2 atom types

0 9.4 xlo xhi
0 9.4 ylo yhi
0 9.4 zlo zhi

Masses

1 1.0
2 1.0

Atoms

1 1 0.519448 3.95185 8.20226
2 1 7.40253 3.29853 8.38025
3 1 2.31659 4.68418 2.67672
4 1 7.78037 7.41542 8.69471
5 1 2.78422 9.28054 4.88803
6 1 6.24818 9.31032 7.31676
7 1 0.0977958 8.72673 8.95696
8 1 4.17927 2.26573 4.77862
9 1 3.30632 3.4055 5.99229
10 1 0.0269958 7.47282 7.80882
11 1 7.1083 9.26341 8.0537
12 1 8.22473 1.18441 2.3106
13 1 0.628211 2.95319 1.41995
14 1 3.5661 4.97075 2.75445
15 1 8.76958 2.67017 -0.00598217
16 1 3.11107 0.923102 6.54409
17 1 0.299187 4.19672 9.25363
18 1 8.26414 6.17016 1.65917
19 1 4.12596 3.38023 7.79677
20 1 6.74482 5.91403 7.6215
21 1 9.3699 3.19963 3.52366
22 1 3.45258 1.56088 5.7449
23 1 5.87177 3.98817 7.19446
24 1 3.70747 0.200588 8.35701
25 1 6.80226 9.37265 6.36822
26 1 8.97019 5.97617 3.19343
27 1 8.32031 8.32812 9.00322
28 1 4.01961 3.86891 5.25248
29 1 0.933896 1.19889 6.61007
30 1 0.818648 1.42644 2.98437
31 1 2.103 5.00662 1.59607
32 1 5.00084 8.75468 5.36703
33 1 1.13379 1.55161 8.5052
34 1 5.50942 8.76672 2.96211
35 1 8.50801 1.10506 3.30496
36 1 1.77208 1.33391 2.5379
37 1 6.09944 1.47382 1.55216
38 1 0.786055 8.18433 3.98451
39 1 2.55037 8.40266 5.24846
40 1 0.340162 2.19805 8.1433
41 1 7.91649 6.89983 6.54102
42 1 2.65934 7.57081 6.12133
43 1 1.97294 1.75513 0.967532
44 1 3.7961 3.73067 4.17357
45 1 5.46368 1.05937 8.06204
46 1 1.50237 5.55478 4.01918
47 1 2.55343 7.22793 8.35224
48 1 5.65913 4.84981 2.78428
49 1 3.29458 3.66657 7.23847
50 1 2.40589 0.888316 3.26224
51 1 2.62529 5.81573 4.36562
52 1 5.15324 1.48172 9.09008
53 1 6.06975 3.20036 4.10003
54 1 8.1934 6.18989 8.76295
55 1 1.28401 3.61571 5.38338
56 1 2.46256 4.00281 6.772
57 1 1.32839 0.385668 7.11126
58 1 6.77943 8.97098 0.607391
59 1 9.028 9.40538 3.32845
60 1 1.82501 5.59545 0.736958
61 1 4.83291 5.03808 1.78829
62 1 8.94229 0.236403 1.08336
63 1 4.85319 5.9851 8.90263
64 1 6.43129 6.28538 9.32886
65 1 6.39548 3.73619 6.33353
66 1 4.20905 4.32029 6.81683
67 1 3.59898 9.11132 2.43948
68 1 3.1951 7.04411 9.31035
69 1 2.69221 5.08219 0.742699
70 1 1.36333 4.4696 4.24203
71 1 8.59888 4.54373 9.07954
72 1 6.09462 8.35814 6.79615
73 1 1.85971 8.41902 0.171948
74 1 7.12416 7.71946 6.69465
75 1 9.33732 1.05229 6.83221
76 1 7.06869 2.22012 0.26192
77 1 2.38935 3.10773 5.05067
78 1 1.86057 7.00447 1.6235
79 1 6.1571 0.16932 2.69361
80 1 8.4731 6.95697 4.4457
81 1 3.49314 1.19601 3.29444
82 1 7.24589 1.91346 4.69899
83 1 3.19212 8.90988 4.05636
84 1 1.5413 6.98763 8.62628
85 1 2.22143 2.68192 0.367155
86 1 5.63002 5.54933 0.368412
87 1 6.95689 3.11446 4.58438
88 1 0.8523 7.85696 8.53734
89 1 0.355115 4.0366 2.70227
90 1 6.60914 6.94526 3.81813
91 1 1.21106 6.67092 6.55662
92 1 0.0423729 8.51085 7.8887
93 1 1.09731 8.90489 2.26225
94 1 8.8511 7.64715 1.2184
95 1 4.61299 5.21834 2.72977
96 1 4.31586 8.97111 9.20535
97 1 2.90139 4.1335 1.27392
98 1 7.04129 0.080205 2.18482
99 1 2.33256 0.536459 5.74682
100 1 4.52265 1.45192 5.41878
101 1 3.42648 6.16455 1.98257
102 1 6.69443 0.275758 9.18992
103 1 0.751247 1.22455 1.94473
104 1 2.00068 9.12842 7.79368
105 1 7.5415 8.68399 6.38293
106 1 5.14069 2.25952 4.35627
107 1 7.97729 8.7758 2.29021
108 1 7.41202 9.16545 5.43273
109 1 6.8843 3.55532 2.34295
110 1 0.69712 5.78218 6.7102
111 1 2.49546 7.95891 7.59646
112 1 5.5752 2.10498 3.40868
113 1 1.31814 5.36171 8.71995
114 1 3.37265 6.28434 3.78175
115 1 5.22613 0.575017 6.55968
116 1 4.8394 6.15728 7.15456
117 1 7.1617 5.09282 8.4405
118 1 8.21865 1.55804 8.56075
119 1 9.16655 6.59674 1.22633
120 1 5.88552 7.62104 4.38286
121 1 5.26951 6.81435 5.69854
122 1 8.56381 0.562598 8.87476
123 1 1.03296 2.6678 3.93154
124 1 2.37789 7.92807 1.24161
125 1 7.00179 3.39794 3.50662
126 1 0.746043 5.10679 7.77668
127 1 2.34688 7.43843 5.08469
128 1 4.90615 0.154586 0.449701
129 1 3.11313 5.17472 1.72046
130 1 3.15229 4.30446 8.74814
131 1 8.85007 1.29014 4.23445
132 1 6.05693 5.53177 4.17452
133 1 8.00533 7.09485 1.29614
134 1 4.50911 1.97103 6.38482
135 1 6.144 0.812652 6.06322
136 1 0.866799 0.0822353 9.10892
137 1 2.9288 5.71583 8.90952
138 1 4.86575 4.2414 7.64052
139 1 1.45606 8.24845 5.00548
140 1 1.44377 4.13877 6.36315
141 1 3.82196 8.16267 6.33925
142 1 1.40268 3.30536 8.11271
143 1 4.64883 7.05535 7.75778
144 1 9.16108 4.20496 7.2288
145 1 5.82165 5.59542 7.22342
146 1 6.95148 0.205915 3.39965
147 1 1.48276 8.18523 7.57548
148 1 6.06324 2.85396 7.00574
149 1 9.12208 7.37926 2.41723
150 1 4.86749 8.34617 6.31703
151 1 0.842749 7.27399 5.74223
152 1 5.26252 8.08912 1.19809
153 1 0.139584 5.65601 0.685081
154 1 5.62503 4.60345 8.26544
155 1 7.50489 7.4144 4.6182
156 1 4.25259 0.746741 1.94846
157 1 7.82552 0.301586 6.3992
158 1 4.14775 0.824203 6.20776
159 1 8.21219 7.75537 3.82506
160 1 7.67544 0.644033 7.49513
161 1 8.01991 4.51093 0.553963
162 1 8.98513 1.59953 9.3249
163 1 8.16098 3.23372 7.43304
164 1 5.95073 7.82122 3.39128
165 1 8.01465 7.61313 0.333247
166 1 9.25089 5.58428 6.12632
167 1 3.51277 7.68114 1.08079
168 1 5.95536 3.44622 8.82975
169 1 4.66288 5.64369 5.43839
170 1 2.87309 8.91363 8.25063
171 1 8.90689 2.50683 2.68296
172 1 4.3489 1.81946 1.21764
173 1 6.17698 6.3322 0.972715
174 1 2.75117 3.82455 4.29926
175 1 4.4148 8.29709 0.665156
176 1 0.414061 0.205041 6.43412
177 1 2.20605 0.0356805 3.77725
178 1 8.61005 6.88299 7.35036
179 1 4.97648 6.93245 1.07329
180 1 3.04523 0.172097 7.4849
181 1 9.0775 5.55269 1.66246
182 1 6.27953 2.74429 0.740359
183 1 3.96295 8.01345 9.10422
184 1 2.13281 1.48932 8.53318
185 1 9.22993 4.81585 8.16138
186 1 9.19564 7.20494 5.28539
187 1 3.80823 2.73682 1.43012
188 1 1.65983 5.98932 1.87582
189 1 1.67486 2.83142 5.9591
190 1 8.53099 4.28087 4.98007
191 1 5.15788 3.96752 6.42917
192 1 8.30153 5.75888 6.80493
193 1 3.57124 7.0967 6.11989
194 1 4.22494 2.66373 8.59398
195 1 7.94951 0.276054 2.79343
196 1 3.05381 0.659605 4.21024
197 1 2.33163 4.75181 4.43073
198 1 2.45201 3.30239 7.66647
199 1 1.81689 5.56289 4.94964
200 1 4.21138 0.168964 5.17539
201 1 7.22133 6.4735 8.39147
202 1 0.506585 2.82305 5.35606
203 1 1.79943 5.89788 6.94276
204 1 5.83424 4.28317 5.62578
205 1 8.60894 5.99031 7.86102
206 1 0.193547 2.22407 3.392
207 1 6.47311 1.92987 6.80004
208 1 7.3417 5.2749 5.35847
209 1 6.1392 1.67905 0.51508
210 1 1.28664 4.23737 9.02309
211 1 2.38301 2.55117 3.04507
212 1 6.31236 8.78328 1.95871
213 1 3.16506 1.19669 8.70686
214 1 7.20278 3.91113 0.733157
215 1 1.38322 6.65924 4.86783
216 1 4.16656 3.21618 6.70996
217 1 6.95009 0.738126 1.41329
218 1 3.82117 3.70303 1.12413
219 1 5.55619 4.38627 9.30757
220 1 9.2257 3.66185 1.87711
221 1 9.26766 0.0580577 7.26703
222 1 4.76379 3.82858 1.61364
223 1 1.99483 8.86408 1.63892
224 1 5.93477 5.15962 1.77826
225 1 2.79363 5.28457 5.21734
226 1 9.12867 7.18785 0.286676
227 1 5.15269 0.24369 2.45401
228 1 6.13561 3.82971 0.484035
229 1 1.72357 1.6578 5.72135
230 1 3.47461 1.12277 1.50815
231 1 0.403095 4.67027 6.58623
232 1 4.90381 5.31606 8.04066
233 1 9.07 8.05714 6.98173
234 1 0.678929 1.48478 0.0653515
235 1 6.49823 4.85717 4.88459
236 1 2.91413 0.0613195 9.09732
237 1 7.30966 1.67466 7.41824
238 1 5.21272 6.99554 8.63426
239 1 2.68135 6.7169 6.75203
240 1 5.74265 9.06085 6.12356
241 1 5.28723 5.91561 1.31281
242 1 6.98577 2.7673 6.36156
243 1 3.24464 8.56021 1.40894
244 1 7.93643 1.67105 0.265226
245 1 7.3519 2.64824 2.77515
246 1 0.989458 5.44005 1.40462
247 1 8.26052 3.10457 3.21163
248 1 8.04855 7.14164 5.41857
249 1 9.26809 5.37573 7.19724
250 1 3.32207 8.38037 3.13178
251 1 0.266972 1.23168 5.7644
252 1 4.83911 4.26317 2.6021
253 1 0.62545 5.29998 5.5332
254 1 9.02821 1.90032 5.14976
255 1 6.70578 7.76237 8.15476
256 1 0.31157 5.79744 8.34469
257 1 3.02748 8.00615 8.67968
258 1 4.33461 1.71526 3.9075
259 1 4.10837 5.2944 7.3802
260 1 4.80897 1.2965 7.12668
261 1 5.57971 3.18785 1.44803
262 1 3.50477 2.22572 3.26913
263 1 8.09065 3.34386 5.20543
264 1 7.08751 5.30686 4.15875
265 1 6.51694 4.94627 3.31223
266 1 8.00246 6.1266 5.04543
267 1 2.40306 1.18996 1.76306
268 1 5.25636 2.70564 6.46615
269 1 1.46648 4.48498 8.04677
270 1 6.95277 8.4692 7.38352
271 1 0.164222 0.199664 8.36737
272 1 7.12858 3.48779 5.53754
273 1 7.57307 4.53949 3.67908
274 1 5.70328 6.64035 7.66616
275 1 4.19412 6.20722 8.10892
276 1 8.28817 6.67736 2.65762
277 1 6.17239 3.95779 2.946
278 1 2.61248 2.98215 6.58942
279 1 1.48041 0.329161 2.96113
280 1 5.42114 3.09897 0.267446
281 1 4.84055 7.76349 4.6153
282 1 5.03769 0.668535 3.53063
283 1 8.81388 8.60941 4.04765
284 1 6.12181 7.42256 6.30032
285 1 5.12544 5.09723 3.69861
286 1 0.0224293 9.06124 5.71309
287 1 4.38894 8.14447 7.38425
288 1 0.607397 0.299791 1.47711
289 1 5.94876 1.61854 4.26906
290 1 1.68066 8.01386 5.94708
291 1 3.54474 8.91933 5.52373
292 1 1.45199 5.17952 6.21718
293 1 3.25471 0.176833 3.28728
294 1 1.0235 4.98398 0.425529
295 1 6.97363 4.59262 6.92018
296 1 5.40108 6.57498 0.251176
297 1 2.34094 3.79437 0.461118
298 1 2.93933 6.5639 5.05864
299 1 4.34 6.69214 3.78253
300 1 6.6529 4.57878 2.29136
301 1 8.66408 9.03228 6.62964
302 1 8.383 0.356395 4.06791
303 1 1.93361 8.15615 8.52388
304 1 5.19574 3.02898 3.52249
305 1 2.98604 2.03775 1.62963
306 1 0.798244 9.04888 3.27681
307 1 5.51333 1.26673 2.66791
308 1 5.26007 0.452079 5.41002
309 1 0.87312 3.98684 7.252
310 1 2.69741 2.30765 5.76363
311 1 8.4644 8.68119 1.35863
312 1 0.629773 5.72751 2.41735
313 1 7.70203 1.38509 1.34928
314 1 4.48868 4.3974 8.62116
315 1 3.26337 4.74973 7.1033
316 1 1.62934 3.46421 4.38551
317 1 8.82294 1.80332 7.5632
318 1 0.0882585 5.20988 9.1795
319 1 3.57868 9.34685 6.54995
320 1 5.97018 9.1529 3.74861
321 1 3.47122 4.73197 4.29444
322 1 1.8457 9.23668 8.84872
323 1 5.23553 8.46311 3.86655
324 1 5.44656 4.63405 0.982966
325 1 6.49246 4.54281 1.1656
326 1 1.89555 9.06058 5.59819
327 1 4.36992 8.55565 1.67509
328 1 3.67356 1.54069 0.457775
329 1 8.29353 3.33965 2.12127
330 1 3.53151 9.04123 0.487364
331 1 4.22407 0.963339 7.91065
332 1 2.0894 2.69018 8.61224
333 1 6.50582 5.69123 2.50173
334 1 4.03207 5.20458 6.31174
335 1 6.46748 2.63727 2.06598
336 1 9.24631 4.47056 5.72924
337 1 3.70069 7.46532 7.90929
338 1 7.9221 2.34618 7.9087
339 1 9.14711 5.17946 4.77851
340 1 8.68068 8.18275 3.06171
341 1 7.74411 9.22598 8.99661
342 1 4.61154 5.99681 0.490312
343 1 2.12613 4.22532 3.57837
344 1 4.12674 0.535358 4.08763
345 1 5.6624 6.05333 5.04645
346 1 7.88461 2.45267 0.884762
347 1 4.62439 3.03485 0.863949
348 1 8.17682 5.12644 8.42005
349 1 6.69255 4.24171 8.81258
350 1 3.91431 6.14428 4.74297
351 1 7.5098 4.18059 1.70177
352 1 3.914 0.541009 9.40756
353 1 8.84013 2.9352 1.04296
354 1 1.38623 0.609122 8.23413
355 1 8.41163 6.46268 0.550547
356 1 3.77541 4.34608 7.91801
357 1 7.76565 8.68613 0.4646
358 1 6.73776 7.48859 2.86327
359 1 3.27109 2.82661 8.33217
360 1 3.00501 4.19455 5.22786
361 1 3.39698 3.349 3.04169
362 1 5.26402 3.24534 2.50352
363 1 7.01741 4.76327 0.222641
364 1 2.632 2.1242 7.9432
365 1 0.446529 3.15635 0.288675
366 1 7.01828 7.26751 5.81284
367 1 1.27823 4.5041 1.23336
368 1 2.05668 8.45318 4.22696
369 1 6.4185 4.93678 7.6859
370 1 5.72273 9.06039 1.04034
371 1 1.68762 4.60588 5.29751
372 1 2.65346 4.34701 7.78408
373 1 7.0091 7.05909 0.773837
374 1 6.8891 6.0001 3.40139
375 1 4.70788 6.71452 4.82127
376 1 1.5914 0.86744 9.29903
377 1 1.75897 6.38813 0.0327826
378 1 5.40341 2.20342 1.15326
379 1 8.68934 4.78794 6.52935
380 1 7.49519 4.9706 2.67672
381 1 2.10708 0.692741 0.938051
382 1 7.5461 7.0835 3.41678
383 1 0.192825 7.12412 6.77777
384 1 4.4492 8.58752 2.74992
385 1 4.7769 7.97757 8.42756
386 1 0.692203 1.56948 4.08144
387 1 9.28128 0.500841 4.99295
388 1 8.85297 2.35333 8.49103
389 1 6.13529 3.37881 5.27242
390 1 3.09042 6.70076 2.75447
391 1 4.56729 2.14766 0.292986
392 1 7.61359 2.62263 3.87093
393 1 0.459715 6.85294 8.49264
394 1 8.5664 3.98383 1.2454
395 1 0.204409 9.11904 4.30907
396 1 3.12633 2.95859 3.93678
397 1 3.8787 3.60958 8.76665
398 1 8.38278 5.52334 2.46309
399 1 7.73491 3.88355 2.78167
400 1 8.20191 7.68766 2.13589
401 1 3.0244 1.21054 7.67308
402 1 8.81256 9.31948 2.23391
403 1 1.28975 4.80089 2.2389
404 1 6.36706 6.46974 5.89298
405 1 3.46414 2.66985 7.31306
406 1 5.29126 1.08928 0.687292
407 1 7.02436 1.23106 0.545558
408 1 0.895042 3.79074 1.93186
409 1 4.66414 3.24707 4.46703
410 1 0.727696 1.8754 5.04969
411 1 6.08444 0.933552 3.45498
412 1 8.17316 2.39896 4.77733
413 1 1.35547 9.31335 0.718108
414 1 7.46367 1.58694 6.37422
415 1 0.0685815 1.13541 0.892878
416 1 7.30244 1.76316 2.20561
417 1 9.10944 6.16347 5.02103
418 1 4.19831 0.322995 3.01589
419 1 7.35794 1.11904 3.01954
420 1 0.856227 0.744336 4.75683
421 1 6.73427 5.99335 5.04543
422 1 6.2152 2.39808 4.92666
423 1 0.407515 2.90915 2.41257
424 1 5.87405 8.76188 4.78759
425 1 1.38726 2.66014 4.97152
426 1 6.76573 0.824481 8.05721
427 1 7.7104 5.19971 7.48633
428 1 2.78051 8.56938 6.35344
429 1 4.86597 7.77578 2.14649
430 1 4.91214 9.31982 4.44301
431 1 8.55926 1.67601 6.12421
432 1 4.56191 9.29978 6.15071
433 1 4.35368 7.30902 6.71625
434 1 5.92448 7.27746 1.31732
435 1 2.14738 2.35902 2.02026
436 1 8.73036 9.18649 0.119806
437 1 7.46815 7.9919 1.23753
438 1 8.53396 9.09762 8.23868
439 1 4.19936 7.08775 2.77856
440 1 6.55338 3.47837 1.40363
441 1 4.10146 2.79777 3.79231
442 1 5.46313 1.60283 6.32359
443 1 4.09977 7.11511 1.81685
444 1 8.61239 6.3976 5.89352
445 1 4.15658 1.4452 8.95192
446 1 7.97328 4.28099 5.89974
447 1 3.17363 4.22045 3.43705
448 1 6.28245 7.45615 7.28547
449 1 0.6524 7.97804 0.253938
450 1 3.40528 4.09172 0.355984
451 1 6.74852 8.629 8.86186
452 1 5.34991 6.88749 6.76038
453 1 4.37804 7.81262 3.5369
454 1 6.43734 6.95558 4.898
455 1 7.57824 5.18205 6.38249
456 1 7.47075 6.32667 4.2199
457 1 4.94537 0.193613 1.48168
458 1 2.1978 7.18658 2.57962
459 1 9.13885 6.36169 2.26453
460 1 6.23664 1.80029 7.90248
461 1 8.64202 4.40258 2.31732
462 1 3.22793 0.717028 2.44524
463 1 3.15997 2.38285 0.681952
464 1 9.03188 2.91502 6.849
465 1 0.74885 8.83459 7.22204
466 1 6.58134 1.03899 2.3593
467 1 4.93986 3.44486 8.46789
468 1 7.49112 0.641572 4.59957
469 1 9.26644 4.21366 4.28948
470 1 1.51504 2.04055 6.8078
471 1 5.21065 8.96426 7.05055
472 1 5.97622 4.79959 6.54242
473 1 8.44868 3.37974 8.59457
474 1 2.98972 7.22274 1.90281
475 1 3.622 1.92707 8.16986
476 1 -0.00468752 1.25699 8.43164
477 1 9.30988 7.77131 8.76841
478 1 0.952052 9.18368 5.17493
479 1 1.58575 3.18519 2.32475
480 1 8.06811 7.99517 6.89835
481 1 3.70618 7.95928 2.20534
482 1 6.0531 6.51171 3.05453
483 1 4.73093 5.06875 -0.0251251
484 1 7.8355 2.5073 8.94443
485 1 6.25845 5.16038 9.03976
486 1 0.765187 3.88974 3.66834
487 1 0.695817 5.91388 4.64025
488 1 8.05872 5.07174 4.43685
489 1 0.097756 8.77558 1.5522
490 1 7.51319 6.01572 2.45979
491 1 7.10295 8.10613 2.13272
492 1 1.11759 8.41543 1.19852
493 1 7.51146 6.69885 9.384
494 1 5.70145 4.1022 4.58782
495 1 3.10822 2.81562 2.22763
496 1 4.34056 3.55418 3.11415
497 1 9.04054 8.19642 0.333063
498 1 7.04838 1.95164 8.55427
499 1 3.44982 3.10346 4.95607
500 1 6.62162 5.45379 0.76131
501 1 6.6455 5.61421 6.55773
502 1 1.34972 2.38779 2.8299
503 1 3.79329 7.23636 4.46661
504 1 5.31267 6.77444 2.10546
505 1 8.35103 4.2186 7.97978
506 1 2.31849 5.89947 5.99632
507 1 7.55181 7.46027 7.58673
508 1 3.95891 5.99533 2.94309
509 1 1.70126 1.92729 9.37321
510 1 5.54911 2.24151 2.34685
511 1 5.41086 2.13439 7.35112
512 1 8.20715 4.94938 1.55383
513 1 1.721 8.58518 3.09692
514 1 0.565316 5.8061 3.46555
515 1 8.49988 7.91168 4.92195
516 1 2.43669 7.73764 3.37608
517 1 -0.0200874 2.03467 1.73341
518 1 0.611928 3.01463 7.45328
519 1 2.42321 4.74878 6.12347
520 1 3.75909 1.70563 7.10633
521 1 0.784429 2.86287 6.43339
522 1 5.89136 8.4827 7.85002
523 1 1.5506 7.98686 2.24141
524 1 0.632608 0.97454 7.61917
525 1 0.105333 3.12728 8.73153
526 1 5.82627 2.75238 8.05955
527 1 5.75395 0.542969 4.4498
528 1 6.19144 5.39643 5.68934
529 1 6.84214 4.54703 5.83113
530 1 7.56986 8.14329 5.42791
531 1 7.40913 8.9885 1.45019
532 1 2.64916 6.16999 0.379267
533 1 5.15263 7.12307 3.11103
534 1 6.61674 8.5854 3.01934
535 1 7.88189 9.01858 7.30373
536 1 8.87445 6.9924 3.44251
537 1 1.45678 3.45549 1.026
538 1 3.02119 7.90479 4.32059
539 1 3.37971 0.525571 5.55213
540 1 0.997402 2.56858 8.92027
541 1 6.56282 1.88074 2.93881
542 1 0.403223 4.07554 0.993956
543 1 3.2842 8.59619 7.22756
544 1 9.22899 7.69834 4.11877
545 1 8.45607 5.22787 5.54723
546 1 1.26189 6.05742 5.68273
547 1 0.832445 7.89393 6.78564
548 1 8.71284 7.39172 6.22232
549 1 0.415807 1.98188 7.15051
550 1 8.49266 8.39094 5.82027
551 1 6.85579 3.29613 9.32518
552 1 1.15438 1.13819 0.961974
553 1 2.4078 0.0546992 6.65663
554 1 0.961199 4.83268 3.22392
555 1 6.87996 1.18267 3.94452
556 1 1.69119 1.56437 4.68233
557 1 0.230162 4.67632 1.88111
558 1 8.71055 4.10634 3.36582
559 1 1.64585 7.44611 0.682896
560 1 2.09206 2.4724 4.21251
561 1 0.626759 4.3666 4.99863
562 1 1.8939 0.533963 4.83924
563 1 5.13797 6.10482 3.36307
564 1 7.13457 0.767226 5.73141
565 1 7.83851 3.28892 6.27061
566 1 2.51164 9.19164 2.78329
567 1 0.0901003 6.33036 7.46123
568 1 4.34763 4.53336 0.781699
569 1 7.40611 2.93246 1.73799
570 1 7.17168 5.21627 1.67416
571 1 2.69453 5.58975 7.62573
572 1 2.71831 0.23919 1.78148
573 1 8.70192 2.71933 5.90284
574 1 4.6868 2.75122 1.8399
575 1 8.70909 3.20469 4.3409
576 1 4.66619 4.57246 5.7141
577 1 3.87815 8.52509 8.2341
578 1 4.14948 8.5534 4.72344
579 1 0.0854129 8.038 6.03048
580 1 1.66385 7.42333 4.25268
581 1 0.957778 8.68281 6.14946
582 1 6.44118 3.57961 8.02799
583 1 8.70157 1.80369 0.991092
584 1 1.47568 4.03579 2.83668
585 1 2.48175 9.10588 0.769691
586 1 5.72596 4.09344 1.97211
587 1 5.27237 8.74733 1.99839
588 1 8.54486 5.55542 0.0922306
589 1 4.31118 4.49346 3.51776
590 1 5.82384 5.65744 8.2807
591 1 4.20363 7.03298 8.74734
592 1 7.64466 4.17329 8.97639
593 1 0.127391 2.51975 4.40982
594 1 4.64094 2.30199 2.84097
595 1 6.25314 2.36559 9.05062
596 1 0.831083 5.95599 0.0506632
597 1 6.19708 2.90176 3.06072
598 1 8.8558 0.520484 6.08234
599 1 1.76617 3.22499 3.43529
600 1 2.92246 8.14297 0.393401
601 1 7.53993 0.86469 8.99041
602 1 3.41975 4.4095 6.12851
603 1 0.620684 3.41288 4.50757
604 1 4.73317 0.506523 8.76884
605 1 1.52968 2.29058 7.84658
606 1 0.712467 7.41806 4.70641
607 1 1.66773 3.15722 6.9937
608 1 8.84862 6.93054 8.42352
609 1 1.56736 0.494843 1.91754
610 1 4.38163 0.270782 7.12867
611 1 3.94782 3.41866 2.19453
612 1 0.108268 2.20728 0.601693
613 1 6.41444 8.11546 1.10453
614 1 8.04378 1.45014 5.26409
615 1 0.350395 9.00344 0.562069
616 1 9.17848 3.33828 7.81298
617 1 3.16127 4.13345 2.31804
618 1 7.38809 6.27738 5.8438
619 1 5.17268 3.23213 7.34704
620 1 2.01126 4.74641 0.100797
621 1 6.59482 1.0294 4.93473
622 1 5.44914 5.78037 2.41718
623 1 1.33904 7.54804 3.26982
624 1 6.69459 8.07489 4.83901
625 1 5.96888 0.088237 8.33912
626 1 7.41657 4.32717 4.81796
627 1 0.186242 6.60743 4.15659
628 1 1.55249 5.62312 2.84684
629 1 7.55404 8.37825 8.21763
630 1 0.452251 0.3554 2.51256
631 1 0.405857 6.69373 3.00228
632 1 4.77525 1.85448 8.17162
633 1 2.56207 6.95794 4.14039
634 1 4.89687 1.0489 4.56788
635 1 4.11125 8.86754 3.63182
636 1 6.1286 7.28488 0.192024
637 1 5.07415 3.57002 5.43181
638 1 8.52874 7.91145 7.92951
639 1 6.63459 4.18732 4.07396
640 1 7.95129 4.14495 7.00822
641 1 8.63011 0.780456 7.83098
642 1 4.56693 1.23949 2.79675
643 1 5.30184 8.92266 8.93379
644 1 2.74246 1.7161 3.75125
645 1 3.91605 4.50228 1.82033
646 1 6.2978 6.87542 8.4534
647 1 6.96276 7.83632 3.88283
648 1 6.65144 2.29777 3.87988
649 1 9.41162 5.06602 2.8714
650 1 6.2501 1.32707 8.92517
651 1 7.28153 4.17517 7.99385
652 1 5.42662 5.01019 4.93132
653 1 5.81272 7.82768 8.71312
654 1 7.7703 5.59281 0.788587
655 1 2.06435 6.70656 7.56875
656 1 2.43133 3.54454 2.61746
657 1 3.43731 7.79871 5.27637
658 1 1.01007 8.86609 8.22819
659 1 1.53195 3.32667 9.35641
660 1 2.24786 3.79793 5.78119
661 1 2.61562 3.12243 1.24665
662 1 1.93811 7.48234 6.84898
663 1 0.796954 6.98529 0.0440593
664 1 0.0396702 0.605253 0.0201587
665 1 3.62083 5.2286 0.267065
666 1 8.86012 5.11343 3.75481
667 1 2.28669 7.44146 9.30002
668 1 4.38635 6.4453 6.10503
669 1 6.11789 2.55712 5.91699
670 1 6.57824 8.41776 5.7867
671 1 0.0842508 8.34105 4.94509
672 1 6.33653 6.74512 1.99932
673 1 4.54367 7.59957 5.6011
674 1 2.31429 5.05857 8.40595
675 1 0.255573 7.78312 3.21235
676 1 2.58876 5.64358 2.5778
677 1 4.95222 5.10109 6.81494
678 1 8.19036 2.16991 1.90375
679 1 4.45445 2.42416 7.32319
680 1 2.04966 6.04941 8.42667
681 1 5.64545 7.87052 5.44186
682 1 4.61644 3.86384 0.0788159
683 1 6.21457 0.552945 0.665773
684 1 5.91761 0.489534 1.68537
685 1 8.79454 3.73878 6.33408
686 1 3.28639 7.56215 7.0401
687 1 5.47239 5.90376 6.27111
688 1 7.01192 7.88384 0.139414
689 1 8.31477 1.1008 6.90371
690 1 7.21319 6.25953 1.40994
691 1 2.65706 8.24543 2.2525
692 1 0.186962 2.14952 6.08959
693 1 1.20679 6.59554 3.76262
694 1 0.62518 7.30493 1.03143
695 1 1.70327 8.70394 6.76137
696 1 7.73489 6.32485 7.44555
697 1 3.7091 6.65035 7.21678
698 1 8.00096 2.33706 6.83121
699 1 1.09193 7.1707 7.57466
700 1 7.50644 0.37002 0.553769
701 1 7.75811 8.41085 4.42922
702 1 1.26952 0.5635 5.8224
703 1 3.17123 0.61615 0.675913
704 1 4.89973 5.8105 4.4096
705 1 5.94938 1.05578 7.13586
706 1 3.34133 5.8794 6.71289
707 1 3.58071 2.47155 6.28685
708 1 4.23257 0.781239 0.917964
709 1 3.82675 3.01527 0.238246
710 1 3.5409 5.97173 5.71582
711 1 5.69877 0.493236 9.21463
712 1 0.710448 6.82166 1.93569
713 1 3.82906 4.96197 5.23804
714 1 6.43101 0.0670404 5.26804
715 1 5.61243 6.60037 4.14407
716 1 2.03187 1.08193 6.55023
717 1 1.88485 6.94372 5.86176
718 1 7.35837 5.7608 9.13016
719 1 3.69493 1.25773 4.76442
720 1 6.92045 6.68428 6.88309
721 1 3.66137 6.54137 0.985666
722 1 5.33172 7.85336 7.16064
723 1 2.86171 2.15823 9.02903
724 1 1.18467 2.40051 0.680741
725 1 8.25407 0.455304 5.18974
726 1 5.24805 2.53546 8.87013
727 1 6.81576 2.68306 7.68303
728 1 9.18904 3.59985 5.25388
729 1 1.684 1.7489 3.61541
730 1 4.79112 9.23353 7.9662
731 1 2.94737 3.24382 9.13783
732 1 3.76844 6.21209 9.22646
733 1 3.38741 7.3262 3.48301
734 1 3.7592 0.0287877 1.46447
735 1 1.36678 6.66659 2.73171
736 1 2.73895 7.02122 0.906292
737 1 2.51442 5.99929 1.38627
738 1 1.16989 6.13097 7.73916
739 1 2.01187 1.27011 7.55578
740 1 4.00711 5.41048 1.23227
741 1 8.64213 8.9431 4.99905
742 1 3.85452 1.91323 2.26114
743 1 5.82186 8.32709 0.229139
744 1 5.28671 4.0283 3.56634
745 1 2.04196 3.95523 1.76657
746 1 7.69143 2.32919 5.66058
747 1 0.462909 0.605724 3.52776
748 1 5.00229 7.58918 0.051573
749 1 7.59305 8.19881 3.05798
750 1 7.80029 9.06973 3.67756
751 1 1.953 4.86611 7.17963
752 1 7.83625 3.29109 0.254504
753 1 6.88115 0.86696 6.84543
754 1 7.99439 1.9662 3.01733
755 1 5.9311 7.87518 2.16811
756 1 2.18635 3.86642 8.61155
757 1 7.86142 5.61477 3.4386
758 1 7.75762 3.64465 4.14769
759 1 8.88535 3.67516 0.2395
760 1 4.07432 5.47792 3.84538
761 1 9.16784 0.832526 1.87782
762 1 6.90895 2.06356 1.2619
763 1 9.02061 4.73404 0.673374
764 1 3.21485 6.42648 8.18818
765 1 1.13143 6.34947 0.974091
766 1 0.500178 3.81395 6.06035
767 1 4.23791 2.93006 5.62746
768 1 7.00723 3.51746 7.11525
769 1 3.92934 5.31142 8.68189
770 1 0.118446 8.58406 2.50407
771 1 8.41761 0.788015 0.493947
772 1 6.8247 8.94797 4.26182
773 1 4.43663 5.98552 1.93442
774 1 2.56065 1.35075 0.121676
775 1 4.11447 7.2438 0.395818
776 1 0.525519 5.05512 4.11648
777 1 4.67609 4.27108 4.54319
778 1 1.43735 0.872396 3.914
779 1 5.06217 1.26732 1.70434
780 1 6.74406 1.78737 5.60564
781 1 2.29189 6.25545 3.41733
782 1 2.43621 0.582147 8.33276
783 1 3.00302 2.19862 4.75907
784 1 1.26911 9.13751 4.13076
785 1 7.41408 7.02482 2.22517
786 1 2.84813 1.68114 2.58399
787 1 8.53574 5.97583 4.11611
788 1 8.66424 2.29856 3.82811
789 1 7.84935 1.52487 4.03429
790 1 9.25035 1.47123 2.69773
791 1 8.03287 0.407736 1.67383
792 1 2.67879 1.93749 6.76489
793 1 5.16466 2.45333 5.4444
794 1 9.25563 6.26871 9.22591
795 1 2.83303 5.16622 3.56753
796 1 0.266807 6.47158 5.94274
797 1 1.12855 2.099 1.70226
798 1 2.61825 1.33844 5.10349
799 1 5.61061 1.42991 5.25427
800 1 0.549567 7.86867 1.8848
801 2 9.28466 2.52833 7.54025
802 2 8.96501 2.71577 5.03184
803 2 2.83259 1.42997 0.918839
804 2 4.26678 8.44518 5.61551
805 2 5.04316 7.93859 3.02754
806 2 1.95941 7.02136 3.51104
807 2 0.918545 4.55457 5.83219
808 2 0.58215 1.96737 2.45611
809 2 3.4281 5.61058 4.43171
810 2 1.94417 9.05477 4.77708
811 2 3.25618 8.54638 4.81694
812 2 7.48026 5.98598 6.66392
813 2 6.90965 7.37997 1.62176
814 2 7.9658 0.346183 8.19935
815 2 3.58283 0.135297 4.63266
816 2 2.84337 7.00908 7.53226
817 2 7.4724 0.895321 2.12981
818 2 3.93457 5.35104 2.06337
819 2 3.76752 0.836744 7.18046
820 2 3.25892 5.05178 8.09904
821 2 2.63109 1.49489 5.95057
822 2 0.0726284 7.27527 1.65227
823 2 4.02889 4.55591 9.35107
824 2 8.53459 1.03076 1.29066
825 2 7.28473 1.89122 3.42461
826 2 3.49624 4.67766 1.0275
827 2 0.591295 1.77871 1.09388
828 2 8.10676 6.81696 8.0715
829 2 1.66561 5.47325 7.91855
830 2 7.14678 0.0292381 7.15426
831 2 7.14879 2.95081 0.845979
832 2 6.64516 5.75948 8.54015
833 2 2.21619 2.55816 7.25724
834 2 2.78439 4.86288 9.16548
835 2 6.98393 7.17868 8.82675
836 2 2.1717 0.300719 0.216794
837 2 0.186569 3.54653 6.87334
838 2 0.429719 0.366198 5.63883
839 2 5.656 4.74246 7.38413
840 2 7.95312 3.35328 1.13787
841 2 7.35348 6.73967 5.11188
842 2 0.358733 6.13508 1.66504
843 2 3.84762 9.24109 7.59301
844 2 1.94801 6.6339 0.821866
845 2 1.21535 1.64112 7.49935
846 2 3.53043 5.82343 7.64685
847 2 7.83326 5.02231 9.20361
848 2 8.37947 6.89852 9.19711
849 2 8.62062 8.6394 7.513
850 2 8.84671 1.0712 5.48301
851 2 3.10094 3.31846 0.579254
852 2 8.63891 5.58499 0.969419
853 2 6.03869 3.37192 2.23409
854 2 2.26405 0.599607 2.43509
855 2 4.57736 6.67441 9.38364
856 2 7.70738 9.23254 4.53526
857 2 4.84838 5.31205 0.908767
858 2 1.12557 4.97871 7.00175
859 2 0.732266 0.885114 8.79786
860 2 3.92535 6.79896 5.3027
861 2 4.46526 5.13096 4.76744
862 2 0.709506 0.126182 7.73579
863 2 5.05945 8.71891 0.329125
864 2 0.630064 4.73787 8.62518
865 2 6.88065 2.67698 5.3659
866 2 3.7116 2.24402 9.10343
867 2 0.165016 1.28593 4.71195
868 2 8.98824 4.04219 8.48489
869 2 2.49467 8.60757 9.01438
870 2 4.59914 2.99014 9.33289
871 2 6.61258 6.2242 4.22768
872 2 3.84209 2.69403 2.69692
873 2 6.77941 6.8977 7.70089
874 2 9.24355 0.508265 4.11552
875 2 8.022 5.78403 5.92505
876 2 0.876209 8.10383 5.56434
877 2 8.92423 3.58237 2.76223
878 2 3.20512 3.48128 1.73829
879 2 1.03939 3.89363 0.380301
880 2 2.57804 3.52567 3.50626
881 2 3.09566 7.59859 2.72189
882 2 0.944342 8.21341 2.9075
883 2 6.26056 8.33075 4.04384
884 2 9.38071 5.78123 4.02175
885 2 5.36203 5.17228 5.75895
886 2 5.49775 0.267158 7.69347
887 2 1.51409 -0.00170918 6.36313
888 2 6.56613 9.36768 1.34769
889 2 8.89017 5.65273 8.67108
890 2 8.3815 9.01534 2.93888
891 2 5.85827 5.51879 3.26184
892 2 2.13766 4.4034 1.00413
893 2 5.0849 8.48566 7.78901
894 2 4.4705 7.74227 1.28419
895 2 4.36547 3.74507 6.02741
896 2 7.70639 5.77842 8.17513
897 2 5.62552 3.3765 6.05082
898 2 9.01556 8.14854 1.8961
899 2 1.94098 6.34132 4.24627
900 2 5.85038 4.70255 3.91595
901 2 8.05317 1.04594 6.01322
902 2 7.35172 9.05276 2.91359
903 2 0.100556 8.51944 3.52281
904 2 2.23162 0.480833 7.46373
905 2 3.0576 3.67718 8.14125
906 2 4.34548 9.11117 0.970112
907 2 1.83326 3.9238 7.41541
908 2 4.65769 0.943401 0.124922
909 2 9.00349 2.01461 6.77115
910 2 5.54491 3.71309 7.95759
911 2 5.24173 7.42866 3.89762
912 2 0.86202 7.44201 2.56087
913 2 7.413 4.75465 1.03511
914 2 5.72155 6.3077 8.85356
915 2 0.678868 7.31112 3.76129
916 2 2.17813 6.36522 5.23174
917 2 2.56964 8.65754 3.45712
918 2 5.47033 2.92448 4.7407
919 2 7.69634 0.680488 3.68188
920 2 2.1148 5.60353 9.27567
921 2 0.0598421 3.08111 6.1224
922 2 0.182126 2.2336 8.98582
923 2 0.366065 4.91486 1.01455
924 2 1.76728 2.62402 1.30814
925 2 2.83965 9.26056 5.81235
926 2 3.52838 1.87995 4.09034
927 2 1.04876 2.25873 5.85876
928 2 0.856309 3.47131 8.91428
929 2 6.6156 2.93401 8.51782
930 2 2.44582 8.75353 7.21128
931 2 0.690052 7.9157 7.69688
932 2 0.267496 6.57131 0.539815
933 2 7.02813 4.23784 3.08933
934 2 5.49517 7.5235 7.9323
935 2 5.03939 6.29696 8.10393
936 2 0.884232 3.20693 3.04913
937 2 1.0821 6.28978 8.59238
938 2 0.119313 8.7107 6.61343
939 2 8.96827 6.37968 6.74698
940 2 8.26262 9.21418 5.85044
941 2 3.67372 2.37583 5.47202
942 2 6.59275 0.418919 4.32044
943 2 5.07361 3.75121 0.866231
944 2 8.3102 7.45599 3.01613
945 2 5.56748 7.08951 4.94778
946 2 1.57745 1.38325 1.64268
947 2 2.49922 6.58264 8.99879
948 2 4.76655 6.39501 2.6043
949 2 3.17164 5.70384 0.9957
950 2 2.32294 1.12171 4.30104
951 2 6.90702 6.62469 2.82932
952 2 7.85792 7.63 6.10358
953 2 1.49514 7.43426 5.29229
954 2 1.1585 8.56972 9.13224
955 2 3.76025 8.15012 4.1044
956 2 3.47547 8.75007 8.97469
957 2 9.38687 1.37587 3.53277
958 2 4.81078 2.69573 7.99701
959 2 1.30106 7.64806 1.47185
960 2 6.14378 4.74272 0.398566
961 2 1.80946 7.5095 7.92312
962 2 2.1602 2.20417 5.08269
963 2 4.67494 1.89401 2.07054
964 2 6.02461 6.36922 6.92182
965 2 4.44547 9.31079 2.10069
966 2 8.19196 9.32576 0.937653
967 2 4.90838 9.23902 3.56107
968 2 2.11042 3.97987 4.87261
969 2 0.420239 6.58149 5.05651
970 2 5.62015 1.8622 8.51515
971 2 5.39746 2.21476 0.259183
972 2 3.18021 5.30016 6.06009
973 2 2.36945 6.37923 2.20387
974 2 3.90948 4.19111 2.76673
975 2 1.40931 7.64547 9.22369
976 2 7.95741 1.35622 7.80509
977 2 4.24803 8.76296 6.75144
978 2 8.22794 6.46548 3.45006
979 2 8.53868 4.97428 7.4951
980 2 0.146285 4.38065 3.50642
981 2 8.39027 4.26017 4.09979
982 2 6.61037 3.99953 4.99838
983 2 8.3997 0.271555 7.15825
984 2 6.38696 5.90453 1.66033
985 2 7.14235 6.14247 0.54209
986 2 8.61806 6.93484 1.83834
987 2 6.00259 9.2006 0.182019
988 2 9.10166 2.83255 1.91307
989 2 0.271014 8.14137 1.0434
990 2 0.90492 0.629378 0.345795
991 2 2.5094 5.35852 6.7307
992 2 5.2255 7.58077 6.19633
993 2 1.091 5.07179 4.84332
994 2 1.95708 5.06231 3.38557
995 2 5.3708 5.28093 8.87918
996 2 2.86647 6.46828 5.99854
997 2 5.19178 1.44324 3.85013
998 2 9.06137 0.632577 2.75235