#bin. KALJ data file T=0.5

1000 atoms
2 atom types

0 9.4 xlo xhi
0 9.4 ylo yhi
0 9.4 zlo zhi

Masses

1 1.0
2 1.0

Atoms

1 1 4.89154 6.7128 3.48966
2 1 2.96949 4.78969 0.713621
3 1 3.29977 2.13311 5.05575
4 1 2.11926 4.22452 0.558226
5 1 2.41101 1.46043 4.39558
6 1 4.25696 7.17887 4.48256
7 1 5.5633 5.88475 5.12806
8 1 0.639352 2.31135 6.59043
9 1 8.79341 4.61379 4.94885
10 1 0.755204 3.88785 8.62999
11 1 5.33503 0.444297 5.27738
12 1 7.33868 1.00285 0.28999
13 1 0.0224227 8.85143 4.56514
14 1 4.12603 4.84707 8.29201
15 1 0.992186 8.4367 8.88405
16 1 0.684415 9.24638 7.4569
17 1 6.77977 3.27503 1.56604
18 1 3.93964 8.40423 6.25366
19 1 4.54524 6.74447 9.4197
20 1 7.24251 3.57613 8.81594
21 1 7.01725 3.84875 7.75262
22 1 8.50747 2.30243 8.63352
23 1 8.4535 1.26491 8.53326
24 1 8.14371 5.58732 7.41592
25 1 7.31612 0.322988 2.98431
26 1 4.54743 1.05269 4.97232
27 1 2.29662 0.711142 5.19412
28 1 5.02556 0.607456 1.30597
29 1 9.26656 2.86809 2.58381
30 1 9.01806 3.89963 3.94458
31 1 1.89693 3.06659 0.71845
32 1 4.21467 4.99407 5.72126
33 1 5.74045 0.08793 0.180818
34 1 5.17938 0.862707 2.29553
35 1 2.2274 4.59391 4.6373
36 1 4.77736 0.116689 2.98696
37 1 5.92471 5.25992 9.06538
38 1 1.07616 0.431061 0.502557
39 1 7.13043 8.17918 1.66013
40 1 2.04272 8.99168 8.65088
41 1 5.73882 0.413724 7.8157
42 1 2.09808 0.443239 2.5602
43 1 5.0254 8.9026 7.65796
44 1 3.12182 0.165225 5.16423
45 1 1.75349 8.27188 4.35129
46 1 1.04559 5.39427 2.46177
47 1 0.953869 0.355502 2.09892
48 1 4.84964 7.77213 3.62194
49 1 1.92568 4.1886 5.60176
50 1 6.95951 3.57037 4.30348
51 1 7.9224 5.30485 3.28864
52 1 5.92798 8.25027 3.12441
53 1 2.39653 9.26 5.94177
54 1 8.27508 0.0292853 7.22321
55 1 1.28985 4.64301 4.03035
56 1 1.46265 7.22644 4.13724
57 1 3.30314 6.51681 6.22924
58 1 5.28358 5.78742 2.71535
59 1 7.38765 8.67777 7.20859
60 1 0.875003 0.921172 3.84802
61 1 2.32339 7.60019 0.849433
62 1 7.5262 0.408005 1.19726
63 1 7.50499 3.18679 5.11035
64 1 8.78824 8.62197 0.453411
65 1 7.73069 0.911973 3.83294
66 1 3.02795 3.90075 8.22881
67 1 7.88836 8.23687 9.30095
68 1 5.06962 6.27442 0.912992
69 1 6.09379 6.6368 0.658931
70 1 7.13707 4.73944 2.81365
71 1 7.99565 2.05167 7.11616
72 1 4.80284 3.47683 0.873772
73 1 2.37892 7.05053 4.59811
74 1 4.46015 1.69968 2.14864
75 1 5.8811 3.78773 1.17437
76 1 8.29247 7.22964 1.49709
77 1 8.26078 2.06724 3.54399
78 1 1.26036 8.32017 1.50922
79 1 6.34124 0.229552 8.69812
80 1 1.5818 0.620044 8.98494
81 1 3.40538 7.6416 7.62778
82 1 6.1859 0.847195 2.90728
83 1 3.25743 5.33268 5.81161
84 1 1.06489 3.56914 5.48631
85 1 3.63431 2.22579 8.04017
86 1 2.11768 3.57167 7.6587
87 1 3.75879 3.79366 3.84569
88 1 9.0252 1.64981 0.779379
89 1 6.25379 4.63767 4.15985
90 1 5.49474 6.82973 2.39729
91 1 9.27697 5.54827 4.15616
92 1 9.06488 9.15777 7.80861
93 1 4.15344 0.622021 6.82261
94 1 1.08779 5.60663 5.76231
95 1 7.66182 8.17403 3.68154
96 1 7.17616 6.37181 7.31252
97 1 1.80323 4.69124 1.45859
98 1 5.88416 0.151816 2.04596
99 1 6.11302 8.40724 6.47312
100 1 7.09815 8.55906 0.516883
101 1 5.21989 4.78113 8.3493
102 1 2.36208 2.73566 2.14168
103 1 4.255 8.10562 7.2209
104 1 3.31979 7.34338 3.77913
105 1 0.464823 9.15128 2.70986
106 1 9.04314 0.861878 5.58022
107 1 5.99722 6.30143 3.34775
108 1 6.543 8.41176 5.55818
109 1 8.34243 1.03469 0.139917
110 1 8.17438 4.03242 8.43046
111 1 8.78117 8.60081 5.66885
112 1 6.45884 2.22102 1.65276
113 1 3.1836 3.64222 2.08919
114 1 4.5045 4.50769 2.71109
115 1 5.58253 8.90273 5.70675
116 1 6.09547 2.28299 8.13053
117 1 8.11849 9.05309 8.21638
118 1 6.42108 3.02737 7.51457
119 1 3.87289 1.57107 6.34105
120 1 1.89672 8.7691 6.95813
121 1 3.45183 9.30553 6.29574
122 1 2.13197 7.95022 2.76249
123 1 3.56514 4.91908 6.86008
124 1 1.36861 1.08534 4.83333
125 1 5.6987 5.51102 4.09616
126 1 6.18553 3.93264 4.99041
127 1 4.89806 8.94476 4.88618
128 1 6.49207 5.67067 7.68357
129 1 0.146809 7.82241 8.55918
130 1 2.96442 1.95521 2.37037
131 1 8.26184 2.61273 0.737315
132 1 8.95988 8.54165 2.86964
133 1 5.67854 1.71296 2.74533
134 1 0.0874289 4.95466 0.481203
135 1 8.24319 6.25099 4.69359
136 1 6.50022 -0.00030713 6.04367
137 1 1.98856 5.33185 6.29646
138 1 3.75045 9.39456 0.138638
139 1 0.564921 9.31748 8.48495
140 1 8.5036 4.53338 1.82792
141 1 3.18037 0.424739 2.51289
142 1 4.65461 8.91962 9.28063
143 1 4.89836 4.46594 1.05511
144 1 1.62616 2.62283 2.99777
145 1 8.72451 4.58226 9.20237
146 1 4.76787 0.443956 0.287303
147 1 5.59824 4.91053 7.39449
148 1 2.26171 6.39782 6.37115
149 1 2.59935 9.07847 4.39412
150 1 0.551981 6.47277 4.33918
151 1 7.51858 9.34244 6.49612
152 1 5.9852 8.82475 8.02057
153 1 3.85479 5.90804 8.75269
154 1 4.6961 6.50494 1.85008
155 1 8.52178 7.31256 4.60935
156 1 6.35091 7.59068 4.65687
157 1 6.13074 3.86482 6.84664
158 1 3.46616 6.52523 0.203494
159 1 1.98612 7.44802 6.08519
160 1 0.382589 5.24626 6.42469
161 1 0.978031 1.74007 5.67977
162 1 0.954413 5.34586 9.4174
163 1 8.3072 0.793641 4.69922
164 1 1.28205 0.886046 8.02942
165 1 3.18175 5.47684 2.17473
166 1 6.37365 5.61492 2.54665
167 1 2.67578 7.0359 2.85514
168 1 6.8625 4.97688 0.300865
169 1 1.05002 5.32965 8.29048
170 1 9.38356 2.94497 4.16882
171 1 5.37805 7.26572 0.251046
172 1 0.291944 4.2308 6.73312
173 1 3.94264 4.88443 1.37896
174 1 3.75395 7.05283 8.74857
175 1 6.19932 5.61094 0.935929
176 1 3.81235 0.707028 5.65092
177 1 4.9286 8.24947 1.39437
178 1 7.10055 3.6357 3.07562
179 1 6.34984 1.80119 5.66395
180 1 1.20567 7.87281 3.32543
181 1 7.90614 5.45878 1.52162
182 1 2.61499 2.49076 4.37119
183 1 1.69828 3.41159 8.60113
184 1 6.45497 8.11974 7.33231
185 1 0.896695 8.78347 6.5102
186 1 1.77211 4.80722 3.07773
187 1 1.60058 2.08527 3.86965
188 1 1.38206 7.32686 2.30757
189 1 4.61943 7.46318 2.57625
190 1 6.35804 7.32214 2.8169
191 1 4.21299 4.11661 6.55928
192 1 0.524829 0.942617 8.95294
193 1 3.68434 0.428906 1.22329
194 1 8.6193 8.6028 3.98864
195 1 6.90517 0.613074 2.05284
196 1 0.452513 9.38108 1.12875
197 1 6.22993 4.51644 3.1145
198 1 7.76493 1.78172 9.22105
199 1 7.97111 0.620271 5.66825
200 1 2.8832 0.204725 0.572591
201 1 5.99707 2.34008 4.63947
202 1 1.57457 6.42577 4.95468
203 1 6.5574 9.25125 7.07811
204 1 6.28252 1.97362 0.519963
205 1 5.97221 0.926615 6.09581
206 1 1.41076 0.56969 5.7735
207 1 6.11928 1.5866 3.73746
208 1 0.119293 4.80133 2.28681
209 1 7.12024 7.87819 6.57741
210 1 1.51436 2.55305 6.01282
211 1 7.98297 7.23752 0.447408
212 1 6.94169 6.35633 3.00609
213 1 0.984232 5.54542 4.61363
214 1 7.85916 1.65978 0.879196
215 1 4.56776 6.26066 4.73322
216 1 7.13566 7.33674 7.74164
217 1 2.05963 0.854756 6.58792
218 1 4.25323 2.89346 3.34488
219 1 7.95786 5.2251 0.450607
220 1 0.83806 1.809 8.39311
221 1 6.75234 0.890645 7.67644
222 1 4.93942 5.47229 1.50175
223 1 3.02894 1.44381 8.42302
224 1 6.71855 5.93195 6.49378
225 1 0.48037 4.42412 7.72301
226 1 3.88417 0.152767 4.45843
227 1 7.27304 5.40986 4.48129
228 1 8.70248 1.34592 6.42951
229 1 1.47625 2.60463 9.29526
230 1 5.54223 1.90471 9.15112
231 1 4.99027 6.69672 6.63051
232 1 3.01155 3.70564 0.742448
233 1 7.31555 8.00021 2.69477
234 1 5.26871 7.27592 8.62465
235 1 5.8154 6.39654 6.12182
236 1 7.17951 5.05794 5.99856
237 1 7.70028 1.37167 2.91131
238 1 7.98868 3.90202 7.32838
239 1 4.55903 7.61686 6.29015
240 1 1.49082 1.6481 7.20514
241 1 3.51132 4.5202 2.49259
242 1 5.92748 4.57924 0.504667
243 1 0.868775 6.39724 1.53522
244 1 5.64116 5.38027 6.42184
245 1 6.545 2.76494 3.45068
246 1 9.13218 1.09038 3.73734
247 1 4.96132 3.35196 2.70755
248 1 5.09764 8.51363 6.54795
249 1 5.22083 4.86524 3.41283
250 1 4.69406 5.70929 3.73607
251 1 6.88418 2.11738 7.36443
252 1 8.93152 4.90632 3.43992
253 1 1.87279 6.83788 1.33551
254 1 6.73015 1.76037 2.62042
255 1 7.23556 4.43392 3.75246
256 1 8.39632 3.51274 0.163179
257 1 6.31894 0.0329311 5.09947
258 1 2.58327 0.334311 3.51911
259 1 3.91238 6.02645 5.50104
260 1 4.00011 4.0675 0.59221
261 1 0.270059 8.07708 0.152055
262 1 8.09895 0.604528 2.16451
263 1 8.26472 6.39151 3.01592
264 1 7.84711 5.98068 6.47843
265 1 5.51852 2.57028 3.3674
266 1 8.98087 5.76297 9.04852
267 1 5.57879 2.76035 1.32628
268 1 6.27071 1.08199 9.41955
269 1 0.203756 8.31342 1.20904
270 1 1.73197 0.328603 4.12581
271 1 3.64933 6.35387 1.93506
272 1 1.49369 4.51327 8.97331
273 1 5.87223 4.84869 1.50254
274 1 3.82263 3.98915 8.92402
275 1 5.52226 7.88595 2.19945
276 1 8.15749 8.34474 2.12921
277 1 4.87746 0.298007 4.04551
278 1 2.64024 2.48415 5.84269
279 1 0.262015 4.31513 1.26468
280 1 3.09585 1.04131 6.69801
281 1 7.28423 7.17488 1.21037
282 1 1.93361 1.70764 2.41021
283 1 9.32968 7.89885 5.20379
284 1 7.64355 6.11442 3.85441
285 1 6.64125 0.631933 3.83894
286 1 2.9382 1.41371 5.70104
287 1 4.37008 8.36453 8.21599
288 1 9.17813 7.79921 1.96058
289 1 6.09224 0.652922 0.99922
290 1 3.65379 6.52903 7.85939
291 1 5.75045 3.87669 7.81013
292 1 2.81734 5.66026 6.84716
293 1 8.6528 3.07885 3.44558
294 1 0.239115 3.23172 7.16461
295 1 6.61798 2.81273 5.44912
296 1 6.76969 6.26009 1.73747
297 1 5.87917 6.88417 5.26038
298 1 1.18962 5.07564 7.13112
299 1 2.67359 8.85408 2.65066
300 1 0.0984549 3.94448 0.089813
301 1 4.2413 0.0063202 8.40777
302 1 5.71553 0.852845 4.42956
303 1 3.45321 1.15466 4.70976
304 1 8.91991 5.81755 6.73436
305 1 3.37136 0.715247 7.69914
306 1 2.40277 7.49831 1.8992
307 1 5.84914 8.52883 4.771
308 1 1.79331 0.197639 7.52463
309 1 8.23647 6.16801 8.36565
310 1 8.57959 5.3433 2.48803
311 1 8.85852 6.69737 0.172554
312 1 6.19395 6.99059 9.09392
313 1 6.72989 5.40398 3.62014
314 1 6.27216 4.08351 2.21515
315 1 2.9367 4.00132 7.07038
316 1 8.99732 3.88926 7.58354
317 1 9.30018 6.77471 1.40402
318 1 9.04877 4.00924 2.82558
319 1 3.36695 1.19679 1.81304
320 1 4.92931 5.88345 5.92982
321 1 9.1724 3.27337 0.836769
322 1 1.74616 9.20467 5.0283
323 1 3.1348 2.96831 2.87513
324 1 1.67951 6.67514 8.34726
325 1 7.09207 6.85653 0.166802
326 1 4.19489 1.24426 3.92255
327 1 3.59415 2.05975 1.51535
328 1 7.79271 4.30787 4.73505
329 1 9.4074 0.744759 0.394492
330 1 3.2141 3.00869 8.77923
331 1 1.82608 1.18162 3.44528
332 1 2.5073 2.18952 3.39155
333 1 0.373752 3.22659 1.67727
334 1 2.50678 7.58453 7.18292
335 1 0.734262 5.45577 1.34155
336 1 4.85685 6.92216 5.4941
337 1 8.88846 0.178363 2.88579
338 1 5.54291 1.90492 6.39073
339 1 5.5488 5.79396 8.11535
340 1 2.34574 8.29905 5.1676
341 1 5.23848 7.87066 7.79347
342 1 8.9192 0.274178 8.83093
343 1 8.49285 7.36145 2.57757
344 1 1.66198 2.79739 7.04543
345 1 7.69994 8.18075 5.7563
346 1 0.733223 2.94988 0.669254
347 1 8.01012 5.05692 8.59323
348 1 6.86625 0.821668 6.67703
349 1 3.72287 2.82058 0.378275
350 1 3.21102 3.11875 5.17854
351 1 5.47462 8.34406 0.424189
352 1 4.09231 6.8409 6.90907
353 1 8.24801 5.22769 4.302
354 1 1.74703 6.73938 7.27134
355 1 0.734297 6.79113 3.30437
356 1 7.34456 3.08794 7.09174
357 1 0.312879 4.65845 4.40378
358 1 5.38154 2.90412 7.69832
359 1 2.46476 6.19337 0.556873
360 1 4.53133 1.52863 0.0816355
361 1 7.2531 0.426568 4.73218
362 1 1.30343 1.53967 9.39324
363 1 8.75731 4.29089 0.836556
364 1 9.23363 2.04331 3.39862
365 1 4.1318 5.73405 0.555452
366 1 5.52055 9.1124 1.14131
367 1 1.87573 3.95894 6.65449
368 1 1.49883 6.23511 3.83391
369 1 8.942 7.56979 0.761384
370 1 1.83439 6.92494 0.0703619
371 1 0.215359 0.0635226 3.72327
372 1 4.91726 4.20887 5.4045
373 1 6.43728 4.33323 8.49842
374 1 9.2322 0.520215 1.99082
375 1 4.48838 7.53528 0.781777
376 1 3.81732 4.97566 9.22341
377 1 3.39343 8.05735 8.56359
378 1 3.87197 7.38602 1.86901
379 1 7.39006 4.04387 2.10533
380 1 9.00729 1.83656 4.54622
381 1 4.32809 2.88925 5.17883
382 1 4.00448 8.95836 5.35317
383 1 0.835141 6.18188 8.87955
384 1 5.25969 8.73071 3.81845
385 1 5.2235 5.34977 0.512962
386 1 8.94112 6.55958 3.88449
387 1 9.41548 1.87031 2.3137
388 1 5.06057 0.894708 8.84985
389 1 6.04327 1.48669 7.29262
390 1 1.8835 5.43236 5.11641
391 1 8.51325 7.5807 3.61113
392 1 4.228 5.41637 2.20667
393 1 7.08336 8.42268 4.62434
394 1 4.95805 3.81775 3.61706
395 1 7.52669 1.5335 1.89704
396 1 4.28005 1.31919 1.13631
397 1 5.85313 3.51532 4.08561
398 1 7.91847 4.79701 6.7295
399 1 8.7923 1.24711 2.78442
400 1 0.688672 3.60613 2.80163
401 1 6.55233 5.98006 9.4033
402 1 1.55423 3.80765 3.21243
403 1 1.55492 3.38358 2.14521
404 1 4.9034 9.14989 2.03691
405 1 3.05916 4.2716 5.25801
406 1 5.44716 1.27486 0.592636
407 1 6.60883 9.21356 1.35779
408 1 2.06013 1.96055 0.486326
409 1 0.209209 3.6684 4.82593
410 1 7.15595 2.53412 0.889749
411 1 8.07493 3.24798 2.59862
412 1 2.53182 6.20427 5.37902
413 1 1.95347 9.27404 0.276035
414 1 6.1339 1.19963 1.89512
415 1 7.10482 1.04432 8.63949
416 1 0.224046 9.12557 0.10828
417 1 7.13443 1.85331 3.66751
418 1 6.49039 2.46361 6.52468
419 1 0.837905 2.49856 2.23668
420 1 0.330237 4.31677 5.7076
421 1 1.82085 7.74576 8.65616
422 1 8.3192 2.73788 4.41716
423 1 5.83662 3.58606 5.96346
424 1 3.83696 6.44615 3.71349
425 1 9.29775 1.89326 5.82152
426 1 0.37572 1.17087 6.44028
427 1 8.86169 2.58414 1.68887
428 1 2.84236 8.52544 0.755767
429 1 5.97898 1.1969 8.41303
430 1 7.89454 2.42628 1.66981
431 1 8.00924 5.24955 5.25749
432 1 1.61464 7.55753 5.15364
433 1 0.493629 1.31753 7.43823
434 1 6.84334 4.66157 5.13226
435 1 7.23413 6.77264 6.30342
436 1 8.5239 7.22828 8.09346
437 1 3.16639 6.08533 2.91765
438 1 2.16636 5.40068 2.25599
439 1 4.44664 9.09773 0.996084
440 1 3.14735 8.02937 2.35957
441 1 5.32349 2.95474 8.76501
442 1 1.84978 5.8832 9.06299
443 1 2.30908 3.65561 1.44821
444 1 5.8993 6.15443 7.06294
445 1 0.258121 4.8564 8.78147
446 1 7.08302 2.6458 8.25605
447 1 1.05628 4.39433 2.15525
448 1 0.69356 8.07624 2.34055
449 1 5.40059 7.92269 5.63649
450 1 1.9568 1.47944 8.49565
451 1 7.32631 4.82885 7.71223
452 1 8.41489 6.30036 1.07431
453 1 2.42279 1.1808 7.55246
454 1 4.08203 6.632 1.00352
455 1 0.855803 7.77055 5.9684
456 1 0.2066 6.18092 6.03257
457 1 6.60326 5.01966 6.86885
458 1 3.00794 8.53855 7.06938
459 1 8.40605 2.29628 6.19378
460 1 3.73917 2.81479 4.26934
461 1 7.1347 4.00807 6.70879
462 1 5.76959 6.05642 1.77374
463 1 1.99308 8.25856 0.0568115
464 1 9.20431 8.93134 1.92991
465 1 8.07962 6.77806 7.17679
466 1 2.5151 8.23622 7.99729
467 1 4.22564 2.96784 7.6042
468 1 8.15963 7.5012 6.42186
469 1 6.56253 6.13157 4.82057
470 1 7.00495 3.83941 5.71123
471 1 0.597215 1.86562 4.01322
472 1 0.639384 2.89745 8.58279
473 1 3.86705 4.07129 7.56301
474 1 3.87896 9.19242 7.38081
475 1 1.1127 8.66408 0.551195
476 1 8.45639 3.0494 6.88915
477 1 7.41313 9.18295 3.91854
478 1 5.39273 8.3545 8.7435
479 1 0.574737 2.39219 7.61011
480 1 1.26794 7.62694 0.5952
481 1 5.18711 1.79208 4.22111
482 1 4.71556 2.52601 0.226312
483 1 3.0279 5.70604 7.98563
484 1 3.69648 1.28859 2.85249
485 1 7.68994 7.27641 8.77753
486 1 7.23779 9.01899 8.95107
487 1 5.51655 6.57334 4.31256
488 1 8.02231 7.7755 7.40384
489 1 1.25227 1.40727 1.03118
490 1 4.2042 0.601013 2.19378
491 1 6.76258 7.78965 3.69387
492 1 3.73173 2.52943 5.97518
493 1 8.5743 1.5282 1.7152
494 1 5.37402 3.33854 5.00767
495 1 5.24678 1.05527 3.4109
496 1 3.6447 3.25469 6.73469
497 1 1.68632 2.46483 8.23423
498 1 0.34779 1.11715 1.30988
499 1 3.36219 7.53786 0.655015
500 1 5.5458 3.97185 8.90239
501 1 6.9671 6.98437 5.28657
502 1 9.28623 0.50464 7.0591
503 1 5.29804 9.35694 8.59317
504 1 6.94083 5.26688 8.65252
505 1 2.92551 5.37545 4.72975
506 1 0.558775 8.65134 5.51316
507 1 0.486904 2.1819 1.30883
508 1 6.90352 1.45467 1.1052
509 1 4.67246 0.645058 7.7922
510 1 0.814788 7.94529 4.63116
511 1 8.52762 0.225825 3.87286
512 1 4.75569 5.20867 4.88725
513 1 0.427602 7.00572 0.506856
514 1 0.806259 0.220059 4.91794
515 1 5.3349 6.88309 7.59996
516 1 2.88245 8.03358 4.40053
517 1 0.0385478 0.691972 8.07265
518 1 4.65145 3.53618 9.2894
519 1 2.19186 4.23335 2.37769
520 1 9.12614 3.63934 8.63508
521 1 7.29124 9.08243 5.48064
522 1 4.35575 7.3055 7.96954
523 1 2.84496 3.67379 4.27164
524 1 2.70904 0.137557 7.12204
525 1 7.37501 2.56889 2.61612
526 1 4.77128 4.52502 9.30786
527 1 3.74849 9.03244 2.74127
528 1 4.99203 2.87953 4.16278
529 1 2.56703 2.25943 8.95551
530 1 8.63486 0.6673 1.03686
531 1 8.31695 3.32148 5.8811
532 1 1.63149 2.27363 1.52764
533 1 0.692805 6.40671 7.74041
534 1 7.50153 6.90218 2.30959
535 1 6.39748 7.33187 1.80618
536 1 4.58426 1.91886 3.1366
537 1 2.74456 7.32824 9.21831
538 1 5.16137 1.01962 6.98149
539 1 5.75827 4.89749 5.04091
540 1 2.74425 6.38111 8.75612
541 1 3.90107 3.64643 2.8484
542 1 1.22433 4.62143 6.23371
543 1 3.68751 0.971047 0.266233
544 1 9.29392 8.85296 6.7173
545 1 0.125699 5.88265 2.0382
546 1 4.55681 7.82455 9.09797
547 1 8.08241 8.20998 4.74262
548 1 7.40303 6.05741 5.48525
549 1 4.22726 1.54596 7.38385
550 1 0.148409 5.27289 5.33844
551 1 2.98517 5.56714 9.39866
552 1 8.84136 3.59436 1.89969
553 1 4.64722 9.36015 6.11296
554 1 4.76483 3.25717 6.03239
555 1 2.88535 3.983 3.24269
556 1 2.70671 4.60099 6.1995
557 1 2.64881 7.22115 8.19039
558 1 5.41583 1.59785 5.25383
559 1 3.80106 5.52248 4.29404
560 1 1.77633 3.71883 4.36718
561 1 2.72418 3.54346 5.96787
562 1 0.121517 7.27276 7.68253
563 1 4.96513 8.50717 2.82624
564 1 6.63129 1.34899 4.63176
565 1 0.321349 0.148206 6.06114
566 1 8.90105 5.3775 1.29662
567 1 6.34064 7.01435 6.90495
568 1 1.72342 9.23065 1.26513
569 1 8.05675 2.97271 7.81401
570 1 2.97451 6.79354 1.20083
571 1 8.53555 6.00766 5.74695
572 1 4.51123 3.67605 4.55601
573 1 1.30214 3.76647 1.23799
574 1 4.30491 2.02718 4.70123
575 1 2.77732 5.06854 3.13193
576 1 6.19356 4.55438 5.97102
577 1 6.30183 8.67 9.17398
578 1 1.97624 1.58645 5.83686
579 1 7.82034 1.78985 4.45353
580 1 1.01208 0.512312 6.76405
581 1 6.91343 0.916803 5.54747
582 1 6.91607 7.85843 9.02951
583 1 0.691968 2.754 3.40682
584 1 2.80289 2.71319 1.22638
585 1 1.69358 8.45356 5.91893
586 1 6.32125 7.47765 5.97407
587 1 0.881954 1.42762 2.10566
588 1 7.46159 2.7714 6.07974
589 1 8.06997 9.06424 3.08049
590 1 0.952725 2.986 4.60173
591 1 3.84321 8.04079 3.23908
592 1 7.45291 7.31231 4.37451
593 1 8.81568 4.87915 5.9265
594 1 8.01799 4.27509 3.01878
595 1 7.99441 8.18928 1.01803
596 1 9.01003 8.16231 7.75671
597 1 9.24579 7.86955 6.25786
598 1 1.03542 3.35027 6.52163
599 1 1.54567 8.81944 2.48432
600 1 6.42779 8.52453 2.24409
601 1 2.24144 7.61988 3.68512
602 1 6.32943 5.51861 5.6132
603 1 3.9704 3.85104 5.61395
604 1 5.57395 7.61941 6.77986
605 1 0.260627 5.50925 7.4732
606 1 3.05407 1.24424 3.68564
607 1 2.51323 1.12794 9.38954
608 1 1.189 6.22024 0.521789
609 1 1.24527 3.71954 0.153255
610 1 4.66163 3.87084 8.18509
611 1 7.67509 2.74446 9.31912
612 1 8.97685 6.37407 7.67593
613 1 7.39059 9.15158 2.13657
614 1 2.91628 8.84017 9.12177
615 1 1.75965 0.937117 1.78922
616 1 0.727976 4.58134 3.13792
617 1 1.65757 5.73262 1.43252
618 1 6.81075 4.22613 1.07396
619 1 2.33765 5.04242 8.50905
620 1 9.19556 5.91802 3.01288
621 1 8.64388 0.163664 6.27994
622 1 8.33494 1.583 5.38901
623 1 5.64397 0.0868152 6.67924
624 1 7.41681 3.55663 0.52566
625 1 2.10449 5.93979 3.04538
626 1 0.700389 5.54075 3.46109
627 1 6.81986 8.77845 3.19471
628 1 1.06855 3.39423 7.72302
629 1 3.11773 4.6842 4.06805
630 1 3.08908 9.14931 8.12432
631 1 3.43174 8.13214 5.28328
632 1 1.56833 7.8348 6.95326
633 1 0.33804 6.82423 2.32398
634 1 6.18655 2.62509 2.55351
635 1 3.8104 3.20319 1.28721
636 1 8.91666 5.23987 8.15779
637 1 2.90666 4.55682 1.67322
638 1 3.38474 7.67122 6.61043
639 1 3.33154 2.26746 6.98553
640 1 6.51491 3.8954 0.0773099
641 1 1.40222 8.53867 7.94944
642 1 9.04442 2.73591 9.32398
643 1 1.05518 8.93811 4.14312
644 1 2.30642 8.4885 1.67352
645 1 3.17467 3.14092 7.66701
646 1 4.02173 5.85587 6.52346
647 1 2.36441 0.472273 8.32459
648 1 4.92799 3.69809 7.11394
649 1 2.71427 8.25213 6.10412
650 1 5.26272 3.9624 1.91309
651 1 7.28349 6.12705 0.82228
652 1 5.24388 7.55073 4.54422
653 1 7.73199 0.673163 7.88449
654 1 6.25417 7.72195 8.32077
655 1 5.40051 7.16306 1.36044
656 1 4.77342 2.00234 8.4079
657 1 6.10486 8.21322 1.32433
658 1 3.11561 8.75885 3.62279
659 1 9.4362 3.38099 6.15537
660 1 5.22125 4.37943 4.3911
661 1 3.17876 4.76108 7.80681
662 1 7.24345 6.29115 8.58061
663 1 3.75878 8.32793 0.0648149
664 1 9.29303 0.485112 4.60868
665 1 3.29765 0.565054 8.83823
666 1 0.334164 1.39567 4.98839
667 1 0.403365 0.757037 2.95368
668 1 4.31223 6.25358 2.77259
669 1 1.74916 6.91558 3.17755
670 1 4.73449 1.02118 6.01525
671 1 1.51167 6.26533 2.31745
672 1 5.28218 4.43896 6.38237
673 1 3.08798 1.77112 0.609558
674 1 8.84975 4.79611 7.17005
675 1 3.86387 8.22045 1.1308
676 1 7.9821 6.2007 -0.0143556
677 1 8.64196 7.6942 9.03109
678 1 8.54448 3.5751 4.8981
679 1 9.05086 2.02231 7.08591
680 1 9.27883 6.26146 4.97314
681 1 5.85999 7.32906 3.73976
682 1 4.2772 4.67059 3.78454
683 1 4.4759 2.40864 1.20842
684 1 7.02412 9.2663 7.98322
685 1 7.54876 8.21055 8.26938
686 1 0.755832 7.07984 6.87057
687 1 4.96124 5.736 7.18474
688 1 8.01872 3.65952 4.04204
689 1 2.09272 8.77602 3.52487
690 1 2.03482 0.764325 0.798919
691 1 4.06056 1.21994 8.44805
692 1 8.26035 9.13983 1.44994
693 1 2.11092 3.07336 5.21721
694 1 2.5439 6.4723 3.78745
695 1 2.25346 4.83162 7.17005
696 1 6.92311 5.06948 1.79041
697 1 1.58145 4.44237 7.88917
698 1 2.64971 3.01152 6.80818
699 1 0.600657 7.05533 5.26328
700 1 0.260309 8.39371 3.65616
701 1 7.65732 1.78217 8.09966
702 1 8.98291 6.95577 5.69015
703 1 8.2707 8.51437 6.67448
704 1 3.21006 5.7364 1.19683
705 1 4.4745 2.49134 6.66061
706 1 1.61377 2.20527 4.96173
707 1 7.36645 1.9149 5.44698
708 1 3.85797 8.12795 4.29299
709 1 0.947855 7.3854 9.05116
710 1 1.97945 5.30563 0.576457
711 1 3.61573 2.00453 9.11558
712 1 3.96447 4.57073 4.77946
713 1 1.02111 6.03288 6.79343
714 1 3.58079 2.20289 3.48177
715 1 3.83655 5.32382 3.14565
716 1 5.66196 2.63412 5.67466
717 1 4.71563 6.34731 8.31983
718 1 5.55061 2.95983 6.66294
719 1 0.549144 2.70737 5.55184
720 1 7.54919 5.75135 2.44049
721 1 3.31808 6.53653 4.67839
722 1 7.75404 4.34939 0.0336087
723 1 6.68108 1.90547 8.91785
724 1 2.25039 3.18531 3.55945
725 1 3.64691 7.06071 2.84065
726 1 1.2459 0.114251 3.21746
727 1 6.6932 6.68977 3.98203
728 1 9.11404 2.78282 8.02774
729 1 7.54199 2.82725 3.61086
730 1 7.74363 4.43719 1.14211
731 1 2.41945 3.40823 9.29114
732 1 7.54283 7.07982 3.37348
733 1 2.54156 6.34983 2.10265
734 1 0.744468 3.70158 3.87914
735 1 7.85136 0.859052 6.81963
736 1 6.37068 7.61975 0.48292
737 1 1.14802 4.65421 5.10839
738 1 2.62911 0.320909 1.61882
739 1 2.88549 6.67184 7.19925
740 1 0.16185 7.37042 3.98956
741 1 5.7961 9.27299 3.05955
742 1 8.95398 2.74304 5.28619
743 1 8.55259 1.17268 7.52034
744 1 4.19476 2.8308 2.26031
745 1 2.9349 4.36995 9.18902
746 1 4.22254 8.85322 3.6924
747 1 2.47076 1.56648 1.38763
748 1 4.78891 5.47012 8.9054
749 1 7.92073 0.406273 8.83893
750 1 9.24161 1.69256 8.08306
751 1 2.84496 7.23794 5.50156
752 1 6.25554 3.31072 8.56609
753 1 5.47975 6.2811 9.13186
754 1 5.16087 1.96766 7.37187
755 1 3.86777 7.20755 5.66147
756 1 4.05046 5.57202 7.57712
757 1 0.518701 8.18673 7.25893
758 1 4.17698 8.37848 2.10622
759 1 5.94461 3.56089 3.04498
760 1 5.27558 1.69722 1.5508
761 1 3.28072 8.93456 1.75557
762 1 7.964 9.29809 0.439279
763 1 5.6953 3.09311 0.253369
764 1 2.58157 2.19612 7.82044
765 1 1.02915 7.58814 8.04885
766 1 7.88037 4.29858 5.79161
767 1 7.02414 2.521 4.45258
768 1 4.21723 3.97332 1.93073
769 1 9.15367 6.89136 6.75299
770 1 1.12441 4.65799 0.677236
771 1 8.41967 2.27929 2.53459
772 1 6.25585 9.09501 4.02235
773 1 4.44033 7.94685 5.18668
774 1 8.66402 3.99571 6.54353
775 1 2.20659 5.44758 4.05025
776 1 4.27728 2.78483 8.60304
777 1 6.19526 6.66853 8.02014
778 1 7.85104 3.43509 1.43318
779 1 7.30602 1.74882 6.42966
780 1 8.52974 6.32331 2.04358
781 1 0.536592 2.19705 9.42389
782 1 0.752692 7.39736 1.4395
783 1 7.94467 6.98472 5.44407
784 1 3.71546 0.372557 3.41524
785 1 0.0449552 7.59291 2.95437
786 1 1.93112 5.68648 7.78166
787 1 9.0845 8.68074 8.79553
788 1 8.34615 9.23078 4.99078
789 1 9.18206 1.62296 9.17002
790 1 4.60011 4.75251 7.19803
791 1 6.68948 2.85769 0.00240048
792 1 1.24144 6.68363 5.9209
793 1 6.70902 0.088838 0.345854
794 1 0.0816331 6.02595 0.616414
795 1 2.40893 1.88413 6.80165
796 1 5.4247 4.91163 2.38021
797 1 0.984681 1.75868 3.03266
798 1 4.69032 2.05342 5.76071
799 1 5.19687 2.47142 2.29359
800 1 9.33929 6.78047 8.66232
801 2 0.980156 3.97589 4.61901
802 2 9.04947 7.99113 4.36556
803 2 1.08186 0.650645 1.3216
804 2 7.07601 1.84344 0.248045
805 2 7.49821 1.20372 5.0423
806 2 8.42477 8.23181 8.42586
807 2 3.60548 4.47922 3.3671
808 2 3.61683 3.74573 4.71753
809 2 8.741 5.63422 0.454275
810 2 0.311974 7.04884 6.05782
811 2 6.11571 5.06954 8.18983
812 2 3.12803 5.66475 3.798
813 2 9.22609 2.63276 6.48803
814 2 0.486389 3.1776 9.35664
815 2 6.30279 3.16064 4.78459
816 2 1.23869 2.21573 0.655973
817 2 3.41744 7.43428 4.74584
818 2 5.531 9.29632 4.49948
819 2 9.3672 9.31639 5.22218
820 2 1.44591 0.0870799 8.28631
821 2 5.15456 2.40671 4.92338
822 2 8.54306 7.65496 5.55725
823 2 2.56847 1.11851 2.16507
824 2 1.87265 7.6204 7.76499
825 2 5.22433 5.12237 5.69194
826 2 4.77489 5.47072 8.01514
827 2 6.3504 5.35418 4.6592
828 2 5.71344 8.51489 7.2404
829 2 5.69842 3.3088 2.11664
830 2 6.03664 2.53919 8.98418
831 2 5.39118 4.20037 2.79004
832 2 8.48266 2.20179 7.77141
833 2 2.77194 2.59955 0.33498
834 2 4.53766 8.36426 0.57965
835 2 8.82068 7.65907 7.10568
836 2 8.25488 3.13399 8.64392
837 2 3.15991 7.98251 1.52808
838 2 5.42359 7.4607 2.93283
839 2 3.47212 4.26959 6.12432
840 2 7.76339 6.78165 8.0467
841 2 0.236004 3.44826 7.97582
842 2 3.79011 3.49388 8.20897
843 2 2.32198 9.05099 7.82772
844 2 7.51096 8.8612 1.19349
845 2 3.70808 8.8449 8.78372
846 2 3.99144 1.92646 0.578284
847 2 4.03145 1.54499 5.42857
848 2 8.34119 6.80638 8.86311
849 2 0.72506 8.84806 1.95282
850 2 9.33828 7.35834 9.29124
851 2 5.44788 7.22009 6.0471
852 2 7.89576 3.59244 6.53484
853 2 3.5477 4.13542 1.32544
854 2 6.62845 9.25896 2.52392
855 2 2.77797 7.18519 6.33571
856 2 0.238461 3.94901 2.12664
857 2 8.20594 0.645242 3.08746
858 2 3.52649 6.12812 7.16089
859 2 6.95734 8.64982 6.36139
860 2 4.84568 0.142252 7.02882
861 2 8.83782 5.53079 4.99912
862 2 0.738467 4.39797 9.34194
863 2 1.30943 0.886471 2.7302
864 2 6.45244 4.4795 7.58619
865 2 8.7308 8.36922 1.53718
866 2 7.39514 5.70564 7.92982
867 2 6.81543 7.16094 8.53172
868 2 0.765725 6.25499 5.16652
869 2 1.27362 1.30151 6.4644
870 2 4.68966 5.11252 6.41919
871 2 5.88524 2.32366 7.23009
872 2 0.0589946 3.36361 3.3897
873 2 6.52306 3.9246 3.63814
874 2 7.35064 4.39976 8.54585
875 2 5.91109 5.31457 3.21975
876 2 8.07615 2.3947 5.29206
877 2 8.1805 4.51667 3.8076
878 2 5.31283 3.92647 0.31834
879 2 7.31783 5.48614 6.92962
880 2 3.47957 8.80562 4.71482
881 2 2.7391 0.569601 4.42482
882 2 4.64006 5.31497 2.97447
883 2 6.39586 1.53661 6.49149
884 2 7.94895 1.38946 6.06714
885 2 4.6943 8.27362 4.34591
886 2 1.11908 9.21463 5.74321
887 2 0.962978 8.67593 3.31654
888 2 6.39096 5.95401 8.5627
889 2 2.34462 3.45934 2.64317
890 2 2.2098 4.19431 3.83639
891 2 4.49737 0.2798 5.31445
892 2 0.32569 8.62033 7.96478
893 2 4.29868 4.8857 0.613104
894 2 1.48572 5.40299 3.54449
895 2 0.585867 0.873188 5.62386
896 2 2.21194 4.06429 8.68744
897 2 5.89127 7.78347 9.15084
898 2 2.69639 0.672049 6.05703
899 2 6.54794 6.47077 5.80718
900 2 1.42834 3.0512 3.73085
901 2 5.97655 7.4033 7.57678
902 2 1.64008 7.61536 1.52188
903 2 2.43598 4.36911 7.85463
904 2 1.10953 4.15383 7.1166
905 2 2.54115 1.35558 2.9973
906 2 7.37859 1.35331 7.35458
907 2 5.39751 2.20552 0.554268
908 2 4.20264 7.25271 3.5347
909 2 5.95704 8.14624 3.9635
910 2 7.33186 7.79166 0.546621
911 2 8.42371 1.89896 0.235033
912 2 3.96217 7.36484 0.0855449
913 2 4.42805 0.913868 3.05422
914 2 4.71903 7.35606 7.22176
915 2 6.21927 8.75403 0.649265
916 2 3.36138 2.6276 2.07001
917 2 8.87582 0.127147 0.373053
918 2 4.89873 3.18183 1.7309
919 2 6.29131 6.57092 2.41608
920 2 2.39343 6.3715 7.86081
921 2 0.638434 6.09289 2.70542
922 2 4.15682 0.603989 9.08186
923 2 4.45601 2.22388 3.89066
924 2 1.10869 2.95909 1.47308
925 2 4.65133 7.475 1.68221
926 2 4.70287 1.64366 6.64911
927 2 6.12377 0.700198 7.02865
928 2 8.31962 6.66006 6.22394
929 2 2.26063 6.16821 4.5448
930 2 0.0534669 2.25795 8.70575
931 2 3.0419 0.976801 0.931792
932 2 8.24413 4.70736 7.77273
933 2 8.98803 4.39547 8.24785
934 2 6.29437 2.77645 0.886204
935 2 3.30033 1.88641 4.23543
936 2 3.22726 1.66923 7.58922
937 2 2.20232 4.8466 9.36603
938 2 5.31637 1.22159 7.82008
939 2 8.57544 5.75281 3.64312
940 2 3.56628 8.51444 7.78459
941 2 2.5951 8.08399 8.84182
942 2 1.34518 8.3831 5.15709
943 2 3.86523 2.14394 2.64655
944 2 7.30409 5.21928 1.03135
945 2 7.32835 5.69334 9.36898
946 2 2.45431 2.029 5.08753
947 2 1.65979 0.0422553 6.48393
948 2 8.22726 8.09603 3.02979
949 2 6.99466 1.11081 3.21826
950 2 5.70922 4.19799 3.70809
951 2 4.11511 9.2399 1.74892
952 2 4.07332 5.76206 1.46273
953 2 2.45073 4.8375 5.44018
954 2 1.82856 6.00049 5.79937
955 2 8.57859 0.43772 7.97124
956 2 0.569729 3.71776 0.797556
957 2 4.32865 6.58216 6.08638
958 2 8.11965 6.77854 3.98976
959 2 7.33758 6.43962 4.65446
960 2 8.37314 9.10408 9.07998
961 2 2.05914 6.82797 5.51804
962 2 8.43869 9.22935 2.25942
963 2 0.196876 6.26819 7.06618
964 2 2.9438 7.91704 3.18232
965 2 3.57399 9.00412 0.870335
966 2 0.558637 1.34978 0.486876
967 2 8.3303 8.58852 7.53883
968 2 8.06275 9.08184 5.87895
969 2 4.73527 4.67283 1.96338
970 2 2.49058 5.30134 1.44274
971 2 3.11395 7.09742 2.0744
972 2 3.22199 5.13393 8.6594
973 2 2.52225 0.223765 9.14805
974 2 6.80097 3.19683 6.40431
975 2 0.162424 5.98297 8.19803
976 2 1.8554 5.8186 6.99223
977 2 3.36647 3.50335 0.0276859
978 2 4.67757 8.57544 5.74655
979 2 7.36937 7.77367 5.08607
980 2 8.81382 3.94079 5.60075
981 2 1.15782 9.2311 9.24176
982 2 6.63717 3.27673 2.43294
983 2 1.86547 8.28603 0.890564
984 2 6.73593 8.53764 8.50158
985 2 9.13494 6.77671 3.08872
986 2 6.70649 1.63632 8.10076
987 2 0.254973 2.32906 4.7562
988 2 6.06856 1.04341 5.26607
989 2 5.85547 0.46769 3.6132
990 2 5.62209 8.80033 2.26504
991 2 7.7283 7.65264 1.97148
992 2 7.72178 6.37974 1.62283
993 2 7.73937 4.93985 2.20856
994 2 9.25164 7.02584 4.63264
995 2 4.50683 6.45893 7.51714
996 2 3.0602 8.77987 5.57329
997 2 3.10478 2.94561 3.7299
998 2 2.43804 2.8666 8.45888