#bin. KALJ data file T=0.5

1000 atoms
2 atom types

0 9.4 xlo xhi
0 9.4 ylo yhi
0 9.4 zlo zhi

Masses

1 1.0
2 1.0

Atoms

1 1 0.624651 3.58321 8.21652
2 1 8.33671 2.86637 8.29469
3 1 2.02694 4.53324 2.50993
4 1 8.0968 7.26833 9.16493
5 1 1.72323 -0.011699 3.70212
6 1 6.27661 8.99442 7.13656
7 1 0.213149 -0.0671985 9.36348
8 1 4.1425 2.72664 5.70712
9 1 3.2326 3.20171 6.03748
10 1 9.12369 7.05208 8.2186
11 1 7.48308 0.38934 7.93953
12 1 7.58618 1.35774 1.7019
13 1 9.07012 3.17062 3.0554
14 1 3.02829 5.23612 2.5226
15 1 0.851096 3.7283 9.26045
16 1 2.72329 0.331632 6.49831
17 1 0.135908 4.40688 8.77269
18 1 9.13374 6.52276 1.84339
19 1 3.67759 3.16302 7.64591
20 1 6.81847 5.58061 7.48556
21 1 0.467633 3.39163 3.74368
22 1 3.38031 1.00551 5.86384
23 1 6.16787 3.57027 8.27857
24 1 3.4824 8.70609 7.98526
25 1 6.997 0.395295 6.08141
26 1 8.60894 5.4359 3.29892
27 1 8.60902 7.66811 0.551087
28 1 4.04474 3.78529 5.60367
29 1 0.774031 1.0271 6.61166
30 1 9.33342 0.502177 3.69047
31 1 2.39862 5.08632 1.72644
32 1 4.13231 0.936202 5.14493
33 1 2.00184 1.07108 9.2364
34 1 5.92068 8.23994 2.90627
35 1 8.0708 1.00003 2.58336
36 1 2.09589 0.616845 2.94991
37 1 5.96395 1.56907 2.28825
38 1 0.732314 8.36736 4.24241
39 1 1.85689 8.572 4.33052
40 1 0.635703 1.73287 8.40174
41 1 7.7541 8.15234 7.70856
42 1 3.33862 7.6344 6.0207
43 1 2.36535 2.11547 1.44605
44 1 3.9868 3.60333 4.46311
45 1 5.42175 0.846109 8.12855
46 1 1.65965 4.98807 3.63572
47 1 2.70618 6.9424 8.24927
48 1 5.66512 4.93141 3.8536
49 1 3.73092 3.86792 6.77811
50 1 1.77604 1.00906 4.08507
51 1 3.65138 6.49059 4.19238
52 1 5.22844 1.24348 9.19947
53 1 5.90902 3.26384 4.58148
54 1 7.95757 5.29939 8.92337
55 1 1.28835 3.08753 5.90326
56 1 2.4997 3.86443 6.16859
57 1 1.18095 0.267922 7.25517
58 1 7.22225 0.0898953 0.747073
59 1 8.99527 8.9211 3.44134
60 1 1.70017 5.77748 1.01367
61 1 5.02352 5.56437 2.17346
62 1 0.490347 0.594966 1.73545
63 1 4.83309 5.97578 9.20032
64 1 5.72224 5.93233 0.394349
65 1 5.86828 3.44946 6.75709
66 1 4.66734 4.80728 7.01861
67 1 3.63796 9.29649 2.51267
68 1 3.04804 6.77911 0.00620038
69 1 2.79713 3.99196 0.732321
70 1 1.42369 4.50844 4.52373
71 1 8.4827 4.13427 8.70104
72 1 5.44034 8.2495 8.01676
73 1 1.4662 9.06193 0.583687
74 1 7.01033 8.22591 7.00201
75 1 9.29346 1.61137 6.81309
76 1 6.13137 1.42693 0.38782
77 1 2.35547 2.97185 4.44253
78 1 1.83686 6.90401 1.22077
79 1 6.2461 0.143772 2.75734
80 1 7.65957 6.07938 5.71078
81 1 2.73453 1.18005 3.63816
82 1 6.43875 1.11088 3.27396
83 1 3.49048 0.0226374 4.20805
84 1 1.28179 6.3297 9.0271
85 1 3.18844 2.71477 0.7557
86 1 4.87375 5.66221 1.08173
87 1 7.02192 3.35798 4.41396
88 1 0.976197 7.94431 8.52296
89 1 0.287082 4.04014 2.74777
90 1 6.47858 7.18946 4.29393
91 1 0.901584 6.25144 7.3026
92 1 0.190375 8.59364 8.52906
93 1 1.47482 9.04688 1.67466
94 1 8.88765 8.23265 1.90397
95 1 5.03752 4.72552 2.98861
96 1 4.55534 8.98331 9.26467
97 1 3.41209 4.45939 1.81518
98 1 7.67121 7.44115 1.62965
99 1 2.35044 0.575159 5.55216
100 1 4.7065 1.84134 5.69109
101 1 3.53329 7.14672 1.73018
102 1 7.04092 0.165343 8.84308
103 1 1.44143 1.59405 1.62637
104 1 1.95572 9.2805 7.8189
105 1 7.43483 9.05633 6.76938
106 1 4.96325 3.4076 5.11209
107 1 8.91736 0.297045 2.67878
108 1 7.94374 8.91782 5.8174
109 1 6.20295 4.44161 3.02576
110 1 0.897544 5.45574 6.69839
111 1 1.83844 7.49229 7.97653
112 1 4.97344 1.75088 2.61009
113 1 1.68448 5.42149 8.58415
114 1 2.83417 6.83025 3.64257
115 1 4.45219 1.00228 6.28367
116 1 4.91522 6.34537 7.32345
117 1 7.06081 5.55584 8.55713
118 1 8.06502 1.60013 0.127099
119 1 0.472391 5.90462 1.52041
120 1 6.06068 8.26569 4.02144
121 1 5.40904 7.76647 5.79497
122 1 8.80627 0.767348 0.0131175
123 1 0.936277 2.41656 4.03628
124 1 1.68332 8.07823 1.10518
125 1 7.11842 2.60897 3.55558
126 1 0.999777 4.22863 7.45587
127 1 2.06245 7.86427 5.2685
128 1 4.55833 8.90059 8.20299
129 1 3.25667 6.0991 1.83312
130 1 3.08888 4.56065 8.22079
131 1 8.45526 1.32105 4.15115
132 1 6.10158 5.54385 4.52257
133 1 8.39566 6.81961 1.11278
134 1 4.6307 1.887 6.76017
135 1 6.39722 1.22829 6.51764
136 1 1.12868 0.588924 -0.0241337
137 1 3.22775 5.77937 8.2244
138 1 4.57592 3.65256 7.653
139 1 0.94786 7.80989 5.21545
140 1 1.58904 4.20804 5.96568
141 1 3.26883 7.96739 6.92752
142 1 2.09256 2.94785 7.69
143 1 4.21368 7.29034 7.03686
144 1 0.239824 4.85701 7.14559
145 1 5.85675 4.98538 7.33749
146 1 7.15893 8.87602 2.52749
147 1 1.18192 7.76032 7.25077
148 1 6.19085 2.9006 7.48721
149 1 0.337861 7.4642 3.4451
150 1 4.85154 8.6663 5.61745
151 1 0.499194 7.51807 6.40195
152 1 6.4886 8.7616 0.746556
153 1 0.4909 5.74066 0.420375
154 1 5.59068 5.42155 8.7581
155 1 6.9352 8.70992 5.45661
156 1 3.75876 0.690089 0.958498
157 1 8.00805 0.497513 6.2035
158 1 3.64139 0.466265 6.90391
159 1 7.48204 7.24297 4.0459
160 1 8.05135 0.919364 8.71384
161 1 8.15842 5.20669 0.568086
162 1 0.546947 2.68066 9.23931
163 1 8.94271 3.17028 7.46303
164 1 5.36562 7.27033 4.05142
165 1 8.75444 8.6658 9.34295
166 1 9.17843 5.53502 6.11719
167 1 3.85594 8.19939 1.34429
168 1 5.92215 3.43035 9.32593
169 1 4.84302 6.11821 5.58089
170 1 2.01582 8.33848 8.63189
171 1 8.13633 3.0121 3.72302
172 1 4.83289 1.99784 0.56179
173 1 6.48013 6.87161 1.64053
174 1 3.49554 3.96862 3.49002
175 1 5.58292 7.46766 1.30772
176 1 0.437283 9.1876 6.60934
177 1 2.8607 8.61361 4.12487
178 1 7.9222 7.33304 6.72875
179 1 5.08386 6.78267 0.687291
180 1 2.4574 8.71754 7.0498
181 1 9.11093 5.63181 2.31579
182 1 5.91612 3.58102 1.83948
183 1 4.41228 7.79274 0.297551
184 1 2.66772 1.38284 8.5471
185 1 9.16474 4.19596 7.77966
186 1 8.13109 7.03387 5.65522
187 1 4.23972 2.89693 0.696102
188 1 1.30058 6.22778 2.40582
189 1 2.36559 2.93907 5.58672
190 1 8.34082 4.46064 5.23993
191 1 5.51382 4.07537 7.55989
192 1 8.67031 5.36654 7.05287
193 1 3.7472 7.21099 5.0015
194 1 4.37545 2.87749 8.33309
195 1 7.35726 0.239035 1.8083
196 1 2.84507 9.35718 3.35171
197 1 2.27452 4.04479 4.17728
198 1 2.79857 3.27746 7.03987
199 1 1.30819 6.14344 4.13629
200 1 3.60718 8.60891 5.80616
201 1 7.78027 6.37868 8.63909
202 1 0.666729 2.1583 5.50597
203 1 2.48504 6.25624 6.21845
204 1 6.27364 5.02261 5.66674
205 1 8.74213 6.13763 8.18229
206 1 0.984582 2.13084 3.02726
207 1 6.73883 2.14327 7.01094
208 1 7.35485 4.97642 5.77902
209 1 4.80751 1.02777 0.874021
210 1 1.14166 4.48543 8.42423
211 1 2.77207 1.93233 2.49625
212 1 6.65908 8.1056 2.07721
213 1 3.84152 0.433445 8.09077
214 1 7.69258 4.31079 0.0397642
215 1 0.797834 6.88435 5.62292
216 1 4.13738 2.88242 6.73328
217 1 6.39544 0.0371367 1.64544
218 1 3.41683 3.47822 1.44668
219 1 5.27978 4.9584 0.271435
220 1 8.4275 4.2153 0.800976
221 1 0.253122 9.34276 7.67553
222 1 4.28255 3.90652 1.149
223 1 1.29971 8.92562 2.66336
224 1 5.98241 5.13744 1.0713
225 1 3.29338 5.12383 5.00189
226 1 8.21319 6.23132 0.26946
227 1 4.40223 8.91497 1.87962
228 1 6.81157 4.04092 9.02663
229 1 1.34124 1.24491 5.6948
230 1 3.1595 1.46273 1.53475
231 1 0.57064 4.79736 5.92903
232 1 4.34775 6.19562 8.30802
233 1 8.78421 7.71011 7.48354
234 1 1.40032 1.95933 9.07614
235 1 6.81005 4.41679 5.01643
236 1 2.38931 8.54973 0.31749
237 1 7.47931 1.33659 7.52653
238 1 5.24473 7.7233 7.03504
239 1 2.25977 6.7296 7.25529
240 1 5.06572 0.356832 5.62347
241 1 5.97383 5.8302 1.96039
242 1 6.87832 3.16108 6.59857
243 1 3.03468 8.35611 2.06998
244 1 6.53349 2.52727 0.587941
245 1 7.12362 1.89479 2.53412
246 1 0.864285 4.90349 1.02514
247 1 8.27968 1.94107 2.39622
248 1 7.08207 7.05925 6.10975
249 1 8.82839 5.11571 8.34301
250 1 3.43117 8.29702 3.05729
251 1 9.36504 0.92755 4.65875
252 1 5.01512 3.5994 2.43609
253 1 0.722073 5.75064 5.63609
254 1 8.53628 0.892179 5.28961
255 1 7.32057 7.88346 8.70895
256 1 1.16961 5.25265 7.66485
257 1 2.86795 7.81188 8.81851
258 1 3.72716 1.63031 4.24138
259 1 4.07457 5.60995 7.47762
260 1 5.36306 1.01367 7.03674
261 1 6.2201 4.33075 0.458677
262 1 3.62935 1.75793 3.20499
263 1 8.17243 2.80731 5.6187
264 1 6.97457 5.66103 4.94003
265 1 6.79411 4.9824 3.97746
266 1 8.06593 5.50607 4.90531
267 1 2.23439 1.16479 2.01558
268 1 5.23385 2.65552 6.1598
269 1 2.01334 4.00522 7.82917
270 1 8.21401 8.34562 6.84951
271 1 0.257662 0.798546 8.63022
272 1 7.08151 2.93336 5.65632
273 1 7.99575 4.58222 3.57982
274 1 5.86546 6.02914 7.4921
275 1 3.68188 6.63595 7.58632
276 1 0.253407 7.59169 2.36238
277 1 7.34033 3.80769 3.47881
278 1 2.53804 2.40166 6.52907
279 1 1.46962 0.503219 2.13348
280 1 5.18749 3.75532 0.594225
281 1 5.20408 7.93776 4.79275
282 1 4.63863 0.245094 2.81885
283 1 7.98677 8.20031 3.76866
284 1 6.38967 7.89932 7.92269
285 1 4.4413 4.30094 3.88541
286 1 8.89523 9.19097 6.17329
287 1 4.35104 8.36313 7.17503
288 1 0.484368 1.61626 -0.00545033
289 1 5.6802 2.39423 4.12192
290 1 1.4968 7.99996 6.16755
291 1 2.45471 8.94329 5.18387
292 1 1.63437 5.35504 5.98335
293 1 3.7938 0.612505 3.44535
294 1 2.20132 5.41958 0.142305
295 1 5.65437 4.34561 6.43287
296 1 5.4392 6.39986 8.40798
297 1 1.96144 3.93637 0.199439
298 1 2.65204 7.05843 4.91831
299 1 4.71414 5.7213 3.16419
300 1 6.81485 3.80272 2.42784
301 1 9.2255 0.560832 6.88332
302 1 7.90338 8.77993 4.64153
303 1 1.45701 8.01561 0.0620902
304 1 6.37842 3.3703 3.37808
305 1 3.40893 2.49506 1.76445
306 1 0.667028 9.16754 3.61117
307 1 4.97023 0.848948 2.10642
308 1 4.96566 0.629349 4.53141
309 1 1.72963 3.73385 6.8706
310 1 1.71658 2.12202 5.72241
311 1 8.11859 8.87092 1.97557
312 1 0.102292 5.01888 3.06366
313 1 8.37433 2.34006 0.765475
314 1 4.75938 4.49133 8.15898
315 1 3.60014 4.95597 6.73246
316 1 1.89124 2.03081 4.17344
317 1 0.751686 1.91945 7.32373
318 1 0.68122 5.39979 8.84177
319 1 3.53367 8.89196 6.76685
320 1 5.49862 9.01524 3.41873
321 1 3.2714 4.36572 4.36315
322 1 1.15476 8.92852 8.89014
323 1 4.94233 8.26399 3.89918
324 1 5.06158 4.67148 1.197
325 1 6.76098 4.1415 1.34544
326 1 1.37583 8.79529 5.21228
327 1 5.08558 8.3266 1.03245
328 1 3.72024 0.303118 9.30129
329 1 8.53276 2.9434 2.10183
330 1 3.70546 8.70419 0.402786
331 1 4.36586 1.09741 7.37328
332 1 2.23151 2.34765 8.57231
333 1 6.54996 4.95378 2.18205
334 1 4.46109 5.80861 6.57355
335 1 5.0696 2.97867 1.34322
336 1 9.14914 4.33256 6.3466
337 1 3.67997 7.69446 7.8313
338 1 8.65143 2.04389 7.66253
339 1 9.12344 5.49347 5.06357
340 1 8.78857 7.97367 3.01822
341 1 7.99798 0.122071 0.0346735
342 1 4.15433 6.33993 1.44206
343 1 2.66848 3.25945 3.53195
344 1 4.60611 1.32831 3.57428
345 1 6.79564 6.69885 5.13908
346 1 9.26881 3.88261 0.216468
347 1 4.82416 2.87762 9.25859
348 1 7.54919 4.55054 8.38758
349 1 5.70038 4.40842 8.91775
350 1 4.72646 6.67692 3.58802
351 1 7.71968 3.58257 1.95037
352 1 3.70835 7.25799 8.71603
353 1 0.150466 3.23458 2.06918
354 1 1.21439 0.497888 8.25104
355 1 8.95886 5.82826 0.905652
356 1 3.85112 4.44597 7.619
357 1 8.11574 8.60196 0.779513
358 1 6.16816 7.26508 3.28013
359 1 3.2222 2.42184 8.20372
360 1 2.91229 3.74421 5.10027
361 1 3.44571 2.79795 2.86322
362 1 5.48413 3.85836 3.46536
363 1 7.09383 4.90985 0.697064
364 1 2.51111 1.94046 7.56938
365 1 1.27564 3.88897 0.911966
366 1 6.2982 7.42035 6.91347
367 1 1.98162 4.69572 0.895681
368 1 2.27321 7.69259 4.1945
369 1 6.51518 4.7972 8.23793
370 1 6.23661 0.374342 0.622486
371 1 1.3772 5.42 4.8901
372 1 2.75567 4.3605 7.08812
373 1 7.28843 6.76604 0.902714
374 1 6.88748 6.24724 3.96126
375 1 4.68765 7.12402 5.38404
376 1 1.29065 1.44507 0.604543
377 1 2.11426 6.42625 0.301659
378 1 5.66391 2.24518 9.37585
379 1 7.57683 5.55331 6.83891
380 1 7.45873 4.55191 2.49236
381 1 2.27639 1.1446 1.03405
382 1 7.58515 6.27527 3.06295
383 1 9.03703 6.4713 7.23267
384 1 5.09604 8.11735 2.14579
385 1 4.86051 7.96789 8.7513
386 1 0.355573 1.57956 3.64919
387 1 8.75201 0.13016 4.48212
388 1 8.72304 2.35718 9.12461
389 1 5.84625 4.04004 5.3759
390 1 2.70068 6.40031 2.67916
391 1 4.61008 1.99941 8.71531
392 1 8.65313 2.88616 4.71485
393 1 0.656253 7.23452 9.3314
394 1 7.98091 3.30369 1.02615
395 1 9.00268 8.12535 4.05992
396 1 3.58971 2.79635 3.92079
397 1 3.82568 3.85678 8.42898
398 1 7.92603 5.48398 2.38073
399 1 8.23836 3.7446 2.89454
400 1 7.90436 8.01962 2.47321
401 1 3.02686 0.0190007 7.55039
402 1 8.82342 1.47743 3.2003
403 1 1.35969 5.28178 1.84712
404 1 6.11246 6.83098 5.97119
405 1 3.38803 2.31013 7.07115
406 1 5.37568 0.17182 0.120458
407 1 5.66874 2.20271 1.06786
408 1 1.08583 4.10014 2.05723
409 1 4.33801 4.61851 4.81875
410 1 0.0376452 1.99397 4.62569
411 1 5.43732 0.989395 2.97632
412 1 7.594 1.28412 4.79086
413 1 2.05595 9.33556 9.03284
414 1 7.43224 1.3311 6.50396
415 1 0.468182 1.54724 1.31402
416 1 6.51646 2.03897 1.59657
417 1 9.22082 6.43258 5.56292
418 1 3.88728 0.715308 1.98624
419 1 6.19072 2.17233 3.25579
420 1 1.61069 0.406246 4.84752
421 1 7.34845 7.52403 5.16465
422 1 6.57356 2.39038 4.944
423 1 9.2358 2.19362 2.66197
424 1 5.38254 8.98346 4.5184
425 1 1.38619 2.68093 4.94257
426 1 6.89691 1.10519 8.43302
427 1 7.88072 5.44022 7.90825
428 1 2.62556 8.3413 6.09687
429 1 5.90589 8.49454 1.5879
430 1 4.51925 9.29714 3.89755
431 1 8.30354 1.61723 6.0341
432 1 4.05903 0.110469 5.92735
433 1 4.31866 7.82929 6.06769
434 1 6.65388 7.84073 1.09463
435 1 0.939671 3.13171 2.77754
436 1 8.76081 9.35615 0.769014
437 1 8.60921 7.324 2.2248
438 1 8.88921 0.000787565 8.60976
439 1 4.38743 6.56707 2.43909
440 1 7.78888 2.84335 2.78363
441 1 4.3202 2.62733 4.72323
442 1 5.72275 1.96075 6.85992
443 1 4.57878 7.3497 1.33554
444 1 8.47076 6.25806 6.42876
445 1 4.25963 1.27027 9.40601
446 1 7.57384 4.17476 6.4447
447 1 2.8072 4.78427 3.40336
448 1 5.70463 7.02101 7.7332
449 1 0.459616 8.2898 0.0992726
450 1 3.01787 3.97288 9.13751
451 1 6.40208 8.66128 8.81847
452 1 4.94302 6.92575 6.37551
453 1 5.10912 7.59012 3.10866
454 1 6.20659 8.02818 4.97106
455 1 6.64053 4.77437 6.60626
456 1 7.7774 6.52878 4.7159
457 1 5.26842 0.103837 1.37969
458 1 2.00349 7.08128 2.22627
459 1 0.321606 6.57794 2.69618
460 1 6.84849 2.22094 8.01262
461 1 8.68914 4.61151 2.58539
462 1 3.13672 0.910753 2.6762
463 1 3.8118 1.84366 0.815104
464 1 9.1063 3.34518 6.4924
465 1 0.207373 8.2782 7.52754
466 1 6.80887 1.01709 2.16328
467 1 5.18401 3.56588 8.55779
468 1 6.78079 0.779522 4.38997
469 1 9.13751 3.90007 4.52902
470 1 1.72421 1.68212 6.84269
471 1 5.81226 0.35981 6.41167
472 1 5.16891 5.1684 6.11603
473 1 9.13932 3.34753 8.69276
474 1 2.62538 7.66062 1.39944
475 1 3.70407 1.4181 8.5144
476 1 8.93056 1.51465 8.61158
477 1 9.13038 7.48692 9.13114
478 1 0.515524 9.32584 4.79633
479 1 1.31203 3.11406 1.65363
480 1 7.40505 8.02903 6.12498
481 1 4.08465 7.68625 2.34969
482 1 5.9015 6.38118 3.74397
483 1 4.24021 5.1935 0.144872
484 1 7.67522 2.55032 9.38139
485 1 6.35447 5.21627 0.0217368
486 1 1.38875 3.42577 4.17293
487 1 0.508575 6.17028 4.75209
488 1 7.60994 4.7577 4.55631
489 1 9.1357 9.16929 1.7459
490 1 6.95381 5.48115 3.02766
491 1 7.03561 7.12745 2.46856
492 1 0.784396 8.26623 1.68001
493 1 7.29867 5.79176 0.192045
494 1 5.22974 4.22801 4.52516
495 1 2.55537 3.01314 1.95633
496 1 4.27858 3.34802 3.34581
497 1 9.2399 8.39083 0.966423
498 1 7.81908 1.9003 8.48411
499 1 3.27892 2.79152 4.96696
500 1 6.74136 5.86588 1.19582
501 1 6.85195 6.51891 6.95829
502 1 8.81153 3.89384 1.78998
503 1 4.36056 7.42965 4.21212
504 1 5.18745 6.55584 1.74115
505 1 7.91644 3.80165 7.79325
506 1 2.41124 5.56607 5.36376
507 1 7.95629 8.89846 8.56261
508 1 3.63816 6.07165 3.19676
509 1 3.15197 1.12819 0.215628
510 1 5.54967 2.61268 2.18302
511 1 5.00727 2.74914 7.32393
512 1 8.75569 4.93165 1.54005
513 1 2.25287 8.44221 3.35722
514 1 0.10841 5.47762 4.03067
515 1 8.48478 7.95285 5.84924
516 1 2.96464 7.44552 2.629
517 1 9.01821 2.15919 1.6714
518 1 0.554772 3.11479 7.33327
519 1 2.32751 4.54172 5.34892
520 1 3.277 1.19288 7.60773
521 1 9.18804 2.6484 5.58799
522 1 7.01123 8.9013 7.8959
523 1 1.79558 8.05839 2.37169
524 1 0.527607 0.958015 7.65565
525 1 0.103234 2.5944 8.10969
526 1 5.51932 2.6259 8.42839
527 1 5.89568 1.58371 4.97747
528 1 6.80099 5.79589 6.18551
529 1 6.74321 3.93699 5.94363
530 1 6.29639 8.11364 6.1099
531 1 7.28368 8.59353 1.40374
532 1 3.07854 4.96297 0.892796
533 1 5.45794 6.53978 2.84305
534 1 6.62105 8.87354 3.48219
535 1 8.37962 0.0465858 7.11041
536 1 8.64832 6.42006 3.00581
537 1 1.53475 2.8913 0.192811
538 1 3.32174 7.62076 4.16702
539 1 3.28793 0.176548 5.24405
540 1 1.1536 2.61734 8.27349
541 1 5.5989 1.28102 3.99119
542 1 1.31096 4.73735 -0.0256916
543 1 2.73324 8.05274 7.78752
544 1 8.63309 7.21209 3.74206
545 1 8.30983 4.98333 6.13077
546 1 1.67552 6.33253 5.54747
547 1 0.331558 7.19384 7.34648
548 1 8.89596 7.19146 6.39065
549 1 0.45574 2.59065 6.44611
550 1 9.24069 8.29795 6.47519
551 1 7.02432 3.41261 0.416773
552 1 1.01305 2.37292 0.947482
553 1 1.93076 9.10486 6.04973
554 1 1.06165 4.9091 2.72072
555 1 5.914 0.305348 4.00993
556 1 1.02922 1.56958 4.64458
557 1 0.356168 4.89628 2.0325
558 1 8.9675 4.18658 3.52361
559 1 2.33075 7.5181 0.395078
560 1 2.77475 2.17698 3.54895
561 1 0.809266 3.97089 5.33452
562 1 2.49665 0.223344 4.4472
563 1 4.69638 5.25684 4.17253
564 1 6.75611 1.20449 5.47491
565 1 7.93484 3.23521 6.86583
566 1 2.29195 9.10535 2.35864
567 1 0.215431 5.61975 7.8088
568 1 3.71359 4.32846 0.416854
569 1 7.31385 1.9375 0.769167
570 1 7.7896 4.66032 1.46888
571 1 2.54112 5.09925 6.38781
572 1 2.83473 0.428383 1.71092
573 1 7.57406 2.40974 6.45136
574 1 5.33893 2.88358 3.20342
575 1 8.44649 1.90246 5.06061
576 1 4.15624 5.14144 5.72435
577 1 4.6556 7.16681 7.96711
578 1 3.87134 8.49486 4.06931
579 1 9.31569 7.57401 5.46846
580 1 1.61884 7.04267 4.77238
581 1 0.26723 8.64644 5.61112
582 1 6.63179 2.84502 8.83594
583 1 8.89194 1.33713 0.977934
584 1 1.36153 4.06932 3.35626
585 1 3.0041 8.79527 8.93466
586 1 5.56239 4.52236 2.08553
587 1 5.41625 9.11768 2.31387
588 1 8.95819 5.63139 9.27911
589 1 3.95065 4.93966 3.21056
590 1 6.73942 6.4776 8.00657
591 1 4.66928 6.97059 9.0676
592 1 7.51753 3.4041 8.7614
593 1 9.00314 2.51455 3.7873
594 1 4.44886 2.67111 2.49531
595 1 6.86057 1.9156 9.1787
596 1 9.21176 6.63175 0.325863
597 1 6.55885 2.81998 2.44214
598 1 0.0376164 0.397156 5.56937
599 1 1.80602 2.706 3.36094
600 1 3.2694 7.6997 0.53001
601 1 7.08096 0.952423 0.161068
602 1 3.35644 4.52309 5.87572
603 1 0.438834 3.05357 4.80018
604 1 4.65427 0.514997 8.7575
605 1 1.68271 1.45102 8.13769
606 1 0.552074 7.24832 4.45689
607 1 1.43799 2.69408 6.89489
608 1 8.51522 8.03555 8.53799
609 1 1.29517 0.557799 1.10192
610 1 4.67253 9.38434 6.83008
611 1 3.95745 3.53881 2.32838
612 1 0.57114 3.20877 0.758107
613 1 7.3452 8.70644 9.4132
614 1 7.91278 1.93301 3.38199
615 1 0.499927 9.21413 1.0497
616 1 8.44048 4.36173 7.01411
617 1 2.85618 3.85856 2.50866
618 1 7.96123 6.47501 7.31717
619 1 4.77149 3.7234 6.60159
620 1 2.15768 4.47293 8.76177
621 1 6.60825 1.77544 4.11187
622 1 5.82064 5.45893 2.95569
623 1 2.0387 7.4628 3.26442
624 1 6.51241 9.14682 4.60233
625 1 6.31408 0.22098 8.08653
626 1 7.55704 3.77138 5.19891
627 1 8.6186 5.9564 4.09355
628 1 0.888635 5.71549 3.2951
629 1 7.55424 7.70735 0.471404
630 1 0.524855 0.268494 2.64781
631 1 0.150119 6.48962 3.78562
632 1 5.19521 1.75469 7.75248
633 1 2.27069 6.16168 4.47733
634 1 4.77692 1.6602 4.5922
635 1 4.61994 8.6031 2.94502
636 1 6.20107 6.96605 0.588633
637 1 4.83883 4.29861 5.66243
638 1 8.68782 8.72076 7.82987
639 1 6.26203 4.13366 4.16154
640 1 7.52416 4.66318 7.38149
641 1 8.94285 0.714558 7.88517
642 1 4.42197 2.35613 3.6311
643 1 5.50172 9.18808 8.56954
644 1 2.86673 2.01237 4.53455
645 1 4.45754 4.50157 2.1025
646 1 6.3344 6.16536 9.01127
647 1 8.0135 8.95261 3.05607
648 1 7.53993 2.41666 4.51045
649 1 0.530826 4.46948 3.81343
650 1 5.93858 1.64081 8.54092
651 1 6.51114 4.08769 7.4626
652 1 6.00266 6.01693 5.41399
653 1 6.19542 7.18581 8.66858
654 1 7.80045 5.73224 1.32922
655 1 1.71203 6.24153 7.98696
656 1 1.8657 3.48814 2.57737
657 1 3.09178 8.05568 5.05575
658 1 1.09474 8.73982 7.88147
659 1 1.82994 3.37276 8.75016
660 1 1.84796 3.66355 5.14323
661 1 2.18055 3.104 1.01356
662 1 1.39965 6.97539 6.54707
663 1 0.82933 7.52889 0.910179
664 1 0.0408319 2.28663 0.673236
665 1 3.23194 5.20678 9.32894
666 1 8.72344 4.8523 4.31092
667 1 1.81599 7.17713 8.93301
668 1 3.97783 6.8282 6.07915
669 1 6.02754 3.15454 5.72801
670 1 5.87377 8.89061 5.57185
671 1 8.30277 7.64532 4.75131
672 1 6.41739 6.34083 2.87303
673 1 4.13228 8.19878 4.99025
674 1 2.34645 5.27509 7.70085
675 1 1.26835 8.1504 3.3849
676 1 1.98662 5.53381 2.7511
677 1 4.97751 5.41972 7.89866
678 1 9.00052 3.22241 1.03829
679 1 4.15841 2.09165 7.7573
680 1 2.4166 6.05561 8.79043
681 1 4.36067 9.18442 4.88832
682 1 4.58042 4.23952 9.10705
683 1 6.79282 1.04475 1.14427
684 1 5.71169 1.15877 1.34927
685 1 8.37752 3.7528 5.96873
686 1 2.22243 7.72313 6.97681
687 1 5.50044 6.07831 6.41261
688 1 6.4606 7.87639 0.0439852
689 1 8.41675 1.06386 7.07059
690 1 7.00665 6.00048 2.14408
691 1 2.36688 8.8222 1.33887
692 1 9.41896 1.4881 5.67697
693 1 1.27997 7.1759 3.80498
694 1 9.25857 7.41718 1.34149
695 1 1.42906 8.73821 6.89923
696 1 8.11469 7.18228 8.17956
697 1 3.18868 6.9104 6.71438
698 1 8.62871 2.43365 6.67127
699 1 0.868098 7.00699 8.22159
700 1 7.97118 0.900035 0.854355
701 1 7.07194 8.18691 4.28246
702 1 1.05006 0.231659 5.74876
703 1 2.76364 0.146395 0.540183
704 1 5.20135 6.23097 4.62823
705 1 6.32106 1.32953 7.55381
706 1 3.46474 5.91045 6.32771
707 1 2.74742 1.88247 5.61805
708 1 4.38668 9.21837 0.869906
709 1 3.69213 3.05005 9.23071
710 1 3.27479 6.25559 5.32276
711 1 6.141 0.75752 9.00554
712 1 0.825717 6.93933 1.80075
713 1 4.17202 5.81448 4.84131
714 1 5.94474 0.500924 5.08695
715 1 5.68511 7.05715 5.01266
716 1 1.76076 0.69021 6.42811
717 1 2.34769 7.22863 6.08292
718 1 7.01205 6.88662 9.29287
719 1 3.01519 1.03922 4.86649
720 1 7.20786 7.26498 7.532
721 1 3.56793 5.90292 0.789162
722 1 5.38043 8.7441 6.54075
723 1 3.25238 2.10285 9.20106
724 1 2.19928 2.03491 0.367931
725 1 7.6348 0.311799 5.1595
726 1 6.0783 3.38977 0.87637
727 1 7.68367 2.38087 7.52977
728 1 9.23644 3.71344 5.50005
729 1 1.88297 1.60798 3.17999
730 1 5.42621 9.31902 7.48923
731 1 2.60234 2.92988 9.3495
732 1 3.76468 6.09647 9.19913
733 1 3.79747 7.18158 3.26852
734 1 3.52399 9.20858 1.37514
735 1 1.81258 6.40885 3.28726
736 1 2.84706 6.70645 1.02799
737 1 2.23139 6.14282 1.75749
738 1 1.79062 5.88163 6.96533
739 1 2.18825 0.876882 7.4434
740 1 4.05707 4.98319 1.2217
741 1 8.81751 8.56002 5.00912
742 1 3.96572 1.73497 2.26586
743 1 5.57891 8.55646 0.0461028
744 1 4.94845 3.195 4.09028
745 1 2.18045 3.92217 1.61849
746 1 7.46609 2.01225 5.48779
747 1 8.29426 0.408961 3.50532
748 1 5.46383 7.54141 0.0339026
749 1 7.86855 7.18556 3.12129
750 1 7.37352 -0.0113796 3.94084
751 1 1.71599 4.77824 6.91945
752 1 8.3216 3.4085 0.0661269
753 1 6.75511 0.492126 7.15408
754 1 7.6363 2.45091 1.69204
755 1 5.88286 7.34333 2.29467
756 1 2.81478 3.40868 8.25758
757 1 7.71986 5.62173 3.91171
758 1 8.15271 3.85015 4.38361
759 1 0.298824 4.06982 1.35465
760 1 3.59728 5.41825 4.093
761 1 0.637166 1.35112 2.49019
762 1 6.88072 3.15267 1.5141
763 1 9.26265 4.85627 0.641656
764 1 2.95435 5.90437 7.17375
765 1 1.06916 6.5299 0.721513
766 1 0.608057 3.73255 6.3724
767 1 3.64117 2.00693 6.14303
768 1 7.10147 3.1917 7.81602
769 1 4.06343 5.14279 8.42475
770 1 0.269701 8.65964 2.6362
771 1 0.29253 0.792657 0.633739
772 1 7.12328 7.9301 3.18044
773 1 4.06177 5.38281 2.25346
774 1 3.88923 8.28655 8.8755
775 1 3.99705 6.83148 0.531755
776 1 0.518646 4.8437 4.83349
777 1 5.23735 5.16926 5.09025
778 1 1.12946 0.917814 3.22425
779 1 4.44402 2.20593 1.49515
780 1 6.22159 2.07761 5.93549
781 1 2.62165 5.82871 3.51372
782 1 2.92337 0.428642 8.51492
783 1 3.7988 1.85629 5.18346
784 1 0.820568 0.685171 4.18582
785 1 8.0693 6.46357 2.08378
786 1 1.66043 2.39774 2.35559
787 1 8.93633 6.92935 4.7399
788 1 7.46459 1.02742 3.71787
789 1 7.21944 0.454225 2.95906
790 1 9.06502 1.22616 2.11722
791 1 8.38524 0.492066 1.68134
792 1 2.74476 1.40499 6.70642
793 1 5.32833 2.47718 5.15618
794 1 0.192722 6.34918 8.82819
795 1 2.41289 5.15601 4.4482
796 1 0.333923 6.48479 6.44551
797 1 0.686656 2.27756 2.05231
798 1 2.05617 1.42736 4.95212
799 1 5.45162 1.25733 5.98948
800 1 1.12577 7.28646 2.76927
801 2 0.0927364 2.10347 8.8255
802 2 8.29985 2.26414 4.1614
803 2 2.92329 1.79209 0.711521
804 2 5.08866 1.14436 5.21505
805 2 4.87436 7.26181 2.33747
806 2 2.77699 7.76752 3.45323
807 2 1.27969 4.69335 5.34097
808 2 1.20936 1.64446 3.75448
809 2 4.29509 5.98755 3.96235
810 2 0.981756 1.89459 6.50938
811 2 1.23773 9.182 4.3601
812 2 6.94395 3.97103 8.21016
813 2 8.47466 7.66334 1.39722
814 2 7.80456 9.01297 7.66645
815 2 4.1368 0.78557 4.22194
816 2 2.53732 6.14643 7.86574
817 2 6.04315 2.81656 1.54846
818 2 5.01623 3.87218 1.56637
819 2 3.98502 9.19303 7.45093
820 2 3.35776 5.14392 7.58446
821 2 2.16549 1.33929 5.88449
822 2 0.643743 9.17747 1.95954
823 2 3.79634 4.56468 8.9846
824 2 8.97539 1.61676 0.108524
825 2 5.29309 1.90317 3.36968
826 2 3.20732 5.31466 1.66451
827 2 0.288039 2.67077 1.38236
828 2 0.0818711 8.00485 4.75997
829 2 1.77929 4.77151 8.01309
830 2 6.52983 9.02841 6.15587
831 2 5.74801 4.23594 1.16193
832 2 5.94376 6.33762 1.14107
833 2 1.65336 2.19145 7.58549
834 2 2.65785 5.20845 8.68874
835 2 7.30701 7.01471 8.44854
836 2 2.0344 0.512727 8.36894
837 2 0.222308 3.99446 7.09401
838 2 0.690299 0.798471 5.11707
839 2 5.6236 4.81628 8.16913
840 2 7.32267 2.73369 0.911615
841 2 7.99682 6.55962 3.80565
842 2 0.643907 5.5806 2.43584
843 2 4.79604 0.416961 7.78858
844 2 3.11747 8.46928 1.03818
845 2 1.34635 1.12325 7.41721
846 2 4.12549 6.52883 6.87604
847 2 7.0814 4.85393 9.11237
848 2 0.265442 6.46192 7.85461
849 2 7.81526 8.2557 5.29462
850 2 7.6455 1.05425 5.68693
851 2 3.57016 3.47285 0.564883
852 2 8.53682 5.7674 1.71334
853 2 5.8928 3.49727 2.6559
854 2 1.48716 1.36802 2.48053
855 2 4.38174 6.10734 0.51906
856 2 7.6312 0.596406 7.02428
857 2 4.49163 4.48981 0.534941
858 2 1.24555 6.08035 6.26618
859 2 9.34677 1.58128 7.80612
860 2 4.45199 6.68861 4.67826
861 2 3.58125 4.22557 5.07366
862 2 0.488095 9.40749 8.52795
863 2 5.85471 7.98431 8.68883
864 2 0.438486 4.7712 7.97741
865 2 6.10158 2.69324 6.50531
866 2 4.08724 2.14852 0.034912
867 2 9.17146 0.513969 1.29711
868 2 9.30392 2.40586 7.207
869 2 1.38972 6.94358 7.41158
870 2 5.44434 2.81725 0.519953
871 2 6.15011 6.39333 4.56888
872 2 4.04745 1.41382 1.49161
873 2 5.33339 7.30466 8.51613
874 2 8.27906 9.06775 3.88779
875 2 7.5504 6.36672 6.46277
876 2 0.73413 8.28468 6.74147
877 2 9.00169 3.336 3.91805
878 2 4.21509 3.04227 1.65219
879 2 0.419732 4.80957 0.0609395
880 2 2.53926 2.7897 2.73485
881 2 2.72998 6.88839 1.8805
882 2 2.16824 0.253679 1.24022
883 2 6.69645 0.38979 3.6152
884 2 9.28746 4.58006 5.35684
885 2 5.22061 5.451 6.99328
886 2 5.9489 0.55114 7.42002
887 2 1.08985 8.81444 6.04446
888 2 6.26061 8.85287 2.29983
889 2 0.919453 6.02916 8.29881
890 2 7.91056 0.520954 4.41401
891 2 6.31948 5.61318 3.67752
892 2 3.52369 4.41151 2.63389
893 2 6.08137 8.82598 8.01184
894 2 5.8953 8.05451 0.732376
895 2 4.20108 4.43452 6.30094
896 2 6.20406 5.68812 6.82753
897 2 5.23876 3.60522 5.88988
898 2 0.113853 0.964999 3.03026
899 2 2.0617 6.82603 4.00592
900 2 5.98438 4.68588 4.72201
901 2 6.37212 2.78954 3.99921
902 2 7.97651 9.33097 1.18389
903 2 0.230529 8.25212 3.48086
904 2 2.0304 0.0497493 6.93338
905 2 3.26871 3.82229 7.67149
906 2 5.68734 9.07022 0.793746
907 2 0.868712 4.53556 6.66152
908 2 3.81996 9.10928 8.67294
909 2 8.05056 1.87869 6.94083
910 2 5.47136 3.26284 7.81128
911 2 5.30269 5.72566 3.79933
912 2 0.927479 8.10279 2.54477
913 2 7.48882 4.00927 0.889578
914 2 5.723 6.77109 9.2918
915 2 1.35353 7.75804 4.4028
916 2 3.09797 5.81893 4.56401
917 2 3.89428 8.98622 3.32189
918 2 7.29251 3.80459 7.17786
919 2 7.05351 1.69146 3.35933
920 2 2.66779 4.69414 0.208964
921 2 8.50589 3.56929 5.16605
922 2 9.14407 3.03331 0.121122
923 2 8.60183 4.66763 9.40963
924 2 1.32402 5.59819 0.184576
925 2 2.96855 9.14867 5.87807
926 2 3.6335 1.34283 6.78036
927 2 0.477396 3.09274 5.6696
928 2 1.41674 3.38409 8.06434
929 2 7.46093 2.64044 8.40452
930 2 2.6378 8.90641 8.19338
931 2 9.29563 7.87636 8.20025
932 2 1.52094 7.16259 0.409338
933 2 7.11452 4.17442 4.1878
934 2 4.54686 8.12174 8.01095
935 2 6.31828 5.66567 8.13185
936 2 0.346262 2.67897 3.21842
937 2 8.7545 6.57773 8.9411
938 2 9.0898 8.93324 7.03678
939 2 0.0835018 5.77791 6.967
940 2 8.4977 9.37994 5.31394
941 2 2.01854 3.09597 6.32936
942 2 5.10772 0.488061 3.68056
943 2 4.43496 3.58557 0.25145
944 2 9.12722 7.19689 2.88615
945 2 6.58684 7.4739 5.54837
946 2 1.89852 0.367725 0.391329
947 2 2.92338 5.98258 0.294378
948 2 3.47798 6.69017 2.5286
949 2 2.68723 5.75266 1.11179
950 2 3.41793 8.81765 4.79547
951 2 6.98993 6.9173 3.28961
952 2 5.94073 8.19608 7.22699
953 2 1.58119 7.198 5.74255
954 2 1.86905 8.30263 7.68332
955 2 4.24407 8.00744 3.43445
956 2 3.44855 6.53145 8.48598
957 2 0.02543 8.95797 4.20279
958 2 4.61046 1.28809 8.25577
959 2 1.40295 7.54788 1.64431
960 2 7.26293 5.22829 1.82396
961 2 3.01433 7.25365 7.47783
962 2 2.16678 2.25808 4.97634
963 2 5.29911 1.83941 1.80152
964 2 5.63887 6.72441 6.91686
965 2 4.48892 0.426031 1.42897
966 2 8.06071 8.19195 9.24357
967 2 5.8072 0.623129 2.20498
968 2 3.0825 3.52524 4.15887
969 2 0.979869 6.5442 3.18357
970 2 5.95698 2.12753 7.86009
971 2 4.49408 0.40718 0.262267
972 2 4.00198 6.05001 5.66033
973 2 1.28518 6.22592 1.57948
974 2 4.34835 4.19137 2.96791
975 2 0.932033 8.45614 0.859166
976 2 8.3013 1.29798 7.99138
977 2 4.29181 8.67256 6.39225
978 2 0.211264 6.69182 1.06257
979 2 8.28279 4.57164 7.84174
980 2 0.785449 3.90932 4.49576
981 2 8.44811 6.17089 5.31557
982 2 6.68124 3.57488 5.19846
983 2 8.83445 0.774199 6.11217
984 2 7.18687 4.60633 3.28152
985 2 6.67108 6.27453 0.433824
986 2 8.73606 8.71327 2.54214
987 2 6.26413 9.23366 9.46558
988 2 8.51895 2.44351 3.10086
989 2 0.0768314 7.54534 0.479499
990 2 1.10024 1.19976 8.732
991 2 3.14935 5.35681 5.81182
992 2 6.7725 0.352034 5.25139
993 2 0.948294 5.23241 4.10526
994 2 2.30105 4.06478 3.17231
995 2 4.82638 5.01948 8.85432
996 2 3.10919 6.85703 5.89087
997 2 4.20564 1.01907 2.72
998 2 7.88187 0.150557 2.46193
999 2 0.00845403 5.90592 3.1312