#bin. KALJ data file T=0.5

1000 atoms
2 atom types

0 9.4 xlo xhi
0 9.4 ylo yhi
0 9.4 zlo zhi

Masses

1 1.0
2 1.0

Atoms

1 1 1.30573 4.63921 8.82958
2 1 7.41243 5.76324 1.11819
3 1 3.14001 4.67181 2.73711
4 1 7.73462 8.00302 7.87994
5 1 3.46536 0.409076 3.95084
6 1 6.50201 8.59908 7.76687
7 1 0.417804 7.4227 0.100451
8 1 4.94027 0.497843 4.55516
9 1 2.94628 4.0576 6.30578
10 1 8.69599 7.53282 7.78504
11 1 7.31748 9.24299 6.31532
12 1 8.97791 1.13738 0.283027
13 1 0.749787 3.29493 0.714766
14 1 3.8517 5.30114 2.40267
15 1 6.68077 2.49656 0.382287
16 1 1.04117 0.458573 5.37328
17 1 8.27146 2.46711 1.47339
18 1 7.19512 6.60044 0.361873
19 1 2.66523 3.24976 8.72841
20 1 6.62669 4.80621 6.37085
21 1 9.27197 3.03983 3.09001
22 1 3.52523 2.85032 6.54028
23 1 6.17888 1.49915 9.1089
24 1 2.68101 2.37037 6.12133
25 1 7.5958 0.537884 7.8097
26 1 0.882563 4.22246 2.75235
27 1 9.1644 7.27969 2.31048
28 1 3.77012 3.73183 4.91865
29 1 1.67291 3.20971 5.91313
30 1 0.991233 2.54059 5.26888
31 1 2.86839 4.30863 1.40605
32 1 5.80232 7.35791 5.43359
33 1 2.01657 0.673408 7.94017
34 1 6.61413 8.91813 2.91435
35 1 7.76934 1.78219 3.66543
36 1 2.0818 8.62985 1.82013
37 1 5.26352 1.65578 1.47216
38 1 1.98336 6.54444 4.4652
39 1 1.73638 9.27645 6.04549
40 1 8.35357 2.72736 9.11969
41 1 8.60219 7.10763 6.79874
42 1 2.52722 8.47047 4.73453
43 1 0.982612 1.90023 8.839
44 1 4.73512 3.83526 4.45652
45 1 5.31469 2.06187 6.40285
46 1 2.93042 5.13088 4.30099
47 1 1.47238 6.11793 7.95135
48 1 4.86622 4.99179 2.81987
49 1 3.71328 3.90495 7.03976
50 1 1.798 0.0808542 3.92308
51 1 2.36133 6.03313 3.5615
52 1 3.80122 1.3619 1.16604
53 1 4.52549 2.07411 3.62874
54 1 7.88574 7.47653 0.233348
55 1 1.02958 3.84207 5.47291
56 1 1.15278 5.7465 9.096
57 1 0.887216 0.620836 8.19175
58 1 8.76489 8.14621 0.553447
59 1 8.7066 8.67438 5.01297
60 1 1.99078 7.61847 0.333758
61 1 5.04802 4.40057 1.80795
62 1 0.151711 0.229108 0.0966337
63 1 6.95435 7.48711 8.94978
64 1 8.08911 7.24771 8.69661
65 1 7.58942 2.18078 6.74981
66 1 3.00244 4.95116 7.06669
67 1 1.81635 9.12918 2.71571
68 1 4.59958 6.39118 0.113217
69 1 5.93738 4.92734 2.13615
70 1 0.534983 3.79162 3.63464
71 1 8.27243 4.30089 0.564369
72 1 6.43133 7.20991 6.40632
73 1 3.55536 6.85987 6.72761
74 1 6.67563 7.88551 5.29876
75 1 8.53276 0.892939 7.5801
76 1 5.6117 2.1984 0.518346
77 1 2.84201 3.18235 4.53977
78 1 1.77168 6.98688 1.24907
79 1 5.77086 1.16066 0.750904
80 1 1.04543 4.71236 6.11498
81 1 3.56877 0.428236 2.90211
82 1 6.69787 2.10363 4.80026
83 1 3.52957 7.11743 4.45205
84 1 0.793523 7.64867 7.31173
85 1 1.83754 3.23603 0.920632
86 1 4.47919 5.42919 0.757331
87 1 6.66787 3.37616 4.46454
88 1 9.13988 9.36379 6.68872
89 1 0.936675 2.62405 3.60272
90 1 5.84349 4.74669 3.51501
91 1 1.38657 6.05089 5.10286
92 1 8.09533 6.59563 7.78285
93 1 3.33227 8.89375 3.54274
94 1 8.91819 7.4102 3.32019
95 1 3.21368 5.84282 1.88295
96 1 2.28221 0.377804 9.09627
97 1 2.97224 2.72695 2.51471
98 1 5.98082 1.52285 2.21689
99 1 4.20431 9.16243 4.10896
100 1 4.9962 8.48105 4.16432
101 1 3.22823 6.87988 1.7706
102 1 6.57481 1.5534 3.24566
103 1 0.266601 8.03617 1.09995
104 1 4.0002 8.57677 9.20482
105 1 6.96242 7.5494 7.2954
106 1 6.91903 3.03181 6.37067
107 1 6.28772 7.28468 1.72543
108 1 7.31516 4.14836 6.53958
109 1 7.48464 5.04216 2.74358
110 1 8.33742 4.37909 6.20212
111 1 3.50006 7.54798 7.59883
112 1 4.6973 9.34456 1.60304
113 1 2.28119 4.36002 8.86869
114 1 3.10598 6.18178 4.34545
115 1 5.3824 1.44435 5.54934
116 1 6.33879 4.92124 8.24313
117 1 6.57598 5.84185 0.322917
118 1 7.70763 1.63289 7.71728
119 1 9.21435 6.30841 2.94033
120 1 3.79095 6.97784 2.66155
121 1 5.97208 8.04861 7.06967
122 1 9.25279 0.661042 8.53246
123 1 2.53339 1.53262 5.50627
124 1 4.36131 8.60796 3.29171
125 1 7.27235 4.26182 4.59981
126 1 0.156399 5.51842 0.204858
127 1 1.7795 8.1285 5.28717
128 1 4.27103 0.696833 8.55213
129 1 2.94378 3.249 1.22067
130 1 2.68763 7.41359 6.91562
131 1 1.92986 1.0782 3.60273
132 1 6.29204 6.04521 3.90384
133 1 6.58658 6.38651 1.2338
134 1 4.62492 1.23463 6.23246
135 1 4.98425 1.86012 4.70824
136 1 1.5152 0.989778 8.91857
137 1 2.135 5.32122 8.43897
138 1 5.39751 5.61964 7.68344
139 1 0.83935 7.75104 3.97938
140 1 3.54472 4.62275 5.56422
141 1 4.66298 8.85773 5.1139
142 1 1.60651 3.5147 8.75578
143 1 5.2156 7.48039 7.66366
144 1 0.646177 3.3493 7.37843
145 1 5.58611 4.54527 7.75874
146 1 7.6893 9.40282 3.15378
147 1 5.00656 7.94674 5.5613
148 1 4.50691 4.06754 7.70662
149 1 0.153039 6.46555 1.83378
150 1 4.7908 0.203056 7.70228
151 1 0.984222 6.65738 6.0935
152 1 4.70925 7.10759 8.85389
153 1 0.208716 6.47932 9.23959
154 1 6.56187 3.956 7.96719
155 1 6.84343 5.64444 2.0686
156 1 5.40188 0.910847 2.82067
157 1 7.05266 1.41467 6.19336
158 1 3.61675 1.61956 8.30626
159 1 1.4302 8.62499 4.45244
160 1 6.96085 8.30146 6.27575
161 1 9.28236 3.83456 0.919371
162 1 0.403104 0.416771 1.59536
163 1 9.37602 3.01532 5.76545
164 1 5.27395 6.63104 3.21654
165 1 6.34203 9.2069 1.67801
166 1 0.304583 4.88632 5.38819
167 1 4.63981 7.56081 2.66845
168 1 7.38179 4.83964 0.680678
169 1 3.62889 5.77976 6.85169
170 1 2.75598 1.2215 6.4472
171 1 1.53402 3.72013 3.4685
172 1 3.75774 3.22618 2.08757
173 1 8.05353 8.235 9.00873
174 1 1.92545 3.59064 4.80693
175 1 5.46756 8.51305 3.08769
176 1 1.47511 1.50328 5.15535
177 1 2.36594 7.55042 1.88283
178 1 8.5003 8.42492 7.24979
179 1 5.7091 7.44361 2.70847
180 1 1.91522 9.22057 5.07215
181 1 7.28316 7.32069 1.15524
182 1 4.67329 2.67978 1.75278
183 1 3.38204 8.20301 8.45615
184 1 1.95041 2.5271 8.577
185 1 0.598132 5.9654 7.24138
186 1 0.598508 5.44928 4.58114
187 1 1.40338 2.70717 0.0509785
188 1 2.84284 6.21587 0.853214
189 1 1.38939 1.9144 4.15652
190 1 7.73745 4.27426 3.6547
191 1 4.71777 4.20199 8.8832
192 1 8.96747 5.87491 7.55679
193 1 3.66806 7.31267 5.55297
194 1 3.22196 2.97986 0.196808
195 1 0.576474 7.63715 2.92809
196 1 2.26627 0.829244 4.71536
197 1 2.23982 5.06346 5.11692
198 1 2.55749 3.79745 0.449635
199 1 2.61026 6.34784 6.71521
200 1 4.2683 0.311732 6.46586
201 1 8.86743 7.01183 0.260393
202 1 0.0700244 2.969 4.17554
203 1 5.18846 6.47562 7.10106
204 1 4.1939 3.02195 7.2949
205 1 7.80111 7.87082 6.61848
206 1 9.24739 2.33162 4.95821
207 1 6.91364 2.39104 7.48115
208 1 7.29993 4.56938 5.59968
209 1 4.37438 1.33546 7.71826
210 1 1.71384 3.45239 7.62655
211 1 2.20734 1.88739 2.2842
212 1 6.40244 8.05507 3.31916
213 1 3.23011 1.12921 4.81373
214 1 6.84978 3.24397 8.78173
215 1 2.15298 4.43682 4.17075
216 1 4.69861 3.79803 6.65326
217 1 9.00627 8.86304 8.68002
218 1 4.3968 3.64991 1.39508
219 1 5.34913 7.96904 0.669917
220 1 9.02617 2.68046 2.17336
221 1 9.037 9.29655 7.76301
222 1 4.5848 4.30464 0.563138
223 1 3.64358 8.42555 0.76805
224 1 7.25166 6.19439 2.95425
225 1 3.89137 4.74372 6.51829
226 1 9.03815 7.15724 1.24579
227 1 5.41581 8.65854 1.41567
228 1 5.83783 3.02894 9.14804
229 1 0.191953 0.688197 7.46686
230 1 3.67625 0.544295 1.84472
231 1 8.71562 5.01955 6.99034
232 1 5.78802 5.69772 8.69926
233 1 0.128303 8.32001 7.8968
234 1 0.928423 0.532509 0.721971
235 1 7.67682 5.11657 6.68092
236 1 2.63941 0.261317 7.00804
237 1 7.20375 1.93685 1.63323
238 1 6.57924 0.0809571 8.31917
239 1 2.02559 7.73345 6.24824
240 1 4.77569 0.452259 5.62744
241 1 2.65457 7.69859 2.97626
242 1 7.85489 1.99189 4.69415
243 1 2.09283 8.68377 9.31554
244 1 6.93629 0.723249 9.19748
245 1 5.43161 4.09715 2.85547
246 1 1.6766 5.98271 0.954018
247 1 5.62372 3.5745 3.9637
248 1 6.80878 0.26039 3.5941
249 1 0.158072 4.80624 7.56678
250 1 3.13299 7.9429 3.97402
251 1 9.2816 4.012 5.54573
252 1 4.59799 3.8209 3.38898
253 1 0.751103 5.64553 6.28779
254 1 6.22297 1.98057 1.33572
255 1 5.59696 8.37534 8.26436
256 1 0.0100408 4.28234 8.56328
257 1 2.9203 7.91106 9.34847
258 1 2.69835 1.1498 2.84993
259 1 3.73759 5.41226 8.50434
260 1 5.17261 2.38311 7.40452
261 1 6.39812 4.14319 9.01395
262 1 3.897 8.92822 2.26069
263 1 8.8792 3.44957 4.82385
264 1 7.51212 6.09679 5.00641
265 1 6.15603 4.37618 4.37261
266 1 8.19497 7.14239 4.07868
267 1 3.84503 2.7982 1.03518
268 1 5.23961 1.16094 8.3466
269 1 3.06007 6.81876 0.0188171
270 1 7.627 9.04271 5.21129
271 1 9.32738 9.08215 1.0564
272 1 6.98815 1.22687 4.31768
273 1 7.92282 3.28071 3.27175
274 1 6.45054 6.26267 7.9761
275 1 4.26807 7.82392 4.85726
276 1 8.37821 4.70508 2.53618
277 1 5.80007 2.60739 4.60199
278 1 2.01519 4.21145 5.72969
279 1 2.95216 1.28245 1.81034
280 1 4.16559 4.29337 2.40055
281 1 5.99545 7.91405 4.31169
282 1 8.96617 0.0938506 3.48503
283 1 7.93087 8.09967 4.47955
284 1 7.9461 7.05484 5.83421
285 1 4.1693 6.24151 2.04655
286 1 9.42198 1.55745 7.83258
287 1 4.65289 8.93173 8.5099
288 1 2.34137 1.33877 0.151157
289 1 6.31755 1.08155 5.11347
290 1 0.711935 9.19235 7.56475
291 1 5.31922 0.500105 6.62925
292 1 1.53544 5.90307 6.9379
293 1 1.87508 7.65793 4.39418
294 1 8.59262 3.402 8.24173
295 1 7.62137 6.03184 6.22849
296 1 5.63166 6.88083 1.05105
297 1 2.32831 2.38801 0.314656
298 1 3.39978 6.23527 5.93926
299 1 6.2408 6.47831 2.46396
300 1 6.63398 4.36812 2.69607
301 1 8.68929 1.81977 7.07813
302 1 1.11911 0.82584 4.25764
303 1 0.616197 8.97615 8.54695
304 1 6.70176 3.53885 1.87417
305 1 4.89941 2.61237 9.17863
306 1 0.26482 8.53678 4.25769
307 1 5.60167 0.0575508 0.78289
308 1 6.53441 0.535582 6.06753
309 1 9.15992 3.85166 7.55176
310 1 2.55142 3.22339 6.6913
311 1 8.69904 8.19437 1.69394
312 1 2.33333 6.44093 1.80098
313 1 5.64716 0.642437 1.66898
314 1 5.79069 5.83377 1.48677
315 1 5.66683 4.36391 6.70875
316 1 2.29154 5.04154 3.37188
317 1 9.37993 1.8562 5.92665
318 1 8.6226 6.05177 9.29167
319 1 3.57453 8.97892 6.70258
320 1 5.21903 7.5988 3.67585
321 1 3.91972 4.66477 4.48574
322 1 0.0228168 6.82735 7.42345
323 1 5.56307 9.28273 2.43046
324 1 3.30506 4.04768 9.07931
325 1 3.29953 5.2936 0.960397
326 1 0.191227 9.36598 4.92187
327 1 4.90037 0.274925 9.36691
328 1 3.91273 2.29072 9.20598
329 1 7.62877 3.31038 0.167519
330 1 3.81908 0.195882 9.26687
331 1 3.5813 1.86695 6.17113
332 1 2.42866 2.00309 7.11383
333 1 6.97777 4.55644 1.67427
334 1 2.70852 6.95267 5.87435
335 1 6.18252 3.28845 2.72255
336 1 0.469301 4.05307 4.64589
337 1 5.46662 6.65878 8.17821
338 1 8.55584 2.13811 8.19656
339 1 0.973408 4.29043 7.19318
340 1 1.29493 8.22842 2.40621
341 1 8.39563 1.16523 8.59452
342 1 5.44375 5.8032 2.5074
343 1 3.26405 5.60584 3.38726
344 1 2.84366 8.03907 5.72068
345 1 4.43284 6.74403 6.18263
346 1 6.96713 3.75079 0.861668
347 1 2.88068 2.26137 8.91667
348 1 7.38468 5.96143 7.31324
349 1 5.93288 2.82658 7.93062
350 1 5.0058 5.96455 4.63631
351 1 8.92065 5.55184 1.91467
352 1 1.29547 8.37222 6.4824
353 1 1.41506 1.86 3.07243
354 1 2.17502 7.00311 8.90753
355 1 9.10133 6.15241 0.967583
356 1 6.29982 3.52827 7.08143
357 1 8.50411 0.220618 9.15884
358 1 6.96219 6.71826 5.60564
359 1 3.8255 4.85933 7.61701
360 1 2.84368 4.25723 4.93446
361 1 3.82743 3.01448 4.03408
362 1 4.77407 3.42714 2.40052
363 1 7.89133 6.07221 1.98859
364 1 1.77558 3.95368 6.70204
365 1 0.516679 2.36972 0.26528
366 1 6.25481 7.00871 3.56811
367 1 0.784042 4.22558 1.13312
368 1 2.93539 0.0563829 4.78845
369 1 8.13661 4.16998 7.32988
370 1 5.52943 0.0545376 8.3829
371 1 1.81639 5.54915 5.9143
372 1 1.80516 4.47307 7.87387
373 1 7.13867 8.22644 0.341867
374 1 8.05578 5.29213 5.53598
375 1 5.58789 6.46803 6.11756
376 1 2.89509 1.07004 7.55777
377 1 2.22169 8.14424 8.42202
378 1 6.74501 0.992345 1.69681
379 1 6.91284 5.33007 4.54995
380 1 6.23558 4.78434 5.30139
381 1 3.0639 9.03324 1.43059
382 1 7.25802 6.52326 4.00897
383 1 0.769985 9.34434 6.40414
384 1 2.58714 0.163906 3.16277
385 1 4.94655 8.08314 9.08969
386 1 1.07644 3.21051 4.42774
387 1 8.89334 1.24056 5.1831
388 1 7.77483 2.2147 0.388108
389 1 5.7001 3.68229 5.02107
390 1 2.47586 5.57393 2.56919
391 1 5.93509 0.416409 9.27138
392 1 4.68285 0.972672 2.00232
393 1 1.10451 6.71762 8.66459
394 1 7.81841 3.76971 1.43888
395 1 0.653255 9.36303 3.88442
396 1 3.41566 2.03822 3.21822
397 1 6.05325 4.25437 1.22257
398 1 6.83044 4.64786 3.6569
399 1 7.78063 2.0373 2.53353
400 1 0.727908 6.6621 2.69033
401 1 3.43351 2.04711 7.34117
402 1 0.616457 6.73003 0.911798
403 1 2.25118 4.78535 0.535632
404 1 6.44501 5.71725 5.73926
405 1 4.42685 2.65558 6.04878
406 1 6.77757 9.16757 0.0886773
407 1 6.79877 0.139228 7.3022
408 1 0.139787 3.65167 2.06553
409 1 4.77303 3.66506 5.59699
410 1 0.879181 1.35694 5.96701
411 1 6.8812 0.25299 4.64845
412 1 9.22692 0.764806 4.24532
413 1 0.711063 7.30445 1.83194
414 1 7.90556 1.01974 0.129929
415 1 8.85736 0.885912 1.5051
416 1 8.77236 1.72136 2.15338
417 1 8.87641 5.53723 4.86718
418 1 4.18234 1.11416 4.24434
419 1 5.65192 2.48496 2.18008
420 1 8.51818 2.39339 6.14598
421 1 4.82568 6.9751 5.16532
422 1 0.0979279 0.615372 5.75301
423 1 1.73726 3.74703 2.43772
424 1 4.18603 7.58761 3.7399
425 1 2.12032 2.56993 5.14909
426 1 6.02271 1.33742 6.60572
427 1 8.93896 3.56789 6.59014
428 1 1.85022 8.01023 7.33944
429 1 6.87606 8.18702 1.42747
430 1 5.18729 9.04381 6.07073
431 1 8.3584 2.90809 7.24865
432 1 6.07416 7.02578 7.30357
433 1 1.81275 6.86726 5.51002
434 1 7.6514 8.63408 2.09272
435 1 1.24643 2.38373 2.18167
436 1 0.283631 8.48416 9.36619
437 1 7.89206 8.1982 1.09981
438 1 8.98936 7.78391 8.94109
439 1 3.68589 7.98597 2.87017
440 1 8.32446 5.67171 2.94907
441 1 6.14275 2.61944 3.60881
442 1 5.3183 2.59594 5.53487
443 1 3.8682 7.49929 9.17843
444 1 1.0111 7.01795 4.70116
445 1 4.52842 2.22134 8.26387
446 1 7.2633 3.40801 7.3184
447 1 2.206 4.62995 2.13118
448 1 7.23342 5.47557 8.17628
449 1 3.1698 0.90559 0.409644
450 1 3.46733 5.89472 0.178611
451 1 4.91256 8.48195 7.45093
452 1 4.43222 7.44607 7.00678
453 1 3.93295 8.33467 5.70316
454 1 3.5948 8.62846 4.72983
455 1 0.276691 5.95114 5.43676
456 1 8.44878 6.02962 6.76574
457 1 4.645 8.87044 0.608153
458 1 3.68412 6.58007 3.56343
459 1 8.75453 4.29891 1.69912
460 1 5.26575 3.42667 7.35195
461 1 9.21454 4.26602 2.84574
462 1 1.34664 7.96853 1.42853
463 1 4.12905 1.16901 0.1634
464 1 9.32504 2.71799 7.76215
465 1 2.41878 8.70554 6.4723
466 1 4.69941 0.770924 0.943751
467 1 4.5312 1.97035 0.698645
468 1 7.17795 8.77312 4.0829
469 1 7.88216 3.4216 4.33315
470 1 0.895954 2.89668 8.36098
471 1 4.58822 8.36504 6.53625
472 1 8.22544 4.1185 5.21594
473 1 6.66992 2.26222 8.48552
474 1 1.64688 7.66392 3.29224
475 1 3.51757 2.68876 8.07746
476 1 0.574108 1.10685 9.3545
477 1 1.17942 8.32467 8.0952
478 1 1.70184 0.817198 2.63522
479 1 1.0811 3.34573 1.68238
480 1 8.12688 8.95852 8.03858
481 1 2.74471 7.25904 0.955642
482 1 4.02849 5.73948 4.18043
483 1 5.21149 6.7003 2.07416
484 1 6.76544 1.17992 8.3039
485 1 5.908 5.03289 0.0859014
486 1 0.431534 2.18121 2.84847
487 1 1.1631 4.69087 3.67522
488 1 8.23491 6.05477 4.19402
489 1 2.26974 0.828876 1.094
490 1 5.53236 6.91325 4.31214
491 1 6.94402 7.9213 2.47221
492 1 1.12502 8.25611 0.405631
493 1 7.14801 8.55611 8.69722
494 1 7.33542 2.64687 4.05396
495 1 2.93688 2.2498 1.43535
496 1 2.52553 1.83155 4.58243
497 1 1.6568 9.21867 8.39011
498 1 8.2038 1.51922 1.01583
499 1 4.83979 2.87476 4.07559
500 1 4.82438 6.2866 1.22841
501 1 4.69234 5.69026 6.32755
502 1 0.860189 3.18876 2.74594
503 1 3.99404 6.39234 5.04561
504 1 5.24952 7.62108 1.71909
505 1 6.86698 5.10402 9.1367
506 1 2.83754 5.46027 6.20828
507 1 7.48923 6.32123 8.82028
508 1 3.72726 7.36607 0.905973
509 1 8.85985 2.19201 0.496519
510 1 3.78379 1.34413 2.56272
511 1 5.64664 3.29362 6.29512
512 1 8.2378 6.86363 2.80462
513 1 2.31228 8.50823 3.54571
514 1 9.23852 5.7829 3.90146
515 1 7.51562 5.47554 3.65911
516 1 2.6222 7.02625 3.85633
517 1 8.48388 0.516356 2.56288
518 1 2.54875 2.8249 7.67134
519 1 3.86812 3.64361 6.04798
520 1 2.6793 4.0089 7.32834
521 1 8.21325 0.446967 6.11977
522 1 5.66517 9.23497 7.40555
523 1 1.6633 6.22335 2.76186
524 1 0.362386 1.59306 6.82193
525 1 8.51113 3.23951 0.763306
526 1 5.07007 1.46196 9.35721
527 1 6.38294 0.600994 2.72833
528 1 5.8888 5.384 4.58884
529 1 6.28022 1.99515 5.75519
530 1 7.47117 6.89533 6.73382
531 1 8.45656 0.303445 0.806121
532 1 5.35464 4.97972 0.974863
533 1 8.16939 0.777201 3.6465
534 1 7.0989 7.74406 4.05625
535 1 7.57667 7.27328 4.93949
536 1 0.311997 6.82104 3.77913
537 1 9.3827 2.76655 8.78673
538 1 3.95473 0.29978 5.02507
539 1 4.38302 1.94147 6.89152
540 1 1.41599 4.10609 0.24595
541 1 7.62859 3.04026 2.10028
542 1 0.031695 2.71868 1.23168
543 1 1.22242 0.630256 7.21965
544 1 5.99852 8.2995 2.15867
545 1 8.53961 6.1803 5.66445
546 1 1.64358 5.40101 4.27229
547 1 9.35307 8.85796 5.8484
548 1 9.35587 6.31899 6.39401
549 1 7.8881 3.25385 6.20776
550 1 8.77512 7.86314 6.04243
551 1 3.90585 4.81092 0.135702
552 1 9.23471 1.73339 8.90759
553 1 1.78436 1.99607 5.99332
554 1 1.29796 4.73446 4.95977
555 1 6.06114 1.60167 4.19634
556 1 1.65228 2.71837 6.81581
557 1 0.636982 5.67138 2.35817
558 1 6.95022 3.58414 3.48438
559 1 4.40302 8.17325 1.36465
560 1 3.20465 2.3343 5.17645
561 1 8.86806 1.69287 4.25102
562 1 9.36948 2.58493 6.71263
563 1 4.78001 5.40337 1.77797
564 1 5.74608 0.194014 5.13934
565 1 8.11186 2.84009 5.24785
566 1 3.34009 8.00222 1.73369
567 1 8.17639 5.2106 7.8675
568 1 4.9819 5.12664 9.25198
569 1 7.06159 2.55088 3.04501
570 1 7.1557 6.91136 2.20406
571 1 0.169273 8.40651 6.83673
572 1 2.52809 0.326308 2.13583
573 1 7.30185 3.44964 5.33898
574 1 3.75451 2.23422 2.00503
575 1 7.57626 3.99151 2.53854
576 1 4.75953 4.88937 7.15368
577 1 3.54971 7.93699 6.51907
578 1 5.19212 1.21716 3.8861
579 1 0.447593 1.56142 4.80483
580 1 8.64328 7.34776 5.15267
581 1 0.950493 8.78655 5.32357
582 1 4.97328 3.0862 0.759381
583 1 1.33635 1.21725 1.72291
584 1 0.337387 4.76523 2.01596
585 1 1.73144 9.10456 7.14244
586 1 5.56252 3.4234 1.70892
587 1 5.51391 7.07714 0.0377048
588 1 0.546598 5.66517 1.25331
589 1 3.12687 3.9984 3.98962
590 1 7.17875 6.96049 8.08256
591 1 2.57252 8.30564 0.920428
592 1 8.25167 5.35149 0.593966
593 1 8.65558 2.23862 3.19297
594 1 5.88674 0.534528 4.19686
595 1 6.93192 1.45274 0.605937
596 1 0.422272 4.48811 0.162297
597 1 6.63312 2.55367 2.14246
598 1 7.85413 1.19824 6.80274
599 1 1.97999 2.77987 4.09226
600 1 1.25755 7.68671 8.93656
601 1 7.89134 8.90434 0.342757
602 1 2.87297 6.11487 8.61099
603 1 8.50223 2.61631 4.14946
604 1 3.91565 8.68903 7.73057
605 1 0.797498 2.29172 7.53166
606 1 0.190148 6.98982 5.41757
607 1 1.03892 5.16225 7.89887
608 1 8.88516 6.64705 8.48295
609 1 3.01322 8.96124 9.09789
610 1 3.3523 9.12749 5.68261
611 1 2.85964 3.75565 2.25381
612 1 8.27401 4.44221 8.52542
613 1 7.28679 9.09388 1.22374
614 1 8.04015 1.40512 5.72399
615 1 8.43119 8.88979 2.78764
616 1 7.48759 4.25886 9.2852
617 1 2.95514 3.06851 3.53333
618 1 5.95973 6.38145 5.13586
619 1 5.56829 3.75844 8.41868
620 1 9.22526 4.88773 1.02966
621 1 5.64207 8.5672 5.02756
622 1 3.58651 3.72952 3.07801
623 1 1.16033 8.6056 3.41796
624 1 7.80437 8.12033 5.57036
625 1 3.2016 0.639396 8.60223
626 1 7.97565 5.08054 4.542
627 1 9.02994 6.58513 4.62655
628 1 1.37563 5.15942 1.54453
629 1 7.35221 8.68907 7.21077
630 1 0.768939 8.77642 1.56873
631 1 1.24994 6.34014 1.80601
632 1 7.34033 2.28001 5.66621
633 1 2.87283 8.64439 2.5194
634 1 4.46596 0.968288 3.23027
635 1 4.55349 0.159764 2.6277
636 1 4.31002 7.21842 1.75862
637 1 6.35939 3.95406 5.93407
638 1 0.199727 7.41124 6.37381
639 1 8.92895 4.58003 4.57046
640 1 7.56228 3.79962 8.22881
641 1 1.24876 9.39626 9.3066
642 1 9.17645 1.35325 3.19349
643 1 3.67005 0.248242 7.61304
644 1 2.37164 2.07089 3.29192
645 1 6.07311 3.12508 0.911631
646 1 6.19473 7.46677 8.21107
647 1 6.552 6.95483 4.5576
648 1 6.35353 2.97965 5.40347
649 1 8.56072 4.91434 3.5866
650 1 5.26245 1.36233 7.19397
651 1 7.90927 5.25525 8.99064
652 1 5.36183 5.51737 5.55357
653 1 7.56485 0.0864963 8.76323
654 1 8.13389 6.55273 0.870635
655 1 2.73402 9.20685 8.01479
656 1 2.12243 2.8306 1.82626
657 1 5.27872 7.43171 6.41186
658 1 8.92425 1.02659 6.51075
659 1 8.86215 4.77088 9.34625
660 1 2.50191 5.79324 7.5197
661 1 1.89214 1.86902 1.24185
662 1 2.63714 7.32469 4.97218
663 1 1.56895 7.31048 8.02114
664 1 1.49664 0.154645 1.67579
665 1 3.0241 7.16312 8.46532
666 1 8.8133 3.7443 3.7631
667 1 4.70854 5.97162 8.57479
668 1 4.70074 4.96596 8.2591
669 1 6.06793 2.57131 6.87444
670 1 6.56616 8.92174 5.34208
671 1 1.04302 7.57202 5.69719
672 1 5.30391 5.71267 3.61771
673 1 6.31607 8.95886 6.67545
674 1 3.58285 3.91504 0.746297
675 1 9.0644 7.65827 4.32175
676 1 3.8192 6.26338 1.04733
677 1 6.36338 6.60093 8.96055
678 1 8.51011 3.57157 2.45855
679 1 4.40931 3.2856 8.42019
680 1 2.12062 6.00139 0.0612139
681 1 5.8957 8.32584 6.01602
682 1 4.07424 2.74814 2.95763
683 1 7.47695 0.700266 1.05856
684 1 5.58035 8.84861 9.28318
685 1 0.0583444 4.48357 6.56849
686 1 2.94459 8.33493 7.39068
687 1 4.33931 5.77081 7.54427
688 1 6.0666 7.99345 9.11612
689 1 7.94889 0.943335 4.6802
690 1 8.10184 7.82578 2.5025
691 1 3.41967 6.45597 7.69548
692 1 0.690781 3.48779 6.37137
693 1 0.766576 5.89834 3.38369
694 1 0.332101 7.29852 8.2795
695 1 1.76318 0.863265 6.29779
696 1 8.99197 5.32716 8.42704
697 1 5.71336 5.6207 6.65808
698 1 7.70277 2.75851 8.12359
699 1 1.75816 6.88936 7.04066
700 1 8.19482 9.37531 1.73566
701 1 8.29249 8.76714 6.1795
702 1 7.3438 0.681248 5.42407
703 1 2.63399 9.37415 0.538631
704 1 4.31833 5.95024 3.0726
705 1 6.84257 1.20965 7.21932
706 1 4.34894 5.42539 5.34269
707 1 2.78267 3.35068 5.57486
708 1 3.8279 0.244089 0.876648
709 1 4.26148 3.40487 0.00516325
710 1 3.33145 5.49212 5.13047
711 1 3.67467 1.1502 6.91602
712 1 8.05941 7.11585 1.74171
713 1 4.823 4.66816 6.00246
714 1 6.07133 8.87698 3.93152
715 1 6.41072 5.44675 2.9957
716 1 8.20343 0.0142108 7.151
717 1 2.4828 6.00783 5.37518
718 1 6.45265 5.14932 1.03917
719 1 3.61486 0.86799 5.85282
720 1 6.51849 5.39357 7.25148
721 1 3.83872 6.52264 8.7382
722 1 4.42978 7.90851 8.26351
723 1 3.31856 1.97514 0.500318
724 1 0.146399 1.03364 2.30509
725 1 0.201545 8.04438 5.18852
726 1 3.45303 3.67637 8.03837
727 1 7.20472 4.64452 7.48348
728 1 0.814646 2.39849 6.31267
729 1 1.8993 2.88874 2.96178
730 1 5.97973 0.789848 7.62215
731 1 0.610978 3.53879 9.12621
732 1 5.45742 5.85662 0.423186
733 1 1.40398 6.71428 3.64514
734 1 4.8582 8.52394 2.20607
735 1 1.56541 7.17344 2.39214
736 1 1.4082 6.72462 0.255624
737 1 2.43055 5.3632 1.43651
738 1 0.381098 5.94786 8.24117
739 1 1.64456 1.62487 7.88873
740 1 4.00423 4.6332 1.40857
741 1 8.12513 9.2599 4.26858
742 1 3.75441 2.05687 4.38832
743 1 6.43633 7.43039 0.544521
744 1 4.65621 1.91633 2.5744
745 1 1.75758 4.22422 1.29602
746 1 4.93301 4.774 4.05467
747 1 0.764516 9.2224 2.54106
748 1 4.49777 6.7603 7.92187
749 1 7.19634 0.241988 2.23765
750 1 8.68079 8.40872 3.72768
751 1 2.91898 5.12222 9.18497
752 1 7.44265 2.87132 1.13226
753 1 6.0916 1.85142 7.61066
754 1 0.217376 1.41303 0.922927
755 1 6.21377 8.60456 0.743642
756 1 2.95031 4.6421 8.16226
757 1 9.21253 5.27497 2.86576
758 1 5.19992 2.86812 3.11599
759 1 7.64538 1.90592 8.8145
760 1 4.02355 4.70544 3.3877
761 1 7.83806 1.12349 1.95021
762 1 5.74051 3.91782 0.312723
763 1 8.85876 3.67325 9.31384
764 1 2.35447 6.68527 7.9089
765 1 1.72549 8.94028 0.886066
766 1 0.86699 3.9329 8.20447
767 1 4.13844 1.7052 5.34933
768 1 7.96105 5.03099 1.57371
769 1 6.64485 6.1782 6.60185
770 1 0.220951 8.22462 2.18599
771 1 9.18971 9.25577 2.13447
772 1 5.0943 0.0826505 3.57297
773 1 2.79463 6.68052 2.73335
774 1 2.50267 1.42864 8.51659
775 1 4.70438 7.2218 0.703427
776 1 2.48731 3.96853 3.22347
777 1 5.23979 4.64609 5.00524
778 1 1.073 2.43491 1.08479
779 1 7.4366 1.04055 2.898
780 1 7.52348 8.34781 3.20901
781 1 1.42247 5.06966 2.56158
782 1 1.43389 1.71291 6.94939
783 1 4.3753 2.66064 4.99515
784 1 0.534442 1.65587 3.7952
785 1 7.3906 7.24395 3.24154
786 1 2.97543 1.3387 3.85123
787 1 0.171305 4.82304 3.74121
788 1 0.376002 1.94315 1.80993
789 1 8.6129 0.301744 5.08916
790 1 0.756662 0.854337 3.24561
791 1 6.52494 0.397008 0.84053
792 1 1.98533 4.917 6.6962
793 1 5.604 2.09585 8.55731
794 1 1.24299 5.12842 0.540723
795 1 4.6262 6.64969 4.05104
796 1 9.02504 5.3519 6.06685
797 1 1.31702 1.55127 0.516237
798 1 2.60995 0.403131 5.84737
799 1 5.55571 1.87021 3.14127
800 1 0.0856812 8.74349 3.11807
801 2 2.70997 4.71137 5.73307
802 2 0.42175 3.26447 5.03995
803 2 4.41497 8.02763 0.42213
804 2 4.60718 1.17339 5.0721
805 2 3.13468 6.56031 5.13981
806 2 2.02671 6.92581 3.13934
807 2 8.22504 2.75047 2.67837
808 2 1.23561 0.148538 3.17331
809 2 8.81564 4.80299 5.51087
810 2 7.25446 2.7842 4.90806
811 2 5.05376 3.17795 4.9217
812 2 0.617251 8.32856 6.00656
813 2 5.38049 2.03053 4.0059
814 2 0.0611435 5.39907 6.91126
815 2 2.05288 0.933971 7.09938
816 2 8.83203 7.04353 5.9731
817 2 3.99318 8.3427 3.99296
818 2 4.28059 6.44715 7.02842
819 2 4.31344 4.32282 5.27865
820 2 3.8522 7.21632 8.33219
821 2 0.555748 0.777581 6.62114
822 2 1.81539 5.69098 2.01791
823 2 3.23213 3.27773 7.27929
824 2 8.35972 5.76126 1.2915
825 2 6.59139 3.40219 0.182864
826 2 5.66711 4.57966 8.77798
827 2 0.337021 2.21364 8.28976
828 2 1.18901 7.42326 6.51889
829 2 9.27834 7.67928 7.26368
830 2 5.44372 4.09349 5.79144
831 2 4.28024 5.60472 9.29773
832 2 7.09169 4.50613 8.52154
833 2 3.95375 4.60491 8.71884
834 2 7.49355 0.216574 0.272228
835 2 0.797223 9.05773 0.668445
836 2 3.58712 3.27762 8.82045
837 2 0.266396 3.3847 8.18128
838 2 9.36016 2.25292 3.74298
839 2 7.23112 2.61276 9.13436
840 2 0.0577206 8.08161 3.58011
841 2 8.77407 3.30881 1.56455
842 2 8.34166 4.06577 3.10043
843 2 5.76009 0.766062 5.8721
844 2 2.00628 6.17078 8.63536
845 2 1.90993 0.700309 5.48975
846 2 4.02053 3.94764 3.97835
847 2 7.44212 5.69224 0.144646
848 2 8.81202 4.57542 7.82428
849 2 7.16059 1.53453 5.28624
850 2 0.827857 1.32616 7.5912
851 2 2.11847 1.05274 1.97705
852 2 7.01764 3.3422 2.62917
853 2 6.34053 4.55731 7.28411
854 2 4.42942 6.86061 3.24898
855 2 6.97714 7.88367 8.14022
856 2 7.87001 7.38869 7.354
857 2 3.29115 5.53804 7.65359
858 2 1.82649 5.26965 7.554
859 2 8.15376 6.63307 4.83884
860 2 1.03343 5.17529 6.99873
861 2 4.90957 2.82697 6.74603
862 2 7.2878 9.11975 7.97442
863 2 3.11566 7.49658 2.30459
864 2 8.07721 3.67899 8.87555
865 2 0.669614 2.38481 4.50436
866 2 3.59243 3.95802 1.72648
867 2 1.04798 7.92078 4.82657
868 2 9.30648 2.97695 0.263908
869 2 5.98138 6.07651 7.31671
870 2 4.43705 1.80709 1.66071
871 2 6.22188 0.539731 6.85041
872 2 3.04613 1.87271 2.47003
873 2 6.21281 2.32189 2.81609
874 2 2.52208 8.85252 5.56948
875 2 8.2527 5.94676 8.54134
876 2 3.33678 0.43541 6.52701
877 2 0.453482 2.70247 2.16172
878 2 2.29619 3.65839 1.54196
879 2 0.844905 6.03545 0.454745
880 2 1.04251 5.36452 5.48354
881 2 2.26172 -0.00543569 1.38068
882 2 3.37438 7.4024 3.42625
883 2 4.29015 9.12963 5.79585
884 2 1.60843 5.55454 3.26052
885 2 5.16886 2.83751 8.36775
886 2 5.36517 9.19747 4.41752
887 2 2.62794 7.54677 7.80195
888 2 6.05081 7.95899 1.30497
889 2 1.17923 7.42296 0.780931
890 2 6.82467 8.6996 2.15083
891 2 3.21829 4.93043 1.79078
892 2 0.546074 5.11245 8.67667
893 2 5.40084 8.61413 6.73795
894 2 5.43896 7.50978 8.58315
895 2 2.80296 2.36009 4.03657
896 2 9.01219 8.93792 0.20983
897 2 3.33362 7.86158 4.9062
898 2 8.44424 8.88642 1.13431
899 2 2.32214 5.76546 4.52698
900 2 4.33247 1.58085 8.83605
901 2 6.1567 3.88916 3.31386
902 2 5.90058 1.88169 5.04173
903 2 7.50068 0.43044 6.92955
904 2 2.80677 2.07513 8.04585
905 2 6.4749 4.47646 0.411371
906 2 1.14311 8.53299 9.02045
907 2 2.40104 3.84986 8.20042
908 2 3.32209 1.44097 9.17149
909 2 5.97476 1.03886 3.51094
910 2 3.03147 4.53754 0.434654
911 2 6.70248 6.10453 4.87473
912 2 8.99194 8.11789 2.80395
913 2 5.92961 6.13809 3.17221
914 2 5.36281 6.34227 9.03219
915 2 9.04322 9.20856 4.27055
916 2 3.17589 4.70703 3.56683
917 2 3.52524 6.1828 2.72184
918 2 3.64486 1.1711 3.34811
919 2 0.0476511 0.348202 2.84348
920 2 2.6575 5.51677 0.503667
921 2 8.94074 1.93308 1.37544
922 2 1.7485 1.81966 9.0927
923 2 7.40958 6.56223 1.46093
924 2 8.45234 1.77296 9.35128
925 2 4.78422 6.18629 5.50045
926 2 5.76485 4.87792 6.01675
927 2 0.656017 6.79175 6.86314
928 2 0.902232 1.58543 2.4226
929 2 1.61385 2.5125 7.75959
930 2 3.86754 6.78121 0.279611
931 2 0.456368 1.26514 8.48534
932 2 8.2747 7.45972 0.910459
933 2 5.97513 4.05641 2.1424
934 2 6.2291 6.60183 0.500225
935 2 6.84422 6.65511 7.3095
936 2 2.27902 3.59341 3.97739
937 2 0.937748 6.84345 7.65797
938 2 6.03991 0.780595 8.52671
939 2 5.41818 2.61327 1.29531
940 2 7.53536 7.71177 1.79115
941 2 4.56766 0.899704 7.07905
942 2 6.96946 1.90885 3.917
943 2 6.70044 5.82852 8.69586
944 2 1.26851 6.09914 4.1658
945 2 8.0006 6.49234 3.47927
946 2 8.35345 1.37865 2.94062
947 2 7.17495 5.33753 5.82928
948 2 7.14023 7.53231 5.91007
949 2 1.85474 5.14726 9.27678
950 2 2.59135 0.493984 3.94135
951 2 1.24337 0.0736532 4.61743
952 2 4.35227 9.07723 7.07986
953 2 1.79988 6.38857 6.24332
954 2 4.36689 7.67588 6.19255
955 2 5.24286 7.7178 4.77527
956 2 6.9642 1.5828 9.18587
957 2 3.81495 9.19554 8.44024
958 2 5.20061 3.81664 1.04235
959 2 2.08228 8.28347 2.66564
960 2 7.97413 6.66795 9.39199
961 2 2.21618 6.74386 0.491869
962 2 3.59914 2.92276 5.69805
963 2 4.52717 5.31948 3.61165
964 2 5.06102 3.47663 9.28358
965 2 8.90349 6.62405 3.72344
966 2 6.3116 8.86029 8.80128
967 2 2.66883 9.07711 4.0342
968 2 1.65693 4.45394 3.06391
969 2 1.20034 4.0742 4.2936
970 2 7.56409 1.07403 8.63898
971 2 3.0368 0.463484 1.24608
972 2 3.73067 5.3989 5.95979
973 2 1.67246 0.603849 0.360808
974 2 5.96775 9.4081 3.25421
975 2 2.09121 3.23564 0.0473174
976 2 8.40852 0.347305 8.32289
977 2 6.63615 1.9986 6.59577
978 2 6.52069 3.92173 5.12198
979 2 0.517039 8.06269 8.62898
980 2 1.10906 4.3717 1.97099
981 2 6.98598 1.75626 2.43435
982 2 7.46885 0.544209 4.01053
983 2 0.956471 0.644734 2.2013
984 2 3.94778 5.55774 1.4909
985 2 6.57925 7.24242 2.82931
986 2 8.63685 6.42254 2.05149
987 2 6.83322 3.12814 7.94185
988 2 8.16431 4.30551 4.3864
989 2 8.51645 8.24729 8.23595
990 2 2.69588 1.57198 1.00111
991 2 1.08438 8.50715 7.28682
992 2 7.14576 8.40925 4.93535
993 2 8.44823 2.04108 5.3444
994 2 8.15923 7.69455 3.36519
995 2 8.54744 3.53955 5.75166
996 2 0.462526 6.27052 4.62521
997 2 5.99948 9.18846 5.87155
998 2 9.33731 0.548985 0.892812
999 2 0.676037 5.11387 3.07535