#bin. KALJ data file T=0.5

1000 atoms
2 atom types

0 9.4 xlo xhi
0 9.4 ylo yhi
0 9.4 zlo zhi

Masses

1 1.0
2 1.0

Atoms

1 1 2.26294 2.57586 8.68106
2 1 7.12373 2.56689 8.60571
3 1 2.77688 6.12217 2.01818
4 1 6.39379 6.45025 2.45476
5 1 2.3464 8.94719 4.06254
6 1 6.88844 1.06948 7.19529
7 1 1.33224 7.92378 8.53943
8 1 4.29438 2.4983 6.96207
9 1 3.02179 3.57593 4.7948
10 1 8.4697 7.66059 8.35084
11 1 8.88757 1.99185 9.13903
12 1 7.66006 1.59654 2.74809
13 1 9.37951 1.62652 3.68922
14 1 2.53649 5.08098 0.101588
15 1 0.265677 2.90873 9.05191
16 1 2.38168 0.696171 6.31872
17 1 8.38109 4.08608 6.99272
18 1 8.92023 7.3448 0.00578364
19 1 3.69345 1.3023 9.40433
20 1 4.88092 3.35491 7.95418
21 1 1.01542 1.41826 2.99295
22 1 3.19753 4.07734 6.80061
23 1 6.0917 2.09615 8.39986
24 1 4.13073 7.31898 6.13423
25 1 6.02387 1.82289 7.15807
26 1 0.0475024 8.44695 4.45215
27 1 8.29419 8.76653 8.07819
28 1 3.47813 3.20283 6.0535
29 1 1.30694 2.25583 8.09049
30 1 0.0657292 1.08579 2.82464
31 1 0.267156 3.88746 3.47168
32 1 4.02118 1.24955 5.41528
33 1 2.13068 3.59186 8.48021
34 1 7.10205 8.15101 2.76201
35 1 8.06249 8.5809 5.71144
36 1 8.94014 6.46158 2.435
37 1 5.7601 3.83172 2.30504
38 1 1.08939 9.34513 2.39611
39 1 2.29103 7.21011 5.29218
40 1 1.83623 0.979369 9.35638
41 1 6.16197 0.0296313 7.71928
42 1 0.34143 7.78146 8.98465
43 1 2.88874 1.7817 2.11392
44 1 5.56022 2.91452 3.91733
45 1 4.86436 0.263157 6.65317
46 1 1.18275 7.35141 2.92988
47 1 3.61394 5.0474 7.08979
48 1 7.04008 4.97703 3.13617
49 1 4.04704 4.04926 5.62146
50 1 8.97913 0.0835981 3.17943
51 1 5.10411 5.39617 4.50044
52 1 5.58046 2.10505 1.03136
53 1 6.77165 3.50393 5.77139
54 1 8.1346 7.23656 7.48484
55 1 1.43465 3.66525 5.74014
56 1 1.13352 4.63592 5.92204
57 1 0.147225 0.627047 7.35645
58 1 7.9592 8.74363 0.248555
59 1 0.0611647 9.29884 5.86152
60 1 0.790862 5.26364 0.811541
61 1 5.30314 5.96517 2.74162
62 1 0.582179 0.760645 0.93019
63 1 3.58616 4.87036 8.21422
64 1 4.34487 6.38604 7.96543
65 1 3.1107 2.46654 0.29396
66 1 6.07082 5.58969 0.0376653
67 1 4.04338 7.41198 2.50679
68 1 2.37031 5.70434 8.64405
69 1 3.46843 4.66573 0.820094
70 1 1.15291 3.25861 3.83296
71 1 8.19844 4.51192 9.08851
72 1 5.32818 7.65858 0.932325
73 1 2.91979 6.99611 0.466066
74 1 4.74206 8.07359 0.0868294
75 1 0.960527 9.18236 4.37285
76 1 4.77782 1.54262 3.25925
77 1 4.03555 3.48246 7.24135
78 1 9.23487 6.60165 1.31337
79 1 4.3275 6.24669 2.82049
80 1 0.183697 5.53465 3.75779
81 1 3.03687 2.23388 3.62016
82 1 5.63917 0.00954574 1.55387
83 1 2.90616 8.39501 4.95177
84 1 0.289633 5.71643 9.28965
85 1 2.09561 5.77137 2.86406
86 1 5.65562 4.69362 0.41833
87 1 7.87863 5.45885 3.5408
88 1 1.89549 8.22185 5.51039
89 1 0.378171 4.37623 0.996245
90 1 6.34769 8.81934 4.46833
91 1 8.28661 5.27201 7.1252
92 1 1.07088 7.99512 7.56259
93 1 1.84719 7.87622 0.0496713
94 1 6.06553 7.15107 0.458795
95 1 5.54706 6.09958 3.85995
96 1 3.16725 8.06108 8.01757
97 1 3.82652 5.09968 9.32081
98 1 8.52513 8.323 1.47472
99 1 0.63498 1.88912 6.63562
100 1 4.53345 1.93329 6.07571
101 1 5.22275 7.30081 2.10964
102 1 7.10914 8.96851 7.96438
103 1 1.75084 0.669183 3.12778
104 1 1.44293 8.89805 8.99301
105 1 7.73692 0.580786 6.95821
106 1 4.95691 2.67064 5.51009
107 1 8.52693 7.35147 0.983536
108 1 8.73159 8.19612 7.34022
109 1 3.47595 4.32713 3.73731
110 1 0.644226 6.96972 7.03492
111 1 2.63399 0.0753321 8.19488
112 1 3.64204 3.59294 2.79478
113 1 0.495017 6.14688 7.69856
114 1 3.87767 6.34161 3.82285
115 1 4.8904 0.74051 4.87595
116 1 2.27073 6.65468 9.13736
117 1 5.7326 7.35637 6.70692
118 1 7.21781 0.0821852 0.587521
119 1 7.15412 6.89487 0.656766
120 1 5.6106 9.27125 3.41463
121 1 4.86855 8.77613 7.07446
122 1 0.758817 1.13214 0.0434264
123 1 1.28404 1.34713 5.05043
124 1 0.848419 6.77253 0.979635
125 1 8.44174 2.94241 3.85747
126 1 1.23272 3.90037 6.7887
127 1 3.19067 7.17824 3.63896
128 1 4.05598 1.00211 8.33952
129 1 4.5591 6.13444 1.76087
130 1 2.47177 6.25926 7.41582
131 1 8.92452 0.84973 5.51397
132 1 6.17086 5.54382 3.05838
133 1 7.29615 7.57282 1.83702
134 1 5.15082 2.41862 7.54789
135 1 5.82828 3.14393 7.04259
136 1 2.36581 9.3745 9.14848
137 1 2.80404 3.8668 7.76556
138 1 4.42184 3.17747 8.84277
139 1 1.25885 8.16892 3.72211
140 1 0.992467 4.19525 4.95268
141 1 1.66103 8.83015 8.04983
142 1 3.71183 1.48508 6.56673
143 1 3.34757 6.61518 6.51513
144 1 8.4244 6.88067 6.41567
145 1 3.55636 6.0808 7.45857
146 1 8.1971 7.99165 2.55175
147 1 2.81095 8.41167 7.00814
148 1 7.91639 3.47924 7.68892
149 1 1.07556 9.34068 1.38342
150 1 3.83104 8.85048 5.11107
151 1 0.254766 0.830405 6.3284
152 1 5.45118 1.01116 1.28997
153 1 9.19407 5.50575 0.876718
154 1 5.81972 8.48283 7.53352
155 1 4.77881 7.70251 6.91743
156 1 3.9666 2.1101 1.09058
157 1 7.80407 1.67869 7.41732
158 1 1.81322 8.08302 6.90999
159 1 7.04098 8.78205 6.07525
160 1 7.11666 1.93025 0.15892
161 1 8.97344 3.64009 1.10573
162 1 9.32371 3.75636 0.0976097
163 1 7.84717 1.71803 8.64224
164 1 2.80921 7.258 7.1621
165 1 9.33899 0.381035 0.0942272
166 1 7.41101 6.55779 6.00477
167 1 7.61877 7.93864 0.856381
168 1 5.81229 3.10993 0.873217
169 1 3.49278 4.96411 6.06116
170 1 1.28085 6.96768 9.04953
171 1 8.96478 4.64425 3.44958
172 1 6.52606 8.82156 1.28094
173 1 7.23786 6.03203 2.87148
174 1 1.93739 1.81152 3.49193
175 1 3.83578 0.71311 0.922764
176 1 0.539128 0.621525 5.27749
177 1 2.16125 1.59064 4.49254
178 1 5.22293 7.05959 5.83335
179 1 6.15642 6.22607 0.930347
180 1 3.98524 9.1452 6.77472
181 1 8.78829 4.6057 1.3585
182 1 5.74089 1.96223 3.12355
183 1 3.99634 9.1552 1.3208
184 1 4.54526 4.53753 8.63149
185 1 0.317197 3.89924 5.83661
186 1 7.20936 6.00173 5.11947
187 1 5.37738 2.2858 2.13227
188 1 0.671011 6.57568 5.31729
189 1 2.7694 2.44777 6.17605
190 1 8.74689 5.49983 2.97992
191 1 5.84146 3.7457 7.93527
192 1 7.28801 5.47013 6.6935
193 1 5.3007 8.06753 6.09218
194 1 3.0206 0.0299713 5.42958
195 1 7.86926 9.30716 8.78665
196 1 5.52927 8.19464 3.84308
197 1 1.99695 4.96918 4.21818
198 1 2.8652 5.68099 6.61161
199 1 1.55298 7.33495 6.04376
200 1 3.70348 8.98794 3.92897
201 1 5.58354 7.41624 7.86002
202 1 0.821092 3.09316 5.01042
203 1 2.20177 6.54223 6.39586
204 1 5.72593 3.33382 6.00831
205 1 9.03104 5.99737 7.1305
206 1 5.56508 1.58157 4.13041
207 1 6.39136 1.32562 9.01034
208 1 7.77196 5.1466 5.12353
209 1 6.23903 0.627467 2.07442
210 1 9.29128 5.1271 7.64834
211 1 3.59069 1.50591 2.94438
212 1 4.78042 8.22432 2.16947
213 1 3.5625 0.587916 6.12186
214 1 8.77774 6.25215 0.252133
215 1 1.72757 7.10379 7.10872
216 1 4.35068 2.1562 8.35798
217 1 6.26943 2.97023 1.90154
218 1 3.77144 3.0565 1.81709
219 1 5.22753 5.64095 0.939571
220 1 8.06042 2.63461 9.34546
221 1 2.23721 0.897364 5.28385
222 1 4.72378 3.28753 2.239
223 1 7.98865 5.96974 2.19845
224 1 8.35629 6.03102 1.16174
225 1 1.79234 3.44261 4.66817
226 1 4.62584 5.72073 7.2268
227 1 3.87203 1.34052 1.80426
228 1 7.0348 5.42431 9.09399
229 1 2.46149 9.29445 2.71521
230 1 2.73937 8.32573 0.265188
231 1 1.45109 5.01213 6.85934
232 1 5.01733 6.66319 7.28056
233 1 6.91973 7.18449 7.27761
234 1 1.13644 3.81451 9.39769
235 1 8.27718 5.89162 4.42624
236 1 2.85808 6.48049 8.31656
237 1 7.2248 1.73972 6.35389
238 1 5.80246 8.15716 9.29222
239 1 2.77608 6.20979 5.56609
240 1 4.38066 0.202692 5.73196
241 1 7.16535 4.06646 3.76469
242 1 4.67825 3.41055 6.18792
243 1 5.75204 8.16061 1.63128
244 1 6.77355 3.58969 1.08828
245 1 8.0861 2.69346 2.24877
246 1 9.12403 5.86059 8.40872
247 1 8.21425 1.14789 1.37068
248 1 8.31012 6.29115 7.91999
249 1 0.846555 7.04482 8.14566
250 1 3.07452 0.191824 3.42078
251 1 1.13224 8.42083 2.81226
252 1 4.83986 4.47023 3.81168
253 1 0.486474 5.51479 6.81432
254 1 6.60291 1.62051 4.6867
255 1 7.87639 7.52764 9.28601
256 1 7.93331 4.86459 6.1382
257 1 2.99551 9.21355 0.909379
258 1 5.68813 0.582158 4.21613
259 1 4.47443 5.28202 6.31323
260 1 4.28819 8.5002 8.02083
261 1 7.28479 4.06735 0.172012
262 1 4.37877 2.17966 2.35891
263 1 6.66219 2.58051 6.51189
264 1 8.09046 4.5919 4.29025
265 1 7.84196 3.69625 4.59062
266 1 7.9719 4.40514 3.20166
267 1 2.78723 0.826295 2.66588
268 1 5.25872 3.75458 8.79224
269 1 1.71095 5.21574 7.89991
270 1 8.71561 0.649396 6.59589
271 1 2.24142 2.1051 0.71812
272 1 5.94899 1.81973 5.78457
273 1 0.337585 5.71265 2.58495
274 1 5.75567 7.20625 8.83295
275 1 3.22902 5.95736 0.0707008
276 1 8.67914 7.19174 3.24184
277 1 8.84415 5.18046 4.68058
278 1 2.6956 2.12623 7.78104
279 1 1.06413 0.134076 0.332764
280 1 6.11945 3.77609 0.21337
281 1 6.33739 7.65073 3.46034
282 1 4.13701 9.14763 2.35364
283 1 8.7617 9.17232 5.09211
284 1 5.11463 8.20174 8.57896
285 1 3.74106 5.47247 3.159
286 1 0.807082 -0.00454038 6.57542
287 1 4.16971 5.91907 4.68808
288 1 1.121 1.8529 1.7136
289 1 6.06192 2.93633 2.90317
290 1 2.09364 8.4618 3.17606
291 1 2.9453 9.23705 6.49615
292 1 2.35684 3.20562 5.58582
293 1 3.77198 0.583519 2.61493
294 1 1.54761 5.16926 9.15368
295 1 4.07208 3.04807 5.17977
296 1 5.5627 4.7579 7.5986
297 1 7.39204 4.53166 8.51012
298 1 3.32406 6.49351 4.67468
299 1 7.53864 8.56275 1.87965
300 1 6.65809 3.72894 2.79046
301 1 0.091715 3.41443 6.87
302 1 6.41418 0.117421 5.65028
303 1 4.48216 6.38989 6.44781
304 1 7.40171 2.84418 3.90984
305 1 2.91006 0.663785 0.340198
306 1 8.68119 6.83194 4.46076
307 1 6.24174 7.48856 2.27831
308 1 5.6121 0.891533 3.24071
309 1 2.63647 5.04506 7.48808
310 1 1.62009 0.579926 4.22191
311 1 5.54386 0.78643 0.337224
312 1 0.54064 3.57774 1.62322
313 1 7.30054 3.43188 1.87203
314 1 5.58062 4.71348 8.71407
315 1 4.18185 4.31125 6.65475
316 1 1.87361 0.506478 2.07882
317 1 1.51077 2.01744 9.30595
318 1 9.11251 6.91905 8.45499
319 1 2.11436 9.27422 7.15219
320 1 7.3117 9.35573 3.97683
321 1 3.94814 4.04334 4.55842
322 1 9.09577 7.03348 7.45058
323 1 4.6224 8.73372 3.28593
324 1 6.86514 4.59869 1.50462
325 1 6.35844 4.67363 2.3798
326 1 0.540102 7.4191 5.99801
327 1 3.70136 5.85664 8.5936
328 1 4.21279 3.72299 1.20745
329 1 1.41546 3.13363 1.89564
330 1 2.97424 2.48203 1.31207
331 1 3.79804 3.83648 8.27429
332 1 0.602838 1.95233 8.75498
333 1 5.42609 4.79314 2.81725
334 1 4.09399 6.95576 7.14681
335 1 4.8068 2.78641 1.35076
336 1 8.0977 6.5224 5.31164
337 1 5.37664 6.31204 8.21881
338 1 8.57274 1.74757 5.35364
339 1 7.38222 7.25074 8.36036
340 1 8.91491 7.44455 1.95361
341 1 9.40184 8.13799 0.52447
342 1 4.55606 7.45102 7.89359
343 1 1.75578 4.5311 3.14662
344 1 5.3662 0.124668 5.59093
345 1 8.75919 7.91288 4.048
346 1 0.594076 4.68234 9.32149
347 1 2.40756 3.37546 1.24408
348 1 5.20669 2.59513 8.69178
349 1 4.97433 2.71228 0.259409
350 1 5.67174 6.90969 3.00999
351 1 8.34786 3.66472 0.25354
352 1 4.28399 6.19389 0.230078
353 1 0.161617 2.93122 4.18857
354 1 0.669806 8.78684 8.29702
355 1 7.33796 4.37522 7.24105
356 1 0.850169 4.54029 7.62697
357 1 8.3903 9.02537 2.33382
358 1 5.65892 5.30071 1.92662
359 1 3.46926 1.97194 8.64194
360 1 4.89254 4.37932 4.97703
361 1 1.40812 2.34627 2.62213
362 1 5.30544 3.72635 3.28348
363 1 7.62881 6.07647 0.289153
364 1 1.37492 1.52499 0.795132
365 1 1.41085 4.24484 8.51203
366 1 6.56439 5.67615 5.89079
367 1 1.35854 5.10279 2.37563
368 1 2.69555 8.30252 1.37396
369 1 6.29491 3.15496 8.6919
370 1 6.21501 1.72906 1.71369
371 1 0.226268 7.47738 4.86992
372 1 2.32461 4.64328 6.53801
373 1 6.90563 9.37069 9.03734
374 1 6.36206 6.50787 4.61051
375 1 5.82756 6.35049 5.51324
376 1 4.148 2.16042 9.39642
377 1 1.34508 6.05859 8.42139
378 1 6.35938 9.02915 2.37768
379 1 8.39723 4.60274 7.99494
380 1 8.00462 6.94404 2.4527
381 1 3.32571 0.453004 8.78103
382 1 7.06436 7.14007 2.96698
383 1 7.3027 5.01061 0.555112
384 1 7.14003 0.148925 1.72436
385 1 5.09418 9.03832 9.24459
386 1 8.50961 1.02724 3.182
387 1 9.26245 0.143635 4.22634
388 1 8.12842 1.63521 0.272293
389 1 7.92443 2.62685 4.95842
390 1 3.51699 4.57573 2.61628
391 1 4.22762 9.39544 8.3997
392 1 9.3577 2.65313 5.32371
393 1 3.46392 7.66184 1.03574
394 1 9.13456 4.68083 8.71012
395 1 7.63165 8.93254 7.08251
396 1 3.32021 3.2139 3.76451
397 1 5.08044 3.72137 0.640797
398 1 7.84466 5.18331 1.47689
399 1 0.761628 3.12739 2.81442
400 1 7.31918 9.18572 2.73307
401 1 5.04009 1.6861 5.16595
402 1 0.63845 0.547527 3.53289
403 1 0.499518 6.82595 2.08706
404 1 6.98896 7.19062 4.10525
405 1 3.04282 0.623418 7.18331
406 1 4.74891 1.67864 1.53916
407 1 5.37562 1.21484 2.29222
408 1 1.42628 2.61794 0.99053
409 1 2.27655 3.05209 3.76704
410 1 0.314093 1.866 7.67867
411 1 5.93597 0.91136 5.21923
412 1 7.63611 1.57606 4.89366
413 1 3.87387 7.89899 8.84488
414 1 8.78778 3.85086 4.03619
415 1 2.07343 3.12876 0.17993
416 1 7.22066 1.2552 1.75552
417 1 1.75123 6.30773 5.37495
418 1 4.81349 0.227309 0.883542
419 1 7.5998 3.30225 2.92146
420 1 1.13823 2.16415 5.63542
421 1 5.89531 8.57779 5.42853
422 1 4.33522 3.55502 3.57433
423 1 9.23097 3.0224 2.29564
424 1 7.9191 0.58179 5.06129
425 1 2.11005 2.10846 5.4083
426 1 8.58375 0.913017 8.99713
427 1 6.50377 4.98522 7.1599
428 1 4.07541 0.651011 7.23618
429 1 4.19609 7.22176 0.44779
430 1 2.94671 8.15695 3.81952
431 1 9.15986 2.33428 6.24039
432 1 5.68275 0.777704 7.05591
433 1 3.34035 9.08171 7.60685
434 1 6.28533 5.21307 1.0341
435 1 0.192537 2.00875 2.46461
436 1 9.10737 1.52159 0.682828
437 1 7.1825 5.90523 1.25643
438 1 8.25925 0.45897 0.435728
439 1 4.84783 7.67073 3.03883
440 1 1.20956 6.29409 2.52629
441 1 6.53401 2.3306 4.04757
442 1 5.91874 4.1738 6.67736
443 1 4.13321 5.51431 1.01312
444 1 7.74988 6.32396 6.97567
445 1 4.85331 0.663931 9.03115
446 1 6.46317 4.5958 8.10811
447 1 3.72265 5.64927 2.07624
448 1 6.68813 8.34473 6.97975
449 1 9.05953 0.0450033 8.54343
450 1 2.04777 4.2147 0.00233606
451 1 5.24719 9.08506 8.12195
452 1 6.45794 6.66209 6.52538
453 1 4.40185 7.2333 1.50349
454 1 4.28913 6.85029 5.16414
455 1 6.64397 4.95608 5.20972
456 1 7.21139 6.01468 4.12164
457 1 5.69712 8.20801 2.78543
458 1 0.379719 6.67958 3.16771
459 1 0.347267 7.68588 1.39265
460 1 7.56047 0.81334 9.15952
461 1 0.557283 4.77362 3.01902
462 1 3.58129 8.15825 1.97739
463 1 1.83383 0.575273 0.859822
464 1 8.82231 4.062 6.09557
465 1 7.58507 8.09478 7.70887
466 1 7.16916 8.2578 4.31203
467 1 6.32744 1.49282 0.715916
468 1 8.09799 8.80513 3.33249
469 1 0.974105 2.74714 7.1348
470 1 1.04908 1.17043 7.97577
471 1 2.10016 7.85979 7.86107
472 1 4.87324 5.94734 5.59116
473 1 8.70449 3.71597 8.58583
474 1 6.25083 8.68623 8.55419
475 1 2.9748 1.13177 8.13583
476 1 0.0976481 1.08785 8.4705
477 1 7.4925 8.38058 8.70119
478 1 1.39578 9.22744 3.43978
479 1 1.60289 6.39756 1.50792
480 1 5.51855 6.30323 6.50573
481 1 3.67724 6.46252 1.13
482 1 5.62288 7.16005 4.06961
483 1 4.66627 4.68312 0.826011
484 1 7.85284 4.20823 1.13731
485 1 8.024 5.44554 8.66297
486 1 1.5542 2.44408 4.48733
487 1 0.504203 5.61564 4.7589
488 1 6.35437 3.45851 3.78213
489 1 0.312199 7.7954 2.44291
490 1 7.78306 7.7774 3.59327
491 1 6.51441 6.49053 3.55484
492 1 1.86744 6.9955 0.674149
493 1 7.74481 6.79976 1.42045
494 1 5.85217 3.40026 4.91358
495 1 2.39599 2.44664 2.88751
496 1 2.68771 4.01039 2.96503
497 1 7.22503 6.17213 8.42971
498 1 7.01605 1.74442 8.00927
499 1 4.185 2.37514 3.5651
500 1 4.87904 5.35084 9.32621
501 1 6.88602 4.5007 6.26967
502 1 9.36373 4.06858 2.45694
503 1 3.32662 8.16774 5.95889
504 1 3.90885 7.91993 3.4171
505 1 7.66142 3.56438 8.74425
506 1 1.80185 5.6224 6.18392
507 1 6.75206 0.103048 6.72234
508 1 4.73365 5.47469 3.46869
509 1 3.9087 3.06623 0.473397
510 1 4.99912 4.34976 1.74546
511 1 4.93763 0.746365 7.83236
512 1 6.5666 6.4198 9.25371
513 1 0.920397 7.59169 0.414207
514 1 1.27492 5.38592 3.46132
515 1 6.94161 7.58633 6.25712
516 1 2.16209 6.77924 2.59351
517 1 8.62723 2.17704 1.43989
518 1 9.27584 4.07331 7.62127
519 1 2.94278 4.12858 5.73529
520 1 2.0843 0.872738 7.49948
521 1 8.43747 4.25866 5.18033
522 1 5.33912 6.26018 9.3324
523 1 2.94046 7.65486 2.66964
524 1 0.804691 0.353156 8.70374
525 1 8.55868 3.08302 6.60096
526 1 5.25263 1.53387 8.41308
527 1 8.39561 1.34727 4.13418
528 1 5.63622 5.25894 6.54316
529 1 7.39229 4.15644 5.3607
530 1 5.94101 8.84942 6.48147
531 1 8.20396 8.70017 4.44662
532 1 2.32978 7.25308 1.55388
533 1 4.47915 8.4225 4.3383
534 1 6.91725 8.06574 5.30949
535 1 8.70736 1.65087 8.02944
536 1 1.05447 8.34305 4.79291
537 1 1.27349 2.96786 8.73696
538 1 2.0519 7.96558 4.50815
539 1 1.93278 9.15261 6.08563
540 1 0.157002 3.00447 7.91716
541 1 6.53389 1.21989 3.7633
542 1 0.691578 5.23837 8.39582
543 1 3.37263 8.80127 8.74371
544 1 8.80134 6.23343 3.65562
545 1 6.26221 5.60261 8.35707
546 1 0.651801 5.53917 5.806
547 1 8.3609 5.85655 6.18251
548 1 0.163323 7.88729 6.87697
549 1 2.95446 3.06542 7.08267
550 1 8.78972 7.85083 6.18067
551 1 7.10517 5.43006 2.1228
552 1 1.53426 3.63455 0.92756
553 1 1.13907 9.00707 5.54503
554 1 0.460861 4.87996 1.91844
555 1 6.40933 8.69132 3.36344
556 1 2.11703 9.15319 5.04152
557 1 1.32109 4.56217 1.46383
558 1 8.65121 3.60973 3.02238
559 1 3.59618 7.13396 8.06385
560 1 3.09134 9.07561 1.94765
561 1 4.27823 1.56365 4.37126
562 1 1.00143 8.61273 0.689027
563 1 4.17535 5.04174 4.15472
564 1 7.6473 2.70099 6.04712
565 1 7.61977 2.67897 7.05114
566 1 4.66769 0.604357 1.8162
567 1 9.03773 6.01466 5.33159
568 1 2.96482 3.57105 0.356919
569 1 9.29016 2.66206 3.24107
570 1 5.94424 4.24412 1.32263
571 1 2.09706 4.30015 5.06545
572 1 1.96927 8.87483 0.605552
573 1 6.61265 2.649 7.64682
574 1 6.80573 3.03804 4.81413
575 1 8.8791 2.25695 4.53609
576 1 2.63674 5.20191 5.58225
577 1 4.42917 4.69297 7.58652
578 1 4.81332 6.74944 3.59812
579 1 8.2923 0.320012 3.93028
580 1 2.14465 6.81132 4.38323
581 1 9.05388 1.56318 6.96012
582 1 6.20578 2.42115 0.0854058
583 1 0.575214 2.14593 0.403252
584 1 0.224911 4.57016 4.27384
585 1 2.36441 8.4074 8.6779
586 1 4.54845 4.19429 2.76134
587 1 5.25191 9.1099 2.48651
588 1 8.14925 6.54329 8.91962
589 1 2.45031 4.43987 1.09751
590 1 6.76753 6.10644 7.36551
591 1 7.39175 5.33751 7.78089
592 1 6.90116 3.09072 0.237647
593 1 7.4764 1.73878 3.70061
594 1 4.61086 0.139575 3.91818
595 1 7.12689 2.31006 1.95919
596 1 1.16755 6.39513 6.32096
597 1 6.86563 2.31601 3.04628
598 1 9.35687 1.11883 4.54868
599 1 2.84163 0.654967 1.58414
600 1 4.72451 7.04806 8.87192
601 1 9.35857 1.34043 1.64507
602 1 3.11753 4.64225 4.78552
603 1 1.17946 4.37207 3.95238
604 1 5.40215 1.76407 9.41073
605 1 3.73621 8.59172 0.335708
606 1 1.78343 1.58079 6.24634
607 1 2.01723 3.00321 7.54908
608 1 8.60628 0.0889964 7.44081
609 1 4.43976 8.17126 1.11243
610 1 4.77475 1.4722 6.94391
611 1 2.52663 2.6455 4.64544
612 1 7.91566 3.13527 1.03016
613 1 6.60996 7.77525 1.07777
614 1 1.04647 1.35655 4.0566
615 1 6.74699 7.55175 9.17493
616 1 6.86211 3.65709 7.92586
617 1 3.45618 2.56949 2.71344
618 1 6.38659 6.80089 8.14681
619 1 3.19401 3.14325 8.84719
620 1 0.463994 3.90189 8.52324
621 1 6.56352 0.372428 3.10804
622 1 7.09844 4.9716 4.20318
623 1 1.7252 7.96022 1.13722
624 1 4.86308 8.631 5.30561
625 1 7.04853 0.64617 8.14422
626 1 8.43217 3.28034 5.56348
627 1 8.3775 4.74103 2.35307
628 1 0.358453 6.56865 4.34429
629 1 6.97721 8.50184 0.348146
630 1 8.8312 8.98556 0.688285
631 1 1.14744 7.23887 3.93048
632 1 4.01862 3.96113 0.0183946
633 1 1.41856 5.25494 5.18991
634 1 0.261866 1.54927 5.53364
635 1 3.30539 7.09586 1.83489
636 1 6.62842 7.911 8.02576
637 1 3.97365 5.01295 5.19944
638 1 0.205117 8.91172 7.29998
639 1 5.79722 4.68745 4.40568
640 1 6.54855 4.59998 9.16785
641 1 8.63192 2.45805 7.39784
642 1 3.85827 0.806033 3.65267
643 1 6.0683 9.1671 0.338968
644 1 4.73203 2.45495 4.49476
645 1 4.8393 3.48813 4.55879
646 1 5.79579 5.76301 7.42796
647 1 0.285087 6.70186 9.39989
648 1 7.55932 0.732681 3.30338
649 1 0.533852 2.06787 4.63981
650 1 9.03454 0.442622 1.13759
651 1 5.86171 4.29678 5.35624
652 1 6.98742 7.08007 5.15097
653 1 4.76218 5.47539 8.22317
654 1 6.64145 6.85726 1.61295
655 1 2.07415 5.48538 1.68921
656 1 2.41665 5.77686 4.66474
657 1 3.05011 7.45171 4.63262
658 1 1.14421 0.160967 7.59017
659 1 9.05179 5.12092 6.21599
660 1 0.132989 9.01215 2.40238
661 1 2.06751 2.36434 1.82988
662 1 3.83358 8.09168 7.08461
663 1 0.369074 8.93885 9.33589
664 1 8.33999 2.74897 8.32784
665 1 3.15169 4.23097 9.01712
666 1 1.8598 3.38749 2.87039
667 1 0.361695 4.45913 6.72377
668 1 3.29459 7.10995 5.61738
669 1 6.91646 2.20422 5.44055
670 1 6.35865 1.01637 6.31192
671 1 7.88597 7.49742 4.59263
672 1 6.59429 4.10564 4.6205
673 1 6.12066 7.43789 5.63483
674 1 2.21388 3.57108 6.57517
675 1 1.38719 6.04725 4.35827
676 1 2.7371 4.99098 3.16075
677 1 6.4278 0.521228 1.00996
678 1 0.567821 3.18945 0.745667
679 1 3.65639 1.68882 7.62311
680 1 1.43004 6.13487 7.36883
681 1 2.68388 0.491823 4.47627
682 1 4.04395 4.71786 1.71157
683 1 7.34492 1.08914 0.814661
684 1 6.55514 1.39127 2.67878
685 1 7.74233 3.71122 6.27091
686 1 1.23603 6.07299 0.283864
687 1 5.62017 5.31954 5.34154
688 1 5.10497 6.66206 0.820493
689 1 8.22697 1.99438 6.47838
690 1 8.89594 5.47708 1.88925
691 1 2.30416 6.04127 0.58671
692 1 8.49067 2.03978 3.3123
693 1 2.16017 7.4483 3.46268
694 1 0.10878 8.73527 1.45563
695 1 1.03029 8.33635 6.29427
696 1 7.81703 7.96865 6.68715
697 1 0.0767839 7.88145 7.93757
698 1 6.86038 3.48547 6.86613
699 1 2.52207 7.66949 6.2227
700 1 8.587 1.58817 2.32816
701 1 8.97598 8.40132 3.07796
702 1 1.38296 0.630855 5.90535
703 1 4.6353 1.2457 0.489025
704 1 6.29245 5.53719 4.23172
705 1 5.87896 0.348574 8.71159
706 1 1.95037 6.77025 8.10493
707 1 1.6602 2.77917 6.41109
708 1 2.79393 1.20715 3.67708
709 1 4.97055 3.89256 7.09401
710 1 4.10437 7.39397 4.21658
711 1 7.60873 2.10015 1.11064
712 1 0.58866 5.90505 1.54303
713 1 2.55019 3.98423 4.01459
714 1 8.0242 1.14491 5.92613
715 1 4.97881 7.58108 4.85861
716 1 1.1248 1.00561 6.93389
717 1 5.35549 9.03764 4.45912
718 1 8.66089 7.93943 5.07217
719 1 3.85293 0.454119 4.81709
720 1 6.22943 7.7295 4.62378
721 1 2.92541 4.91689 1.87439
722 1 4.28612 8.40252 6.15151
723 1 3.18964 1.52442 1.02023
724 1 2.69272 1.67228 9.23929
725 1 8.69355 8.92366 6.56383
726 1 9.01302 4.6645 0.378648
727 1 6.11697 1.14829 7.96441
728 1 3.60548 2.72619 7.9429
729 1 3.26468 1.39228 4.59267
730 1 3.93132 7.86166 5.09902
731 1 1.9045 4.26033 7.46183
732 1 3.61329 6.77117 9.06225
733 1 3.32218 8.65823 2.93252
734 1 2.00902 8.81387 1.95443
735 1 3.32618 6.56159 2.79148
736 1 1.28209 7.34906 1.81598
737 1 2.73875 6.20534 3.63692
738 1 8.98383 7.01438 5.5152
739 1 1.79083 0.530347 8.44906
740 1 2.11136 4.1317 2.07044
741 1 7.27712 9.124 5.02746
742 1 3.59626 2.37117 4.50546
743 1 5.60454 6.35714 1.83316
744 1 6.13548 4.45202 3.48397
745 1 3.207 3.93241 1.71973
746 1 7.03876 0.980466 5.43086
747 1 7.68826 0.201497 6.02007
748 1 5.30391 8.72777 0.88383
749 1 7.84671 6.68967 3.66504
750 1 6.65703 0.421099 4.6531
751 1 0.647838 2.96785 6.03655
752 1 1.15676 3.51492 7.79258
753 1 8.01802 0.858203 8.09282
754 1 8.2516 3.75671 2.03574
755 1 3.06089 5.62698 1.03343
756 1 2.40559 4.70385 8.46052
757 1 0.0765406 4.85855 5.35961
758 1 9.35987 3.73592 4.92408
759 1 1.06784 4.09468 2.37787
760 1 2.69869 3.23433 2.24791
761 1 2.1837 1.37894 1.4626
762 1 7.37807 4.3208 2.4105
763 1 8.88454 2.72061 0.523995
764 1 3.74234 6.06929 5.72794
765 1 2.86789 7.49315 8.84867
766 1 0.832396 2.27316 3.50443
767 1 2.6831 1.58544 6.86602
768 1 6.6102 2.44695 1.05693
769 1 5.08327 4.36981 6.07817
770 1 0.956498 8.38325 1.81018
771 1 1.95123 1.44586 2.48094
772 1 7.86595 7.51888 5.69613
773 1 4.51794 5.20326 2.56757
774 1 4.05053 0.184749 0.0353826
775 1 1.75543 5.15643 0.764888
776 1 0.12139 6.39781 6.22712
777 1 5.15051 6.47165 4.65964
778 1 0.249218 7.68739 3.64459
779 1 5.02649 2.71244 3.018
780 1 5.2071 1.04731 6.02078
781 1 3.27566 5.48945 4.13329
782 1 1.9686 1.51777 8.32519
783 1 3.61409 2.17629 5.68356
784 1 0.370102 8.83187 3.50154
785 1 8.24362 5.33209 0.456351
786 1 0.769103 0.843206 2.03453
787 1 0.25288 8.30011 5.51414
788 1 8.15823 9.32339 1.4094
789 1 4.73692 0.433302 2.97289
790 1 8.89768 0.503625 2.16952
791 1 7.91863 0.696181 2.29726
792 1 1.66724 1.90533 7.19274
793 1 5.37903 2.40896 6.49778
794 1 8.89803 8.47443 8.99643
795 1 1.66298 6.53208 3.45962
796 1 1.30482 7.30218 4.93753
797 1 0.222388 2.45656 1.44288
798 1 2.95275 1.43777 5.78841
799 1 5.88009 2.3504 4.8381
800 1 1.94113 7.85374 2.33604
801 2 0.563224 1.58626 1.07842
802 2 0.666549 0.594719 4.41891
803 2 4.11994 3.04957 4.28347
804 2 5.01395 3.02753 6.98762
805 2 7.75045 5.28605 2.68706
806 2 0.838591 6.11471 3.5609
807 2 4.0401 3.93128 2.11136
808 2 4.45859 1.4929 8.91433
809 2 2.83274 4.80358 3.99887
810 2 8.70257 5.36866 3.84837
811 2 0.942546 1.39723 5.97864
812 2 5.36521 1.42103 7.57914
813 2 5.02268 8.18828 7.68909
814 2 8.87637 0.739791 8.12435
815 2 5.4497 3.57398 1.56991
816 2 2.74425 6.44309 1.2679
817 2 4.44845 1.35111 2.51585
818 2 6.70904 0.791553 0.249879
819 2 3.50306 8.50161 1.20375
820 2 3.05199 5.10293 8.84033
821 2 3.27748 0.824293 5.36818
822 2 3.17986 9.30281 0.0208121
823 2 4.92378 0.937922 3.91059
824 2 7.04019 1.98527 7.16658
825 2 6.18598 2.61776 5.74694
826 2 4.84798 8.8778 1.67387
827 2 2.54045 0.734178 8.83181
828 2 8.91737 8.52101 5.70699
829 2 0.0405074 2.46445 7.00634
830 2 0.231696 8.59971 6.37757
831 2 0.116387 7.25107 0.646015
832 2 4.90116 4.34142 0.0114582
833 2 2.73218 2.97678 8.027
834 2 6.31131 5.83131 6.70425
835 2 6.03481 6.61014 7.3936
836 2 1.4178 0.943368 1.4724
837 2 6.16339 4.94201 5.86847
838 2 2.92902 1.96049 5.1045
839 2 3.81371 5.81625 6.66514
840 2 4.71198 2.0443 0.714926
841 2 8.67971 0.629595 4.6877
842 2 2.80326 3.1824 3.11277
843 2 6.34971 0.0250371 3.92473
844 2 4.0145 5.49299 7.80691
845 2 4.31024 8.64525 8.96848
846 2 9.29735 7.21552 6.4653
847 2 8.78698 5.59062 9.09306
848 2 5.90007 7.93585 8.43556
849 2 6.3635 5.77749 5.07167
850 2 7.76981 2.48962 3.05642
851 2 3.03554 5.66575 2.72727
852 2 0.615076 3.72099 4.26876
853 2 5.59168 3.77022 4.13703
854 2 2.25292 1.24209 0.681715
855 2 3.65888 0.423351 1.81669
856 2 7.19415 0.811265 6.39066
857 2 7.68081 8.231 4.98256
858 2 2.0966 5.52276 7.01895
859 2 9.24292 2.26344 8.27267
860 2 4.88531 7.6055 3.98474
861 2 5.05927 4.21966 7.95697
862 2 1.08715 7.9635 5.53098
863 2 4.21789 9.25109 7.58621
864 2 9.08713 6.04416 4.4727
865 2 3.28201 2.19566 6.98285
866 2 6.98192 2.91836 2.45394
867 2 7.88191 1.90685 1.90394
868 2 9.22531 3.13548 6.0315
869 2 6.57329 6.58353 5.63614
870 2 4.1704 4.65367 3.38229
871 2 2.0445 5.81098 3.83787
872 2 4.54074 9.32581 4.7707
873 2 5.8847 9.36035 4.99051
874 2 0.262344 9.10428 5.00108
875 2 4.71519 7.79338 5.58186
876 2 8.98551 8.29542 2.20397
877 2 7.4902 0.925365 4.19027
878 2 1.22963 5.40629 1.59401
879 2 8.53541 5.43389 7.9554
880 2 3.28543 3.2671 1.10962
881 2 5.81836 7.13801 1.38845
882 2 1.06752 2.74865 0.113789
883 2 8.58662 0.165328 5.94661
884 2 8.52758 5.11681 5.54014
885 2 5.50298 1.61965 6.5143
886 2 5.80564 0.358485 6.32661
887 2 1.33944 0.392018 5.02715
888 2 6.70059 8.21254 1.91748
889 2 7.46075 6.58111 7.72771
890 2 8.43013 2.4915 5.85113
891 2 6.41896 5.9272 1.77984
892 2 3.65814 2.23937 1.91163
893 2 8.63563 9.27746 9.31227
894 2 0.300632 9.2421 0.723239
895 2 3.33095 5.62994 5.13344
896 2 6.25747 8.13705 6.13756
897 2 4.47439 1.56353 7.81805
898 2 2.7177 1.71194 2.92192
899 2 3.59106 4.24693 7.49302
900 2 4.8375 5.10575 5.47019
901 2 3.72988 1.63844 3.72202
902 2 3.46429 7.65593 0.140087
903 2 2.65548 8.33537 2.22904
904 2 0.336488 0.101784 8.03304
905 2 3.21386 2.84871 5.27463
906 2 7.26392 2.3052 4.57271
907 2 0.979833 5.12674 4.31235
908 2 1.36281 8.79952 7.06668
909 2 8.64665 3.18243 4.62356
910 2 5.78519 2.79773 8.01284
911 2 3.6385 8.11697 4.32858
912 2 2.29396 2.43186 6.96216
913 2 6.53562 4.47771 0.674885
914 2 3.49287 0.457747 7.93447
915 2 2.40248 8.48143 6.30539
916 2 3.35869 7.47504 6.50521
917 2 0.960281 8.26388 9.29771
918 2 7.6681 2.33292 7.89606
919 2 5.82096 0.310382 2.70155
920 2 1.03463 7.67275 6.76947
921 2 8.30404 6.37424 2.9646
922 2 0.570285 6.27595 8.62404
923 2 6.41798 4.08569 7.31081
924 2 3.02809 5.63958 7.97581
925 2 3.11255 9.10122 4.5233
926 2 5.07727 3.62329 5.42021
927 2 8.15709 2.22101 4.04588
928 2 4.18392 2.70798 6.03466
929 2 6.50698 3.9131 1.89529
930 2 4.96698 8.97181 6.11534
931 2 6.83495 5.7298 0.478065
932 2 2.53301 8.66516 7.79624
933 2 5.0526 2.19397 3.74004
934 2 2.45254 7.6571 0.847036
935 2 7.63614 7.11284 6.63238
936 2 3.91377 9.34193 3.19501
937 2 5.22316 7.3348 0.101421
938 2 8.45006 1.00769 7.33371
939 2 8.08942 6.78648 0.493688
940 2 6.22581 7.69459 7.31957
941 2 8.9732 4.65239 6.8882
942 2 1.59556 2.81579 5.3222
943 2 6.27532 2.23671 2.37002
944 2 7.36802 6.84665 9.1696
945 2 2.73992 7.3132 8.06794
946 2 4.34939 0.956904 6.31543
947 2 6.10624 3.95833 8.71526
948 2 4.50441 8.88302 0.423377
949 2 2.23151 4.88705 2.42222
950 2 3.96979 7.01477 3.28506
951 2 8.90233 1.41196 6.14903
952 2 5.76183 7.09231 4.98464
953 2 1.29371 1.25155 8.78691
954 2 2.20962 9.36909 1.30741
955 2 5.50437 8.27033 4.73454
956 2 4.67479 6.17947 8.7717
957 2 1.61479 0.335105 6.65546
958 2 7.38355 8.70981 1.05623
959 2 4.77222 5.24776 1.74767
960 2 7.34822 5.37764 5.83314
961 2 0.41603 6.09725 0.645737
962 2 4.21271 2.99764 2.80988
963 2 7.56649 3.36313 5.33588
964 2 5.07113 4.77819 6.9068
965 2 4.18975 2.06939 5.10312
966 2 6.0931 8.30677 0.660671
967 2 7.3173 6.48409 2.07858
968 2 9.09375 0.819149 3.73286
969 2 7.54247 6.7052 4.55603
970 2 9.26994 1.20878 9.3268
971 2 5.59558 3.21928 9.34044
972 2 2.00988 7.39602 8.77482
973 2 0.278196 0.112656 1.72526
974 2 7.75478 1.98651 5.612
975 2 9.20147 8.66944 8.13714
976 2 9.31175 0.0659798 6.71821
977 2 3.65709 9.04524 6.00705
978 2 0.968575 5.45517 7.59469
979 2 8.61355 3.02948 1.65528
980 2 2.32664 0.410116 3.68136
981 2 1.89969 3.83824 3.53083
982 2 7.96255 3.65984 3.68591
983 2 8.81811 3.30969 7.6294
984 2 7.10285 0.63985 2.48213
985 2 3.93834 6.64067 2.14754
986 2 4.11892 8.28719 2.70073
987 2 5.38526 9.36909 7.3015
988 2 9.28006 4.94695 2.49818
989 2 8.54395 8.06449 0.381939
990 2 1.22471 4.51956 0.525466
991 2 8.80484 8.92987 3.86485
992 2 5.49192 5.59535 8.773
993 2 1.08328 3.88188 3.17087
994 2 1.64754 2.73344 3.33392
995 2 8.80227 3.00725 9.07306
996 2 5.64651 5.24276 3.63697
997 2 0.720999 2.5834 2.11885
998 2 8.16907 0.210627 3.04662