#bin. KALJ data file T=0.5

1000 atoms
2 atom types

0 9.4 xlo xhi
0 9.4 ylo yhi
0 9.4 zlo zhi

Masses

1 1.0
2 1.0

Atoms

1 1 3.55596 7.10403 2.20673
2 1 4.272 4.51335 2.85793
3 1 2.80937 4.18677 6.37058
4 1 3.17489 3.75216 9.00013
5 1 2.25198 9.19662 2.32788
6 1 3.9923 6.90055 4.83622
7 1 6.76617 5.35391 7.85802
8 1 8.74731 1.496 6.77236
9 1 0.946348 6.61726 5.83728
10 1 0.0362021 6.17832 9.2562
11 1 2.24167 0.603405 5.94543
12 1 8.32271 2.32138 7.18004
13 1 8.37062 8.11406 7.59606
14 1 3.26241 5.54248 7.42708
15 1 9.06319 9.1361 9.16106
16 1 8.13349 6.45183 8.08728
17 1 5.93582 0.104438 1.65771
18 1 6.73618 7.57785 4.7639
19 1 9.08688 7.3638 1.66583
20 1 7.40898 3.83978 0.125449
21 1 8.87254 2.35118 9.04496
22 1 6.44813 9.31588 8.8389
23 1 8.00834 9.33744 8.99441
24 1 2.0781 5.40352 9.18823
25 1 3.64956 8.28037 1.33654
26 1 7.51796 0.496907 3.23013
27 1 7.18934 3.56086 8.31529
28 1 5.64182 3.26211 2.75159
29 1 0.702133 5.85741 6.52756
30 1 8.93159 1.26083 4.35971
31 1 9.12874 1.43059 1.78271
32 1 6.77625 5.23974 6.04874
33 1 8.64879 7.75911 0.81674
34 1 2.78851 8.28649 0.620589
35 1 4.86381 5.36691 6.10314
36 1 3.052 8.84348 3.04898
37 1 8.31996 4.83791 8.39501
38 1 0.70303 0.382191 1.51679
39 1 5.06916 7.93145 3.75359
40 1 4.49816 0.145826 7.18051
41 1 3.25761 0.517503 6.01732
42 1 1.76143 0.193876 4.19852
43 1 5.34001 0.442465 8.88798
44 1 3.86419 0.0724081 3.21739
45 1 1.76849 6.87824 9.09202
46 1 0.34692 4.34551 3.38011
47 1 6.23517 8.60188 1.12845
48 1 4.5624 1.50911 5.5305
49 1 1.97966 3.70664 6.71375
50 1 7.06151 1.35165 4.67961
51 1 6.58058 6.55301 2.3101
52 1 4.62269 8.23917 0.748521
53 1 9.21132 0.843937 9.20985
54 1 7.29716 9.34228 4.12147
55 1 1.14221 5.47902 3.05115
56 1 3.90298 8.16339 4.58914
57 1 3.66218 4.28769 5.61766
58 1 4.52341 4.96686 3.81597
59 1 5.09594 6.00665 7.11307
60 1 2.8896 1.25482 5.442
61 1 3.83321 5.45217 3.12724
62 1 4.4528 7.83948 1.90851
63 1 0.375101 3.59725 6.61375
64 1 1.50541 8.50841 2.81077
65 1 7.12874 1.63254 2.25832
66 1 1.83313 1.25904 0.00935989
67 1 0.361395 4.88787 6.44234
68 1 4.41822 7.46134 7.62824
69 1 9.00864 6.23303 3.25519
70 1 8.87579 4.80979 3.1335
71 1 7.21956 8.2898 7.464
72 1 2.23396 2.24288 9.11993
73 1 4.42604 5.74178 2.23836
74 1 6.16224 1.74588 2.87129
75 1 4.59289 2.66272 2.72251
76 1 6.71968 5.90744 6.88894
77 1 1.80087 4.27624 5.61461
78 1 5.0205 7.07599 0.969989
79 1 6.76119 9.21362 7.80719
80 1 0.112203 2.78989 0.319216
81 1 4.11587 4.59632 7.55608
82 1 4.2169 9.08369 1.53518
83 1 5.74278 7.43088 5.26208
84 1 1.21969 6.11007 7.49295
85 1 7.64412 2.913 8.93023
86 1 5.61491 5.31813 7.75355
87 1 1.64163 3.3734 4.85023
88 1 8.92862 0.278942 1.34183
89 1 5.61697 7.02472 2.24853
90 1 5.7435 5.93264 2.57797
91 1 0.421594 6.44026 3.86883
92 1 8.08884 0.887066 0.0082235
93 1 2.64345 1.3503 6.6115
94 1 2.81419 4.89387 4.16632
95 1 7.47343 7.09134 4.27766
96 1 6.01375 6.85173 7.23826
97 1 0.579449 3.66734 8.43345
98 1 5.36946 7.88247 1.49371
99 1 6.39112 9.29723 5.72609
100 1 4.71046 5.34917 0.163533
101 1 5.84325 4.91055 8.63838
102 1 1.88162 2.90169 2.70899
103 1 4.44428 6.12233 4.09322
104 1 7.04131 6.34563 6.01898
105 1 0.212768 5.70168 4.51482
106 1 8.25271 8.35415 5.28469
107 1 4.16473 3.64011 3.49369
108 1 8.78664 9.04951 3.26079
109 1 7.27442 4.67947 8.67905
110 1 8.79497 7.17141 7.47058
111 1 6.20029 8.42103 0.0631238
112 1 7.4548 2.75842 0.509316
113 1 3.22734 4.7502 0.113877
114 1 6.24569 3.47411 1.75869
115 1 4.93778 1.50581 2.66956
116 1 5.62404 2.4817 0.201752
117 1 8.89592 8.77705 8.22694
118 1 8.06204 3.69142 1.09995
119 1 3.76693 2.60328 6.22475
120 1 1.79964 8.45351 7.66038
121 1 3.64675 2.01152 5.28819
122 1 2.95818 7.36428 4.51367
123 1 4.05376 6.31009 0.555981
124 1 0.190473 9.02311 6.49615
125 1 6.20001 4.35962 6.11281
126 1 7.11137 4.23521 1.11344
127 1 4.44364 8.71272 5.34124
128 1 7.08662 6.62156 5.08858
129 1 8.85088 7.04978 -0.014605
130 1 3.315 2.16744 0.77332
131 1 6.97429 1.62771 3.55009
132 1 8.14367 8.18578 2.64393
133 1 5.41342 2.17832 3.35412
134 1 0.453671 8.64333 8.72599
135 1 8.46425 7.6062 4.39531
136 1 7.03922 2.56172 8.04218
137 1 2.69769 5.16842 6.59625
138 1 4.98189 8.01827 5.89111
139 1 2.80823 2.25834 5.95229
140 1 0.391822 4.92292 8.32231
141 1 2.18509 8.71363 3.57478
142 1 5.43083 0.771135 5.7224
143 1 4.67889 2.13779 0.441715
144 1 3.41378 0.84489 3.89896
145 1 0.429533 2.62231 8.69655
146 1 1.32334 2.01398 2.47055
147 1 7.99781 3.14356 7.71999
148 1 1.07795 7.66526 4.67382
149 1 2.97219 0.59144 2.89794
150 1 0.796284 8.55322 4.94063
151 1 6.84908 8.08615 6.45451
152 1 5.85716 9.0514 4.87599
153 1 2.13831 6.1505 0.47843
154 1 4.39447 5.49565 1.17167
155 1 8.04553 0.49761 4.4354
156 1 6.61219 1.91288 7.10656
157 1 6.54692 5.56788 8.88767
158 1 3.03279 8.61547 8.1223
159 1 2.0941 6.56586 7.57106
160 1 6.11992 6.18795 8.08205
161 1 2.155 2.26449 6.86793
162 1 0.265996 3.62915 2.54406
163 1 7.08807 2.76919 7.01386
164 1 2.49272 9.25876 7.44351
165 1 0.753792 6.7469 4.82555
166 1 6.80925 6.56539 8.71441
167 1 3.78784 8.85181 0.480573
168 1 7.04326 3.97196 2.42867
169 1 1.77433 4.57638 0.518346
170 1 8.28484 2.77161 2.96747
171 1 5.49801 0.26055 6.679
172 1 3.50456 6.75331 9.09283
173 1 3.58291 5.03548 1.98708
174 1 4.2497 4.38223 9.28744
175 1 8.13798 3.81856 8.83015
176 1 2.83884 1.80249 4.42832
177 1 6.35955 6.5166 1.29249
178 1 5.59293 3.43394 0.773867
179 1 5.60546 3.13544 3.748
180 1 1.00987 0.921092 6.96146
181 1 8.30135 5.74899 1.93123
182 1 2.97402 8.36236 4.08598
183 1 3.80691 4.66455 0.953506
184 1 5.21201 6.79703 7.95819
185 1 9.32491 8.06133 6.28435
186 1 0.392776 2.35311 1.79349
187 1 2.02485 2.26037 5.1099
188 1 1.08349 6.08739 -0.0207719
189 1 3.13161 5.20063 5.21987
190 1 4.50343 4.6421 1.80028
191 1 5.08701 3.19767 4.68248
192 1 3.67282 1.53138 6.14027
193 1 3.82416 1.97472 2.5124
194 1 1.93273 8.57432 4.59229
195 1 5.82542 8.10583 4.34947
196 1 1.55872 0.150102 3.05123
197 1 5.40924 4.13945 1.84206
198 1 7.11381 1.35209 9.20755
199 1 4.85879 8.76827 4.39105
200 1 1.4554 9.09124 8.43225
201 1 4.87985 1.41135 3.80471
202 1 3.23881 6.37654 2.84728
203 1 4.27108 1.87327 6.98474
204 1 5.98421 7.32838 0.657147
205 1 3.55523 0.866052 7.09635
206 1 4.37599 9.04823 6.32275
207 1 6.7941 4.79332 3.07772
208 1 0.657793 5.66336 1.83707
209 1 6.45602 1.34861 6.2018
210 1 1.20987 2.87566 7.96104
211 1 6.10369 9.38823 0.514373
212 1 4.54615 6.84731 2.12142
213 1 2.4846 6.85174 3.55621
214 1 7.75442 2.47614 2.02374
215 1 5.59921 6.16961 3.70056
216 1 7.98842 3.87343 6.77946
217 1 1.96964 0.607628 6.8879
218 1 2.20877 2.0937 3.44534
219 1 8.65509 4.49788 0.839917
220 1 8.80503 0.389195 8.35571
221 1 5.96055 7.57129 6.4212
222 1 5.29095 6.13277 1.67796
223 1 4.0419 0.462373 0.270913
224 1 5.74261 5.86194 4.70911
225 1 2.24155 3.08704 7.46545
226 1 3.4288 1.6872 7.70588
227 1 6.7679 5.64175 4.9854
228 1 7.32843 0.525589 8.54972
229 1 9.37267 2.34512 6.78497
230 1 7.22593 0.360865 0.231229
231 1 8.28679 3.72069 5.64223
232 1 6.83801 4.32132 7.71418
233 1 9.13368 9.19853 2.32036
234 1 5.97812 8.4279 3.32961
235 1 6.89071 7.94578 0.778289
236 1 8.6556 3.79894 2.90776
237 1 6.50467 0.634359 3.96183
238 1 7.24249 0.715091 7.41863
239 1 6.3447 4.91642 7.01208
240 1 0.248201 1.75052 9.31637
241 1 2.91037 5.20406 2.84942
242 1 4.59926 4.83711 8.48634
243 1 5.66454 9.37958 3.9558
244 1 7.5754 4.841 4.64452
245 1 6.42797 4.60699 1.91558
246 1 7.58868 2.45871 4.07446
247 1 4.67143 3.50471 0.292714
248 1 6.11642 8.30262 5.58878
249 1 5.64956 4.02518 5.16112
250 1 5.13579 4.16767 3.32694
251 1 7.37087 3.85318 5.00008
252 1 8.65842 5.77311 5.04762
253 1 2.13841 6.52103 1.46389
254 1 5.81544 4.16732 0.0143845
255 1 4.65664 3.64722 2.43296
256 1 0.40495 5.7788 0.779606
257 1 0.0860232 8.61686 4.01014
258 1 3.69874 6.14435 1.60696
259 1 4.47261 2.0448 4.60642
260 1 3.71683 3.23858 2.49687
261 1 0.890957 8.05922 7.97598
262 1 5.97628 1.78319 8.83687
263 1 7.38966 4.28689 5.90283
264 1 6.76614 2.43899 4.74028
265 1 3.47395 2.63554 1.65778
266 1 0.43064 6.82306 0.57037
267 1 6.00242 4.19869 2.72412
268 1 5.70539 0.979531 1.19187
269 1 3.10577 5.50796 1.06834
270 1 9.10645 8.16494 2.38339
271 1 1.77516 8.1862 0.910023
272 1 1.47188 3.16817 0.855261
273 1 0.231147 5.45307 3.48177
274 1 4.03413 2.51305 8.09288
275 1 4.35415 0.60081 8.65309
276 1 8.99388 8.09007 9.12475
277 1 6.63066 2.62125 2.2495
278 1 4.59915 2.7187 5.49479
279 1 0.758074 3.5574 0.0775708
280 1 2.72411 0.923246 7.70422
281 1 4.36308 7.53172 2.99477
282 1 1.07155 8.4467 3.94812
283 1 2.03305 6.39741 5.55268
284 1 6.04247 6.31773 5.59493
285 1 0.132787 1.63671 6.009
286 1 1.07373 1.88974 6.56365
287 1 4.32698 0.518701 5.63984
288 1 0.486 6.69322 1.67552
289 1 8.0088 1.38293 1.79227
290 1 5.2244 4.39241 7.8841
291 1 0.210698 3.2013 7.65719
292 1 6.13306 2.98741 6.48889
293 1 8.23594 4.50668 3.9192
294 1 1.0229 3.84315 7.41685
295 1 5.45098 2.99979 7.30855
296 1 8.41844 5.59333 9.0995
297 1 9.30212 4.6025 4.25267
298 1 0.0139642 3.63601 5.66306
299 1 4.28331 8.50561 7.28497
300 1 1.95607 1.64562 5.9506
301 1 5.29458 8.87273 7.39915
302 1 8.72907 7.4125 5.61043
303 1 4.221 3.59359 5.02989
304 1 0.626021 5.87623 8.36231
305 1 6.15232 8.32066 7.68856
306 1 1.32974 9.29648 0.852777
307 1 5.97145 1.50869 4.03674
308 1 2.38402 8.61724 9.06587
309 1 0.251856 6.52503 7.52111
310 1 8.06219 6.64635 3.51889
311 1 0.440449 8.37621 0.383066
312 1 3.19068 7.377 0.418837
313 1 5.24046 7.03836 3.18588
314 1 5.03263 0.466946 0.463902
315 1 5.3819 5.84591 8.80758
316 1 9.00641 4.70884 9.22772
317 1 7.77722 6.11039 4.39667
318 1 8.60084 3.19122 3.90627
319 1 2.27903 1.50073 2.61703
320 1 1.6755 6.7384 4.37503
321 1 0.272419 4.22941 0.578545
322 1 5.35329 9.03017 5.83524
323 1 8.91598 1.48072 8.44208
324 1 8.99759 5.76445 8.07019
325 1 0.529844 7.59981 8.9305
326 1 3.80905 1.85982 3.85779
327 1 2.50058 2.53624 1.2403
328 1 6.14988 3.2911 4.66804
329 1 0.512661 7.66894 1.15434
330 1 4.12481 2.83543 0.909809
331 1 0.127818 0.817306 5.19943
332 1 3.16697 2.71712 7.48464
333 1 1.27389 4.49055 8.98483
334 1 1.71228 6.50079 6.59528
335 1 7.25987 5.96951 1.58196
336 1 7.58494 5.31081 3.7148
337 1 8.45446 0.834464 3.47029
338 1 4.24671 1.00359 4.57329
339 1 6.69048 5.53247 0.741455
340 1 3.41778 6.92964 6.55039
341 1 6.30268 7.47564 9.0267
342 1 1.15095 2.43392 4.5342
343 1 2.43994 7.93654 2.87403
344 1 2.3799 4.46525 8.92427
345 1 -0.00604612 4.63699 5.40191
346 1 9.14505 3.66417 9.22953
347 1 7.5183 5.75435 8.54993
348 1 7.80513 1.3976 2.92684
349 1 2.64656 3.24052 2.14941
350 1 1.9535 4.53627 7.36916
351 1 5.21629 8.98622 1.06975
352 1 4.26948 5.41135 6.99234
353 1 7.66955 7.54939 5.22955
354 1 2.60614 6.45032 8.59909
355 1 8.8106 8.00665 3.4117
356 1 7.70641 2.18988 6.43657
357 1 1.70831 4.79175 4.70715
358 1 5.34836 3.67475 6.32972
359 1 1.04496 6.89207 8.26471
360 1 5.45987 2.12727 1.16816
361 1 8.20493 0.295927 6.40895
362 1 1.86241 8.52663 5.6254
363 1 9.06209 6.47439 2.11294
364 1 0.043979 2.59393 4.23525
365 1 4.53931 6.42243 8.96807
366 1 2.36477 9.15969 1.22777
367 1 0.477868 2.67526 5.93875
368 1 4.4326 7.34654 6.5865
369 1 7.34435 7.33506 2.44472
370 1 1.29147 1.05172 2.62396
371 1 0.50842 0.133268 3.4511
372 1 5.76366 2.76582 5.5337
373 1 6.30837 0.884762 7.1141
374 1 7.12013 9.26709 1.13508
375 1 2.65642 7.47188 8.90454
376 1 4.47591 3.742 1.35938
377 1 6.8117 9.05995 6.75654
378 1 2.65694 5.78803 2.03988
379 1 6.96229 6.97462 3.40288
380 1 7.87986 4.20181 7.70675
381 1 2.85845 2.96184 0.125799
382 1 4.60115 0.990041 6.54769
383 1 2.78895 0.556325 1.85038
384 1 2.83219 8.19842 5.09918
385 1 4.26464 7.34872 0.165919
386 1 2.5888 9.05061 6.31964
387 1 9.07583 2.03934 0.829172
388 1 2.80821 1.49015 0.213168
389 1 5.63686 1.91274 6.99743
390 1 1.23855 5.81981 4.02751
391 1 6.87738 8.00383 3.79615
392 1 2.06832 5.39794 1.26071
393 1 3.83053 9.18719 4.20866
394 1 3.38807 3.65041 4.17332
395 1 6.35351 1.59183 0.693671
396 1 3.09347 2.84455 8.52986
397 1 6.61838 5.93478 3.13557
398 1 7.78553 5.07028 1.17169
399 1 7.9462 3.05632 4.8066
400 1 8.87527 3.83784 4.76809
401 1 6.16434 6.27692 0.181371
402 1 0.148346 3.5931 4.03399
403 1 8.58803 1.89844 2.48756
404 1 1.72428 0.481486 1.79435
405 1 2.19588 5.40142 5.68049
406 1 4.4382 2.22339 1.71503
407 1 5.20398 7.92799 2.65405
408 1 1.4591 2.33579 1.54318
409 1 8.24318 6.75342 4.98282
410 1 6.21343 3.95129 8.44042
411 1 5.19282 4.9987 2.47101
412 1 2.87257 5.85938 3.68763
413 1 1.82658 8.0992 6.5826
414 1 7.30031 8.40441 1.80998
415 1 7.81714 8.48266 0.886286
416 1 8.10017 7.74131 1.68427
417 1 8.53101 1.10978 0.933538
418 1 5.73356 3.04562 8.56961
419 1 2.6968 3.17189 3.45096
420 1 7.14045 6.40104 7.74245
421 1 9.35956 6.89142 6.36722
422 1 6.19376 0.760651 4.98325
423 1 7.42338 5.27639 2.32268
424 1 3.65191 2.79485 3.43836
425 1 8.40311 4.70036 2.05646
426 1 9.19729 2.3004 7.92129
427 1 7.12729 2.10381 1.31476
428 1 1.91047 7.68917 3.91097
429 1 4.30731 1.18999 7.79104
430 1 6.6445 9.20565 3.35048
431 1 0.0191385 5.49773 7.18164
432 1 0.618059 6.27636 2.76387
433 1 7.2059 4.25543 3.85308
434 1 9.33967 2.88791 3.22452
435 1 6.82086 8.63612 4.9034
436 1 1.49976 7.5158 7.42205
437 1 1.88177 3.88101 2.36909
438 1 1.52714 6.6219 2.25357
439 1 2.65514 3.87879 8.03917
440 1 1.23547 1.12258 0.832438
441 1 4.97145 2.17173 7.7841
442 1 2.74448 8.37914 7.07294
443 1 1.75814 4.11796 1.33815
444 1 8.84728 4.2567 6.2579
445 1 1.02176 8.61645 6.99178
446 1 7.9562 1.28981 8.35491
447 1 8.83446 2.97129 1.16359
448 1 1.06468 7.51189 3.2002
449 1 6.56656 0.853734 2.8886
450 1 1.89228 0.180144 9.36152
451 1 0.175208 4.39735 7.3049
452 1 0.0420141 7.17803 2.8911
453 1 4.60319 1.19941 0.952307
454 1 1.23735 7.56244 0.24433
455 1 4.35208 7.25864 3.97067
456 1 2.25979 5.45492 7.45567
457 1 6.62735 4.60131 5.09125
458 1 2.03069 7.55488 4.91808
459 1 7.32434 1.3511 5.69868
460 1 2.13793 4.00827 4.13413
461 1 1.62907 2.65426 6.11599
462 1 7.21868 7.15861 1.3379
463 1 0.848912 0.823763 9.32977
464 1 9.30153 7.88406 8.15203
465 1 8.64348 8.82948 6.13797
466 1 1.65323 1.38788 7.60838
467 1 5.22011 1.32219 8.42378
468 1 6.75457 7.3225 5.74452
469 1 0.0141333 1.15348 3.40665
470 1 9.16177 9.13268 5.03597
471 1 8.9632 8.79967 0.744245
472 1 8.56701 2.02884 5.86192
473 1 6.43832 3.28539 7.64806
474 1 1.89116 7.34111 5.93498
475 1 8.58172 0.720362 2.35794
476 1 3.07618 4.5281 7.45277
477 1 2.44982 0.852096 4.59483
478 1 3.10108 6.49044 0.841897
479 1 1.02396 5.06074 7.3554
480 1 1.65037 7.77155 8.61089
481 1 5.21974 3.12005 1.69746
482 1 4.6347 2.68323 3.82535
483 1 3.04329 6.26566 4.78776
484 1 1.98551 1.49325 1.62553
485 1 9.40464 6.79347 8.46711
486 1 7.22741 8.74454 0.0741287
487 1 7.69685 7.13862 6.11574
488 1 7.72762 6.45128 6.90129
489 1 9.33731 1.04261 7.54204
490 1 5.00862 8.84937 3.25524
491 1 4.02823 8.29995 3.56144
492 1 2.82147 2.45337 2.70138
493 1 1.19106 5.05694 5.82558
494 1 5.26325 1.36929 4.80266
495 1 3.41646 0.482873 4.91285
496 1 3.6222 3.87587 6.8169
497 1 1.63231 5.03014 8.17688
498 1 1.68298 2.93588 3.83145
499 1 3.97387 8.34984 8.23172
500 1 6.84575 1.39352 8.18619
501 1 5.73663 5.1372 3.44309
502 1 0.204648 0.656285 6.44165
503 1 5.27998 0.995123 7.36202
504 1 6.91221 7.05571 6.87093
505 1 4.77978 4.44027 5.44165
506 1 8.45497 7.19788 2.7058
507 1 1.08738 0.934605 3.73764
508 1 5.07427 8.87933 2.127
509 1 5.83434 0.347665 7.90026
510 1 8.96674 6.5437 1.00504
511 1 8.70542 1.91935 3.56662
512 1 8.91149 2.90972 2.24643
513 1 8.96503 3.85705 1.77582
514 1 8.47913 4.87223 6.96999
515 1 4.68482 9.0828 8.27368
516 1 3.32589 7.55043 3.41244
517 1 0.742404 2.02416 7.54647
518 1 3.83682 2.42579 9.31176
519 1 2.16252 6.0098 2.81357
520 1 3.08093 5.83396 0.0692357
521 1 5.08552 0.32987 4.89208
522 1 1.48663 9.22105 6.215
523 1 2.00576 5.16816 3.58403
524 1 1.44101 0.686353 8.48783
525 1 6.82051 0.818555 1.65071
526 1 4.08139 3.37966 8.81197
527 1 2.54595 7.01485 2.42188
528 1 3.10397 1.56729 3.20076
529 1 2.84854 3.18529 6.55626
530 1 8.34893 8.77233 1.77216
531 1 1.06289 1.91271 5.39831
532 1 1.40503 4.42104 3.20924
533 1 3.58179 7.46859 8.39985
534 1 6.27142 7.54439 2.87731
535 1 3.78894 7.66275 5.52804
536 1 4.1239 1.08774 3.14224
537 1 5.39774 1.4083 0.300872
538 1 5.39775 1.75998 6.01195
539 1 8.18442 5.53649 2.98128
540 1 3.60918 6.16474 8.28556
541 1 2.93401 1.79317 1.90029
542 1 3.63756 5.31857 6.13926
543 1 1.37382 8.65481 0.107423
544 1 3.33725 0.780192 9.00476
545 1 7.49099 6.27191 2.64568
546 1 5.35135 7.74816 7.22988
547 1 0.587806 9.44115 5.67272
548 1 0.752087 0.108136 4.49508
549 1 2.34219 2.19867 7.99584
550 1 1.17594 4.33825 6.52179
551 1 3.92086 5.42902 8.95689
552 1 -0.00354229 4.95843 1.44294
553 1 4.28805 3.56819 6.07295
554 1 4.68806 4.05855 4.22905
555 1 1.70569 1.56572 4.2095
556 1 1.31965 5.85027 5.04034
557 1 3.45413 7.75666 7.36033
558 1 7.63532 2.19079 5.19475
559 1 4.31432 6.54262 3.15901
560 1 2.55728 3.01839 4.5514
561 1 3.2521 4.17162 2.40822
562 1 0.433546 7.48859 7.27381
563 1 3.93673 7.20705 1.19687
564 1 6.41731 2.4558 3.79573
565 1 1.07428 0.955749 5.90378
566 1 0.727193 5.15748 0.0620815
567 1 8.3548 7.72157 6.57266
568 1 0.818857 1.48448 1.68054
569 1 2.09963 3.04469 8.51763
570 1 3.99198 6.01619 5.35137
571 1 8.313 4.76906 5.45476
572 1 6.30099 5.54945 1.83332
573 1 1.1482 3.22248 1.98733
574 1 3.57698 2.70024 4.53504
575 1 0.909419 2.27846 3.38535
576 1 6.55115 3.54096 5.69727
577 1 4.5076 8.446 9.12906
578 1 -0.0262033 8.50925 7.31361
579 1 6.08573 8.53416 2.17995
580 1 2.92504 7.04728 5.50904
581 1 5.83463 9.40262 2.7826
582 1 5.41504 5.14309 1.43884
583 1 0.526687 1.67672 4.29076
584 1 5.01902 4.44672 0.747586
585 1 8.64532 9.28348 7.23331
586 1 5.20502 6.77928 4.39693
587 1 7.86504 0.321088 1.73345
588 1 7.73046 8.6787 3.45536
589 1 1.4759 8.65233 1.75512
590 1 7.43059 4.79481 6.90973
591 1 3.55415 6.64225 3.92399
592 1 8.20901 9.39405 5.42655
593 1 8.82627 5.36844 6.15856
594 1 6.74936 4.66819 0.195981
595 1 8.14096 6.71918 1.70215
596 1 7.84405 5.58141 6.4417
597 1 1.32105 0.103359 7.48382
598 1 1.66333 3.92011 8.27337
599 1 0.695948 7.95706 2.08894
600 1 6.88935 9.34498 2.23265
601 1 9.22556 8.13284 4.92741
602 1 7.97889 3.50982 2.1731
603 1 2.87116 4.03781 4.96488
604 1 6.75987 8.3643 8.59031
605 1 4.64206 5.85228 8.04442
606 1 4.72268 3.84222 7.09225
607 1 2.54572 0.205499 8.52683
608 1 5.68505 8.61853 8.53372
609 1 0.266669 1.83623 2.65391
610 1 8.41886 3.06484 0.193713
611 1 4.87107 0.469123 1.60539
612 1 1.96236 3.62949 0.0355672
613 1 5.63672 0.960648 2.21057
614 1 1.4134 2.06584 8.47794
615 1 2.15649 0.90418 3.57861
616 1 0.62257 3.25017 4.87852
617 1 8.52797 5.45494 4.0193
618 1 6.37527 3.3002 0.110888
619 1 5.91429 4.01857 7.08468
620 1 7.89507 4.82373 0.170618
621 1 8.53837 2.23254 4.66901
622 1 6.93528 8.33908 2.82193
623 1 5.88499 8.53877 6.57227
624 1 8.12271 2.13985 1.01261
625 1 0.997346 4.96849 1.02397
626 1 0.880164 4.87399 4.12795
627 1 0.456366 8.43362 2.98545
628 1 1.31307 2.66666 9.38042
629 1 3.64675 5.55971 4.27511
630 1 4.07178 6.4553 7.41484
631 1 4.2812 1.21684 1.92116
632 1 2.21934 5.67595 4.57869
633 1 0.794114 9.10224 2.35155
634 1 4.63126 5.30659 4.79156
635 1 2.51599 3.52259 0.931662
636 1 7.96246 8.3731 8.62504
637 1 1.68435 6.0936 8.48774
638 1 5.32934 6.69948 6.3449
639 1 2.481 0.745034 0.868343
640 1 6.7235 2.35527 9.16753
641 1 3.05603 6.8595 7.72225
642 1 8.23138 2.30678 8.25282
643 1 7.64737 8.20645 4.43586
644 1 3.43209 0.176418 1.10509
645 1 3.68821 3.63128 7.79297
646 1 5.01423 6.16217 5.39075
647 1 6.25618 0.822156 9.29089
648 1 6.16995 4.14353 3.77641
649 1 4.24015 6.31462 6.30992
650 1 4.20671 2.97691 7.11007
651 1 5.20703 6.20763 0.512108
652 1 3.47724 9.13989 6.81101
653 1 7.25703 0.301924 5.1606
654 1 4.62301 7.47449 8.64274
655 1 2.91104 7.37592 1.45446
656 1 6.39239 2.5886 0.848389
657 1 5.26528 8.94715 0.0427796
658 1 1.34007 7.20049 1.36345
659 1 1.01861 2.85153 6.91181
660 1 4.87554 5.66411 3.16183
661 1 6.05558 4.39587 0.985194
662 1 6.92486 3.79238 6.75486
663 1 3.38259 8.19455 9.18286
664 1 0.361224 5.65921 5.54428
665 1 3.78964 0.416324 2.202
666 1 1.56663 0.0903337 5.20128
667 1 7.43892 1.1042 0.871323
668 1 6.0853 7.23924 3.85543
669 1 1.03695 3.36253 3.11021
670 1 6.10997 1.77773 5.28449
671 1 1.47499 4.99965 2.14761
672 1 5.71868 5.26371 0.318661
673 1 1.89809 2.02192 0.700444
674 1 0.980227 7.5359 6.43989
675 1 2.9455 0.0341561 0.174175
676 1 7.87115 6.63711 9.07155
677 1 7.68345 7.33402 7.61484
678 1 8.66985 3.08405 6.36564
679 1 7.76917 1.17393 6.62467
680 1 0.138314 7.57413 3.97945
681 1 3.36357 8.00783 2.35064
682 1 3.83348 4.56046 4.65797
683 1 3.82205 1.4462 0.26244
684 1 7.96073 7.68519 0.0456085
685 1 7.72386 5.81094 5.43854
686 1 2.90415 5.39231 8.43272
687 1 5.50842 4.77764 4.4121
688 1 7.82798 7.61329 3.40373
689 1 0.862435 8.47071 5.89981
690 1 4.75373 0.368791 2.69192
691 1 3.51214 1.22411 1.25167
692 1 7.97313 9.22782 2.6249
693 1 8.20478 0.796514 7.45387
694 1 2.17646 7.25092 0.630036
695 1 4.83696 2.65532 8.88757
696 1 7.84228 4.47415 2.91241
697 1 4.67647 7.08128 5.57091
698 1 4.2962 4.5137 6.37206
699 1 9.2743 6.60665 5.34891
700 1 7.81763 8.70485 6.76078
701 1 3.61128 0.317581 7.93783
702 1 8.87961 2.92325 5.26294
703 1 5.79866 5.72491 6.4794
704 1 8.60864 5.54246 0.908819
705 1 6.89141 2.45128 5.83648
706 1 3.28685 3.2513 5.54407
707 1 7.27782 2.44971 2.98275
708 1 4.88291 7.70781 4.85809
709 1 2.41302 7.27771 6.89814
710 1 1.26667 6.10198 1.14592
711 1 2.31464 1.25012 8.51298
712 1 2.47586 4.31866 3.2054
713 1 8.73514 6.15359 7.00429
714 1 0.883389 4.24098 5.08107
715 1 5.65062 5.0635 5.40186
716 1 4.68041 0.357773 3.81931
717 1 5.19542 4.81111 6.93745
718 1 5.02648 2.66146 6.47549
719 1 8.04453 5.5452 7.62797
720 1 6.56406 6.27657 4.17304
721 1 2.50355 4.70506 2.03535
722 1 7.14702 3.19612 1.37385
723 1 8.77965 3.74045 7.32469
724 1 7.54222 1.74661 7.48942
725 1 5.48476 6.90797 8.96158
726 1 8.37968 8.90103 4.29598
727 1 2.78857 6.30857 6.91514
728 1 8.14029 0.0269962 0.666497
729 1 1.63227 7.67432 2.25156
730 1 0.622589 4.11692 1.69415
731 1 0.439534 3.25339 1.1425
732 1 7.94095 1.50992 4.17387
733 1 3.24986 8.97268 1.99921
734 1 0.557103 4.79411 2.49903
735 1 8.18016 1.17373 5.11998
736 1 8.44013 7.34826 8.44509
737 1 1.09254 3.86359 4.04757
738 1 2.4611 8.28566 1.89898
739 1 3.47488 4.56552 8.41614
740 1 7.18095 0.403096 6.22075
741 1 3.5049 8.95737 5.6816
742 1 7.02666 3.33117 4.17231
743 1 0.317965 0.093312 7.34286
744 1 1.25727 0.973829 4.83255
745 1 3.65284 3.73142 0.480842
746 1 0.325082 0.88784 2.45612
747 1 0.801759 2.1564 0.813443
748 1 5.17958 3.85458 8.70163
749 1 7.08194 7.0391 0.221186
750 1 8.73744 0.930153 5.87167
751 1 5.59271 7.67762 8.26262
752 1 4.74113 3.23776 7.97086
753 1 6.66337 7.43244 7.91399
754 1 3.64744 9.1581 8.90462
755 1 1.21296 3.55504 5.82077
756 1 3.06334 6.1059 5.83906
757 1 0.179111 1.0364 0.776049
758 1 2.72977 7.88857 6.1508
759 1 3.52915 4.50602 3.53211
760 1 4.15187 8.69599 2.5872
761 1 0.0620799 2.10634 5.12844
762 1 5.32531 7.79133 9.39631
763 1 8.84013 3.19277 8.36585
764 1 2.75151 4.53094 1.0312
765 1 0.316839 8.71749 1.45034
766 1 7.51869 3.24037 6.1054
767 1 5.53638 2.31561 4.53141
768 1 3.40418 3.75603 1.4561
769 1 0.444128 7.50635 5.453
770 1 2.45592 7.70482 7.90026
771 1 6.21107 1.72876 1.73296
772 1 5.57742 0.803456 3.33352
773 1 3.74767 8.22734 6.45581
774 1 2.27845 3.23381 5.68489
775 1 9.20919 5.50227 2.36548
776 1 4.30152 1.65665 8.75371
777 1 6.51335 7.65195 1.75046
778 1 7.9514 6.78813 0.721288
779 1 2.7978 9.42069 4.00671
780 1 6.60475 5.08017 4.16306
781 1 7.91152 2.00982 9.34424
782 1 0.555577 1.46672 8.33976
783 1 8.33722 6.4155 5.9581
784 1 2.58046 9.2999 5.13293
785 1 1.43932 6.55993 3.34365
786 1 1.71533 5.44713 6.58598
787 1 0.406657 0.0737389 0.464422
788 1 7.46489 8.75062 5.84858
789 1 0.436126 0.29866 8.3665
790 1 6.07775 2.32122 7.90509
791 1 7.70877 3.502 3.37296
792 1 8.83311 6.4391 4.28132
793 1 7.795 9.1904 7.89648
794 1 7.65733 5.86832 0.407815
795 1 9.069 4.22259 8.28404
796 1 6.65847 3.24864 3.14331
797 1 9.15226 0.212328 4.13876
798 1 3.2467 1.82996 8.70206
799 1 5.47786 2.31862 2.2472
800 1 7.37059 7.3882 8.6876
801 2 2.62812 4.64782 5.55655
802 2 8.63363 6.33824 8.80131
803 2 3.40152 1.12648 2.22487
804 2 7.18837 1.93556 0.473177
805 2 6.42783 8.79279 4.11314
806 2 5.94288 5.99355 7.25405
807 2 2.97823 3.5709 7.31026
808 2 0.836835 7.16756 2.39634
809 2 5.16965 4.61533 9.15167
810 2 7.85287 0.65558 5.70961
811 2 1.0037 3.93255 1.00293
812 2 2.63296 3.95794 1.70251
813 2 1.07262 1.71558 9.38289
814 2 2.06926 2.79668 0.410488
815 2 7.15229 3.06431 5.2832
816 2 0.876343 0.784302 7.75891
817 2 2.85039 0.399755 6.85508
818 2 2.03957 4.90962 2.79541
819 2 8.90681 0.659234 6.87082
820 2 1.00428 4.42993 8.02222
821 2 4.50602 9.30634 9.12955
822 2 6.44535 0.682389 8.37008
823 2 6.98162 6.14754 0.00753363
824 2 2.54203 6.78589 6.19396
825 2 5.34047 4.51381 6.19431
826 2 4.25895 3.09861 1.89008
827 2 6.16885 6.72318 4.8134
828 2 7.33176 0.945472 3.93788
829 2 6.10559 5.09885 2.61524
830 2 7.27964 5.30417 9.22489
831 2 9.18639 0.336943 3.00829
832 2 6.59938 0.0777935 4.60903
833 2 2.0228 1.36093 5.10301
834 2 5.82411 5.84677 1.07981
835 2 8.04371 4.64821 6.24768
836 2 8.31989 8.7435 0.124689
837 2 4.58507 9.16255 0.587143
838 2 9.39591 8.56147 5.63943
839 2 0.337989 1.52565 6.8861
840 2 9.08711 3.68239 0.723732
841 2 2.41797 4.75025 8.03628
842 2 3.9014 5.36953 0.45264
843 2 1.96872 0.486604 7.80656
844 2 6.06725 6.65845 3.18117
845 2 3.68674 6.69721 5.75386
846 2 5.62399 3.63137 7.88295
847 2 7.79481 7.98457 5.98102
848 2 8.77063 7.1449 3.69855
849 2 8.62928 4.91104 4.63672
850 2 2.73262 1.7129 1.13064
851 2 4.98762 3.44311 5.52517
852 2 8.89185 2.30285 1.64206
853 2 1.73103 5.8424 1.95784
854 2 6.12884 2.58789 2.99254
855 2 6.04778 4.57275 7.73641
856 2 7.51565 7.70637 6.84078
857 2 7.65175 4.20823 1.8171
858 2 4.32193 4.01838 8.20997
859 2 5.94814 1.46298 7.89813
860 2 7.03982 7.92227 9.23712
861 2 6.07071 7.00182 8.3306
862 2 3.74335 8.02597 0.499554
863 2 7.32124 4.95336 5.40659
864 2 7.64105 8.89776 5.00022
865 2 9.08953 0.149191 5.81447
866 2 6.64806 3.98549 9.10579
867 2 4.97274 0.536813 8.00156
868 2 8.83858 4.00455 3.75993
869 2 3.3526 2.14083 6.90561
870 2 4.18286 3.28535 4.28541
871 2 6.69371 0.767494 5.64658
872 2 3.71281 1.13865 8.34528
873 2 6.05745 2.62457 1.64919
874 2 8.09207 0.0485136 3.64837
875 2 5.0121 6.99652 7.11768
876 2 0.995533 7.0864 3.97306
877 2 0.658909 4.20436 5.9227
878 2 0.866414 9.32334 9.18761
879 2 6.07237 2.22229 6.15348
880 2 3.78646 1.13206 5.34686
881 2 9.18637 4.35551 2.46105
882 2 2.67434 6.75581 0.0281368
883 2 4.09672 0.61404 1.32028
884 2 1.2169 2.74599 5.34608
885 2 4.05357 1.87914 1.06457
886 2 4.51282 1.99731 3.30805
887 2 1.28529 7.8813 5.47909
888 2 4.22815 0.0172664 4.91577
889 2 1.02586 4.03193 2.43091
890 2 8.02024 6.03185 1.17581
891 2 3.31364 0.775119 0.500973
892 2 7.70329 7.63334 0.893682
893 2 2.48754 1.6237 7.34296
894 2 9.23873 5.81325 1.44386
895 2 2.25762 8.93648 0.427535
896 2 3.3532 3.65033 3.19118
897 2 5.1233 1.90984 9.11509
898 2 7.46367 4.93962 7.89299
899 2 7.2711 3.51297 7.45218
900 2 1.87026 9.00504 6.95019
901 2 7.68367 0.0666272 7.07015
902 2 1.25864 6.77858 0.57389
903 2 4.79301 5.18848 7.55795
904 2 8.56598 6.20426 0.299015
905 2 4.31402 6.72904 8.15994
906 2 9.09 4.92021 7.75524
907 2 2.55398 5.15632 0.442035
908 2 3.3237 8.92263 4.80852
909 2 3.85892 5.26221 8.02795
910 2 1.94247 7.04981 8.24959
911 2 7.3056 9.04908 8.60568
912 2 5.48323 0.753209 4.21261
913 2 0.389045 0.836994 4.23069
914 2 6.47866 3.64422 0.942453
915 2 3.98662 5.03273 5.30517
916 2 2.38545 0.0363524 3.19491
917 2 8.36823 6.89645 6.70767
918 2 4.9327 3.24169 3.20651
919 2 9.19892 5.11058 0.495483
920 2 6.4652 7.79241 7.17243
921 2 2.07151 6.11047 3.76706
922 2 4.00231 0.396089 6.45419
923 2 5.16513 2.10217 5.23391
924 2 1.58784 2.22916 7.53272
925 2 1.00276 8.35283 1.09765
926 2 5.54622 3.88305 4.32049
927 2 7.46509 1.98281 8.63998
928 2 6.24907 6.48664 6.43673
929 2 0.686395 6.80383 9.08392
930 2 7.91003 2.88259 1.26992
931 2 5.61813 8.26647 0.673946
932 2 1.78338 1.44164 6.78012
933 2 2.55307 0.706569 9.32768
934 2 4.49178 6.40419 1.31372
935 2 8.35126 6.36596 2.62716
936 2 0.309332 4.31408 9.01722
937 2 5.02916 6.34445 2.6817
938 2 1.26076 3.29362 8.7633
939 2 7.23121 3.15992 2.507
940 2 2.95266 6.53714 1.69202
941 2 3.22971 3.09851 0.912611
942 2 9.24641 7.15407 4.70417
943 2 5.4689 3.33469 9.32911
944 2 7.01584 5.13513 1.56753
945 2 8.23989 3.96485 0.250036
946 2 9.06632 8.15396 1.42168
947 2 6.11449 9.16797 7.23834
948 2 1.87596 7.27544 2.99296
949 2 5.37187 8.38998 5.1262
950 2 7.37818 0.74331 2.32783
951 2 0.611746 2.84958 2.50107
952 2 1.99629 4.61572 6.44211
953 2 1.94026 3.23872 1.56332
954 2 4.50733 2.11529 6.116
955 2 7.02665 8.10054 5.47449
956 2 0.835785 3.03026 3.91551
957 2 3.62663 5.96183 6.74238
958 2 2.96499 2.46664 3.97874
959 2 2.04027 7.62583 1.43761
960 2 0.754578 6.7633 6.80896
961 2 1.55557 1.53414 3.37868
962 2 4.65868 1.11386 9.35685
963 2 9.15047 6.11769 6.02976
964 2 4.01166 3.9934 2.14725
965 2 7.17167 6.46453 0.861998
966 2 0.134536 2.09101 3.53896
967 2 8.64533 8.46738 6.8653
968 2 8.82769 0.515127 4.97221
969 2 4.95545 8.25083 8.23321
970 2 5.11436 5.45281 4.10801
971 2 6.62953 0.759185 0.731015
972 2 8.82528 2.90178 7.49293
973 2 6.60345 3.1111 8.62233
974 2 8.12101 2.75113 5.62344
975 2 1.19248 5.46317 8.8562
976 2 3.51618 4.79043 6.78888
977 2 2.68239 4.09258 0.209343
978 2 2.06526 7.82915 0.0563259
979 2 1.84826 3.66764 3.3742
980 2 9.30242 5.41667 8.7765
981 2 2.12949 2.24829 2.06112
982 2 0.822112 5.14978 4.97271
983 2 1.51622 5.49386 0.461239
984 2 5.55232 1.13888 6.59103
985 2 7.35298 6.10418 3.70335
986 2 8.52226 1.61148 7.61855
987 2 5.02766 8.4859 6.65865
988 2 7.87656 3.76781 4.22696
989 2 2.88697 2.47986 5.16514
990 2 8.94838 0.41698 0.460625
991 2 3.44891 5.76869 2.3411
992 2 9.40992 7.54839 0.400539
993 2 5.06321 1.54844 1.70325
994 2 8.64661 1.58071 0.163313
995 2 1.39999 5.88185 5.95387
996 2 2.79349 6.06424 7.86437
997 2 0.531989 8.89313 7.8734
998 2 1.46256 6.9352 5.23053