#bin. KALJ data file T=0.5

1000 atoms
2 atom types

0 9.4 xlo xhi
0 9.4 ylo yhi
0 9.4 zlo zhi

Masses

1 1.0
2 1.0

Atoms

1 1 1.58943 4.31704 8.51239
2 1 7.47891 3.91468 0.345207
3 1 3.09921 4.64286 2.15738
4 1 7.76322 8.05388 8.37019
5 1 1.46829 0.537133 4.5484
6 1 6.37242 8.6511 7.59638
7 1 0.152349 8.15207 8.26832
8 1 5.01159 1.95803 3.97132
9 1 3.24557 3.59889 6.13269
10 1 0.138136 7.17218 7.47882
11 1 7.44659 0.24734 6.79482
12 1 8.16721 1.3624 0.927839
13 1 0.688073 3.58216 0.055057
14 1 3.59182 4.46753 3.09598
15 1 7.43549 2.56658 9.29069
16 1 1.39997 0.687939 5.50945
17 1 9.20482 4.2737 0.305679
18 1 7.53541 5.75501 1.53155
19 1 3.36123 3.31566 8.81791
20 1 7.18201 5.65719 7.03256
21 1 8.06581 3.8204 2.71121
22 1 3.59372 2.23141 6.19266
23 1 6.03788 1.53657 8.6224
24 1 2.87568 1.50465 6.5941
25 1 6.76052 1.06478 8.00204
26 1 0.593692 4.7731 3.08494
27 1 8.51477 7.75636 1.28295
28 1 3.99104 3.85251 4.68351
29 1 1.89562 2.90625 5.16453
30 1 1.47189 1.82034 4.69012
31 1 2.32941 4.80417 1.06119
32 1 5.69754 7.02345 5.73144
33 1 2.00123 0.95559 7.99115
34 1 5.28533 8.19479 1.59022
35 1 8.62582 2.34346 2.56037
36 1 1.4748 0.883693 1.41209
37 1 5.56445 2.37862 1.51078
38 1 1.12136 8.18512 4.75131
39 1 1.45335 9.40313 6.29704
40 1 0.448465 2.79944 8.67877
41 1 8.7292 7.21101 6.84723
42 1 2.09707 7.56702 4.77823
43 1 2.08024 1.39907 0.702458
44 1 5.77213 3.85299 4.23951
45 1 5.4478 1.82794 6.15996
46 1 2.76477 5.29523 4.54405
47 1 1.40376 5.85894 6.99066
48 1 4.94981 5.26468 3.78042
49 1 3.96675 3.63226 7.02592
50 1 2.62749 0.648067 3.17057
51 1 2.2184 5.89162 3.74393
52 1 3.84373 1.38373 0.675734
53 1 5.72911 2.90795 3.82598
54 1 8.74245 6.64252 0.0206463
55 1 1.35388 3.66272 4.72646
56 1 1.36938 4.80132 7.64786
57 1 1.75203 8.51559 8.39193
58 1 8.46982 8.91086 0.158171
59 1 0.0846651 9.38257 4.10118
60 1 0.583516 7.1283 0.59551
61 1 4.80889 4.83689 1.66167
62 1 9.09652 0.481557 0.295593
63 1 7.02104 6.62255 0.11986
64 1 8.13995 7.54173 0.294611
65 1 7.27539 4.24848 6.39716
66 1 3.27286 4.49054 7.4125
67 1 2.95528 9.30752 2.39
68 1 5.02844 6.56177 9.07996
69 1 5.66825 4.4481 1.19388
70 1 0.665718 4.26226 4.17365
71 1 8.6451 4.89199 0.949642
72 1 6.26738 6.34487 6.70521
73 1 3.62346 6.46989 7.48665
74 1 7.74395 7.19225 6.29205
75 1 8.5578 0.108109 8.1697
76 1 5.78455 2.73849 0.372603
77 1 3.30396 3.12453 4.3727
78 1 1.5004 6.70457 2.1164
79 1 5.57 0.643437 1.56394
80 1 9.15607 5.81457 4.83958
81 1 3.49425 0.620865 3.85856
82 1 8.82148 1.78384 4.56169
83 1 3.04208 7.30296 4.61297
84 1 1.36017 6.86884 7.44261
85 1 1.82935 3.20297 0.403998
86 1 4.44241 6.51992 0.491958
87 1 7.19507 2.93042 5.13746
88 1 0.856211 7.93744 7.36389
89 1 0.381015 2.67561 3.25258
90 1 4.45642 6.40744 3.24192
91 1 1.3232 7.04194 5.20449
92 1 8.94691 7.52909 8.88687
93 1 2.37973 8.31896 2.26386
94 1 8.89029 7.95959 2.19511
95 1 3.97792 5.19161 2.17815
96 1 4.00633 0.521673 7.589
97 1 3.24222 3.60655 2.28075
98 1 6.61029 9.13818 2.37326
99 1 3.36727 0.318802 4.89981
100 1 5.55734 0.314737 4.81698
101 1 4.27063 5.64286 1.20189
102 1 7.58139 2.46022 2.32551
103 1 1.08219 8.56573 1.69463
104 1 3.42337 8.33954 8.44513
105 1 6.46242 7.68095 7.22809
106 1 6.30629 2.47474 5.65459
107 1 7.86185 7.4302 1.97573
108 1 6.44189 1.49049 6.02723
109 1 8.11801 4.70622 3.31536
110 1 8.92654 5.3306 6.78111
111 1 3.65713 7.46037 7.93194
112 1 5.62721 1.40485 2.23705
113 1 1.39488 5.21667 9.01569
114 1 3.01723 6.27904 4.3238
115 1 6.35857 0.794175 5.188
116 1 6.23028 4.94487 8.36866
117 1 7.65377 5.97818 9.09744
118 1 8.31491 1.86434 8.29084
119 1 8.91896 6.92776 1.87483
120 1 4.71747 7.56663 4.14542
121 1 5.44283 8.13086 6.88299
122 1 8.88451 0.936802 8.78876
123 1 2.27488 1.20167 5.17256
124 1 3.41943 8.24624 2.13269
125 1 7.41763 4.08744 4.53053
126 1 0.416607 5.66806 8.68518
127 1 2.24612 8.52466 5.0224
128 1 4.16791 9.14958 8.27113
129 1 2.83081 3.9424 1.35439
130 1 2.732 7.09089 7.4976
131 1 0.538454 1.34899 4.85611
132 1 7.23472 5.84865 5.1378
133 1 7.25262 6.64567 1.1044
134 1 4.60627 1.04655 5.96989
135 1 6.28206 2.28309 4.48058
136 1 1.35548 0.335096 8.58273
137 1 2.26184 5.14545 8.24715
138 1 6.63828 4.67294 7.36345
139 1 0.120909 7.63361 4.1677
140 1 2.94768 5.11444 5.94789
141 1 3.24833 8.50907 4.86037
142 1 1.52921 3.29445 8.797
143 1 4.91839 7.51822 7.46237
144 1 0.903336 4.29696 6.08631
145 1 5.99477 3.9984 7.85724
146 1 7.55481 9.05366 3.0152
147 1 3.07072 9.14558 5.71615
148 1 5.01999 3.95675 7.62057
149 1 8.95377 6.61132 2.86719
150 1 4.6558 0.248216 6.79291
151 1 1.4555 7.99369 5.67231
152 1 4.4782 7.54505 0.0337548
153 1 0.400307 6.77978 9.02969
154 1 6.43933 3.98564 8.85485
155 1 6.46782 6.16414 3.10877
156 1 4.8784 9.34409 3.05168
157 1 7.77066 1.22521 6.48233
158 1 2.77861 1.63471 7.79064
159 1 0.784427 8.24448 3.70338
160 1 6.46103 8.45532 6.4877
161 1 0.468847 4.56356 1.99923
162 1 9.06269 1.47128 0.324736
163 1 8.89437 3.56125 7.27893
164 1 5.33361 7.0298 3.5529
165 1 7.55225 8.14929 1.31939
166 1 0.0255102 4.77536 4.97795
167 1 5.22291 7.85408 2.90724
168 1 7.12623 4.82633 8.95879
169 1 3.79852 5.55742 6.92333
170 1 2.77506 0.609849 7.23546
171 1 0.47009 3.70717 3.20438
172 1 4.05623 1.74657 1.62222
173 1 7.0818 7.57579 0.628526
174 1 2.24495 3.64214 4.08438
175 1 5.56507 8.72759 2.53519
176 1 0.237495 0.780366 5.85418
177 1 1.79311 8.89336 4.05895
178 1 7.84231 7.62319 7.28752
179 1 5.76071 7.27465 1.79769
180 1 2.2956 0.170768 5.16421
181 1 8.00082 6.46263 2.50522
182 1 4.61077 2.89342 1.18859
183 1 2.78515 7.51547 8.5143
184 1 2.21955 2.69412 8.07891
185 1 0.426014 4.77073 8.06269
186 1 0.427716 6.49486 5.56749
187 1 2.48979 2.4854 0.766144
188 1 1.55881 5.46885 0.703042
189 1 0.899134 2.50517 5.16302
190 1 8.36973 4.3175 4.7584
191 1 5.23156 4.16496 8.80098
192 1 9.08463 6.18969 7.23197
193 1 4.02116 6.98495 5.96052
194 1 4.05953 2.96289 0.0828024
195 1 9.12318 8.46446 3.67226
196 1 2.20953 1.18807 4.16047
197 1 2.29037 4.46258 5.01761
198 1 2.41263 3.86424 9.11667
199 1 2.92647 6.11834 6.82843
200 1 4.12607 0.220989 5.70204
201 1 8.08283 6.92998 8.66577
202 1 9.04208 2.08434 3.60563
203 1 4.60001 6.33167 6.90347
204 1 4.85898 2.93751 7.29777
205 1 8.27587 6.68533 7.66811
206 1 0.0486545 1.24121 3.92644
207 1 7.21105 2.77021 7.1842
208 1 6.92811 5.3525 5.89352
209 1 4.67587 0.742077 8.36721
210 1 1.43327 3.45173 7.74721
211 1 2.89107 2.68947 2.73281
212 1 5.9945 7.07649 2.80248
213 1 4.1387 1.10844 5.06657
214 1 7.33542 3.49949 8.7409
215 1 1.40379 5.07792 4.25001
216 1 5.13632 3.61283 6.56085
217 1 7.74718 9.05022 8.81049
218 1 3.9333 3.80459 0.709595
219 1 4.97575 8.30618 0.525589
220 1 9.34388 3.03953 2.34162
221 1 9.26162 9.04895 7.60851
222 1 5.0315 3.45129 0.164233
223 1 2.93668 7.97656 1.23308
224 1 7.35342 6.40335 3.62963
225 1 3.6414 4.58221 6.43183
226 1 9.07495 8.00937 0.461047
227 1 4.8905 9.38576 1.94596
228 1 6.52151 2.43649 8.87987
229 1 1.0437 0.96542 6.60675
230 1 3.44959 0.848619 1.84389
231 1 0.315337 5.9603 6.50818
232 1 5.62626 5.85558 8.5471
233 1 8.38166 8.59161 7.3832
234 1 0.610959 1.04509 0.71783
235 1 6.31896 4.48807 6.13724
236 1 3.3601 8.33539 6.65886
237 1 7.58351 2.97593 0.909537
238 1 6.32487 0.174499 8.26572
239 1 2.12624 6.68404 6.75784
240 1 5.38192 0.172343 5.87864
241 1 3.4664 7.13532 1.74018
242 1 7.99946 1.54731 3.70658
243 1 1.89352 8.95202 0.324386
244 1 5.55905 0.719271 8.99606
245 1 6.34973 4.69959 2.81518
246 1 0.895365 6.34357 1.3045
247 1 6.09398 3.68784 3.13098
248 1 8.11336 7.63866 5.29779
249 1 0.837171 4.98794 6.7443
250 1 2.36147 7.41646 2.84867
251 1 9.117 3.98777 5.54461
252 1 4.4884 4.30105 2.49449
253 1 1.10352 5.53952 5.82483
254 1 7.26191 1.69742 3.0356
255 1 6.45663 7.78336 8.2052
256 1 8.89848 4.53927 8.60829
257 1 3.3282 7.77932 0.180266
258 1 4.04773 1.62763 4.05763
259 1 3.86684 4.92701 8.31844
260 1 5.45979 2.04659 7.16513
261 1 6.73046 3.2312 0.158661
262 1 3.64628 0.687678 2.86478
263 1 9.32515 2.62623 4.83281
264 1 7.56907 5.10423 4.23393
265 1 6.6582 5.01375 4.93527
266 1 8.10903 6.56827 5.38315
267 1 2.9588 1.55533 1.13192
268 1 4.91978 2.58403 8.99586
269 1 2.89423 5.70958 8.98542
270 1 8.29307 8.07235 6.43635
271 1 0.0685134 8.94418 0.46241
272 1 6.96975 1.76269 5.18354
273 1 6.73536 3.28959 4.06407
274 1 6.28408 6.76171 7.74911
275 1 4.67437 6.58928 4.42022
276 1 8.19479 5.74331 3.34042
277 1 5.58765 2.22443 2.8535
278 1 2.15377 3.57319 6.02021
279 1 2.59476 0.629785 1.25155
280 1 3.96054 4.20483 1.64287
281 1 5.35038 8.11674 4.93656
282 1 8.53192 0.671221 3.94389
283 1 8.26549 7.92476 4.07414
284 1 7.27379 6.25775 6.13049
285 1 4.9128 5.87745 2.13113
286 1 0.288113 0.511619 8.03786
287 1 5.39112 8.35389 9.00251
288 1 1.58622 0.554732 0.222429
289 1 7.36891 0.73678 5.54403
290 1 2.10131 9.33531 7.86672
291 1 3.91147 7.645 5.22847
292 1 1.89005 4.75708 5.94908
293 1 1.80519 8.07391 3.33507
294 1 9.0683 3.39507 8.26949
295 1 7.58202 4.59896 5.38814
296 1 6.1935 6.76496 1.09383
297 1 3.04343 3.33873 0.443783
298 1 4.40468 6.0545 5.6736
299 1 4.94126 6.89041 2.37173
300 1 6.60822 4.55842 3.98069
301 1 8.84584 1.04029 7.73617
302 1 1.08668 0.0755684 3.63287
303 1 1.85309 7.74874 7.70829
304 1 5.44138 4.08873 2.28887
305 1 3.65719 2.38238 0.768136
306 1 0.230474 9.25432 3.0604
307 1 5.70353 9.10097 0.968284
308 1 6.49587 0.471938 6.29857
309 1 0.562984 4.12842 7.22879
310 1 2.70499 2.6595 5.96007
311 1 8.64991 8.75317 1.25882
312 1 1.79939 5.84718 1.61536
313 1 6.58043 0.201271 1.41704
314 1 6.04462 5.49635 0.849402
315 1 5.25384 4.4257 5.85923
316 1 2.44523 4.12824 2.92835
317 1 0.175463 1.57936 7.21234
318 1 8.67549 5.69588 8.98385
319 1 3.63922 -0.0179475 6.69272
320 1 5.69711 7.96404 3.92029
321 1 3.43137 4.47838 5.32189
322 1 1.92974 6.80883 8.43104
323 1 6.12155 9.0007 3.40296
324 1 4.17114 4.0459 9.08548
325 1 3.48204 6.02095 0.426826
326 1 1.40069 9.08453 5.23495
327 1 4.28436 0.266749 9.20437
328 1 3.17664 2.37549 8.45656
329 1 8.47963 3.72816 0.907983
330 1 3.5343 8.76085 0.470504
331 1 4.56304 1.97658 6.75126
332 1 2.20192 1.89078 8.65279
333 1 6.05198 5.38117 3.54072
334 1 3.19349 7.0958 6.47552
335 1 5.731 3.04925 2.32766
336 1 0.474558 3.51597 5.09938
337 1 5.30203 6.44094 7.78123
338 1 9.12573 2.39355 7.91921
339 1 1.14097 4.62364 5.112
340 1 9.37469 8.92178 2.04985
341 1 7.75431 0.630309 8.60033
342 1 5.71918 5.27568 1.8265
343 1 3.2238 5.3377 3.56508
344 1 2.53973 8.2126 4.07668
345 1 4.83724 7.17644 5.19478
346 1 6.68779 3.79818 1.00356
347 1 2.46488 2.79421 9.05593
348 1 7.39238 6.12569 7.97241
349 1 6.59705 3.16074 8.13543
350 1 4.66495 5.53892 4.80286
351 1 7.9383 5.33544 2.39275
352 1 1.63274 8.67138 7.13837
353 1 1.32539 2.2313 3.36336
354 1 0.837752 8.9804 8.09742
355 1 9.30094 6.44734 1.02944
356 1 6.80098 3.6358 7.12695
357 1 8.03785 0.51206 0.177237
358 1 7.09386 7.04594 5.43525
359 1 4.30552 4.67935 7.30799
360 1 2.82168 3.58449 5.17374
361 1 3.98903 3.42193 2.99755
362 1 4.73444 3.2985 2.08032
363 1 5.92807 6.23383 2.02446
364 1 2.20397 3.3312 7.012
365 1 0.755277 2.75655 0.765852
366 1 7.51738 8.34148 4.70708
367 1 0.559099 5.35629 1.18211
368 1 2.56092 0.177465 4.06797
369 1 7.67641 4.78279 7.28287
370 1 5.26096 9.25263 8.40819
371 1 1.90935 5.38244 5.1851
372 1 2.29345 4.14974 7.58347
373 1 6.65374 8.66456 0.756788
374 1 6.78505 3.91962 5.4491
375 1 5.42791 6.01319 6.12847
376 1 2.95884 0.652515 8.247
377 1 1.70969 6.64633 0.824387
378 1 6.19682 1.54555 1.20245
379 1 8.27226 6.25698 6.51323
380 1 5.93034 4.31937 5.10636
381 1 3.75819 0.387834 0.718073
382 1 7.55189 7.07289 4.45891
383 1 0.629983 8.90362 6.87217
384 1 3.02078 8.2634 3.17969
385 1 4.27113 8.53985 9.10118
386 1 1.53664 2.81259 4.18426
387 1 8.55072 1.2301 5.56441
388 1 8.08546 1.60745 9.23659
389 1 6.09368 3.21995 4.93032
390 1 3.88349 6.33676 2.44574
391 1 4.73917 0.959141 0.36839
392 1 6.82452 1.46294 4.02475
393 1 0.637682 6.50418 8.10146
394 1 7.3206 4.4474 2.32153
395 1 8.79886 1.19427 2.98896
396 1 3.68603 2.62744 3.51655
397 1 5.71576 5.04517 9.339
398 1 6.77986 5.75246 4.17046
399 1 8.4074 3.24789 1.82598
400 1 0.379112 8.13064 2.72539
401 1 2.35945 2.25448 7.04152
402 1 0.264759 8.04371 1.44845
403 1 1.4121 4.75751 1.54031
404 1 6.35268 6.24981 5.62893
405 1 4.40259 2.92365 6.31042
406 1 6.2453 9.18872 9.20689
407 1 6.457 0.371178 7.32048
408 1 0.735379 3.43986 1.51657
409 1 5.34734 2.82712 5.78135
410 1 1.02588 1.65224 5.70685
411 1 6.77181 0.412473 3.19353
412 1 9.0701 0.816146 4.81632
413 1 1.14689 7.49253 1.42777
414 1 6.65465 0.802959 9.04451
415 1 9.32899 1.95987 1.1066
416 1 7.82503 1.3937 2.22471
417 1 8.90333 5.92357 5.78609
418 1 4.29923 0.208937 4.49145
419 1 6.64301 1.00407 2.27109
420 1 9.37578 1.84889 5.59507
421 1 5.42144 6.11747 5.06451
422 1 7.81167 1.32533 4.73585
423 1 2.00996 3.28411 3.13259
424 1 4.51171 8.37792 3.45152
425 1 2.56068 2.18368 4.74787
426 1 5.37987 0.951321 6.62377
427 1 8.66034 4.56504 7.47524
428 1 3.01873 7.8673 5.5712
429 1 6.43437 8.11052 3.06773
430 1 5.13411 8.91305 4.24802
431 1 8.26465 1.82755 7.27163
432 1 5.57964 7.00426 6.84201
433 1 2.16499 7.28821 5.87205
434 1 8.28411 9.01242 2.2422
435 1 1.82502 2.35996 2.54938
436 1 9.30775 9.27152 8.76642
437 1 7.54122 8.43098 0.219302
438 1 8.66378 8.53814 8.51447
439 1 3.38695 7.32825 2.79895
440 1 6.85664 5.48745 2.35245
441 1 6.10682 1.20035 3.28328
442 1 5.35664 2.27039 4.8877
443 1 3.97537 7.82041 1.00335
444 1 0.398106 6.9951 6.56892
445 1 4.50367 2.0706 8.03886
446 1 8.53269 4.78779 5.76151
447 1 2.09028 5.00747 2.38547
448 1 6.28634 5.70189 7.69919
449 1 2.71689 0.0743774 0.445489
450 1 3.98291 5.07854 0.241623
451 1 5.51401 8.23634 8.0009
452 1 4.0954 7.27452 6.91764
453 1 3.66399 6.87324 3.71347
454 1 3.70213 7.83313 3.97492
455 1 8.91909 7.1345 5.81681
456 1 7.83498 5.23278 6.34342
457 1 4.55062 9.18076 0.814474
458 1 3.01372 6.30383 3.06827
459 1 8.99711 4.9964 2.05204
460 1 5.87623 3.02359 7.34519
461 1 9.04888 4.05336 2.63521
462 1 1.85269 9.28226 1.89199
463 1 3.42419 0.879676 9.14839
464 1 0.47216 3.10186 7.52575
465 1 2.13086 8.62136 6.01312
466 1 6.54893 2.02074 2.29209
467 1 4.75719 2.17947 0.499496
468 1 6.40697 0.488073 4.18709
469 1 8.105 3.75732 3.7869
470 1 1.18791 3.23842 6.77225
471 1 3.94328 8.59397 5.75928
472 1 7.14596 3.24671 6.15241
473 1 7.42138 2.43154 8.20971
474 1 2.64098 6.64208 2.22583
475 1 2.92128 3.41947 7.92285
476 1 0.457583 0.841051 9.05368
477 1 1.04068 7.51314 8.31194
478 1 0.497891 0.239203 4.95228
479 1 1.59138 2.81703 1.44876
480 1 7.29831 9.35162 7.82029
481 1 2.1389 7.296 1.58231
482 1 3.96621 5.91291 4.05246
483 1 4.31781 6.68039 1.45956
484 1 7.18432 1.62274 8.72766
485 1 6.67172 4.66946 0.468316
486 1 0.629803 2.16426 4.17132
487 1 0.408695 5.31579 3.93597
488 1 7.97273 6.05858 4.32795
489 1 1.972 8.25307 1.3412
490 1 6.44536 7.10051 3.77419
491 1 8.10165 8.02102 2.96785
492 1 1.51294 8.11444 9.33895
493 1 7.20366 7.53694 9.03654
494 1 6.73602 2.96324 2.65394
495 1 2.82113 2.55902 1.70765
496 1 4.1328 1.67636 2.86336
497 1 1.09836 0.0230884 0.972892
498 1 7.39255 2.07277 1.34412
499 1 4.71944 3.39202 4.02224
500 1 5.3616 6.25755 1.14036
501 1 4.57051 5.19476 6.42784
502 1 1.04568 3.05525 2.5788
503 1 3.73408 6.61445 5.02402
504 1 6.83525 7.43818 1.72271
505 1 8.16415 3.84369 8.07466
506 1 2.13208 5.73361 6.19562
507 1 7.27441 7.18494 8.00108
508 1 4.31149 7.35549 3.10485
509 1 9.02932 2.19797 8.98306
510 1 5.14137 1.40119 3.17166
511 1 5.3768 1.34344 5.27605
512 1 7.12229 5.23382 3.30075
513 1 2.18322 9.13267 3.11815
514 1 0.410703 5.99373 3.03311
515 1 6.57071 6.64697 4.68774
516 1 2.187 7.01995 3.88168
517 1 0.460641 1.20881 1.76226
518 1 1.40232 2.44725 7.42989
519 1 4.26259 3.84369 5.83059
520 1 3.25792 2.91351 6.90249
521 1 8.82828 1.22817 6.64329
522 1 4.46556 8.43769 6.64808
523 1 0.498068 7.08883 2.31879
524 1 0.26179 1.63907 8.37704
525 1 9.08412 3.17903 0.102647
526 1 4.9929 1.55943 8.94222
527 1 5.44677 0.443451 3.69311
528 1 5.67092 5.13607 4.55086
529 1 7.2883 2.15681 6.06173
530 1 6.59742 7.29016 6.25956
531 1 7.71242 9.16467 1.05489
532 1 5.06639 5.69061 0.339795
533 1 7.04445 8.99993 3.94641
534 1 8.06245 9.0494 3.9596
535 1 8.0694 8.69312 5.64884
536 1 9.11148 6.12708 3.83186
537 1 0.705431 1.9751 9.33624
538 1 4.31326 8.42052 4.55345
539 1 3.60277 2.00761 7.25708
540 1 1.53703 4.27 0.247649
541 1 7.41996 3.4915 1.93579
542 1 9.11634 2.97285 1.07851
543 1 1.22018 0.346927 7.43545
544 1 7.17903 7.91227 3.73346
545 1 8.19667 5.44367 5.05569
546 1 0.783192 5.69467 4.88322
547 1 0.464553 8.11308 6.21244
548 1 9.26316 8.10618 7.07502
549 1 9.06671 2.55382 6.85184
550 1 8.99988 8.2215 5.6831
551 1 4.91546 4.56524 0.338911
552 1 1.41713 1.30408 8.89746
553 1 1.9527 1.48887 6.09837
554 1 1.43004 4.15922 3.47559
555 1 6.62243 2.38183 3.49198
556 1 1.64708 2.49388 6.17978
557 1 0.0935728 6.04565 1.98295
558 1 7.18738 3.99266 3.31039
559 1 3.91347 9.21042 1.7041
560 1 3.51327 2.03772 5.20293
561 1 8.35218 2.66085 4.14051
562 1 0.637607 2.31188 6.51883
563 1 5.2073 5.083 2.71581
564 1 5.78692 9.17979 6.74276
565 1 8.07121 2.27092 5.19481
566 1 2.82216 8.98139 1.3284
567 1 8.98121 5.48354 8.01772
568 1 4.74976 5.26691 8.80919
569 1 6.44572 3.92857 2.15563
570 1 6.93186 6.57252 2.2193
571 1 1.42266 7.53539 6.61344
572 1 2.33054 0.975608 2.23264
573 1 8.83261 2.94819 5.68439
574 1 5.0768 1.50941 1.22727
575 1 7.58793 2.83664 3.35483
576 1 5.35854 4.61139 6.9334
577 1 2.77846 8.3024 7.6087
578 1 3.51372 8.84488 3.96778
579 1 8.97267 8.93028 6.52138
580 1 8.61155 7.04285 4.55647
581 1 0.492131 9.17952 5.81063
582 1 4.64918 3.35457 8.40359
583 1 8.411 2.41157 0.489742
584 1 1.43403 4.00271 2.29101
585 1 2.25911 9.36758 8.86201
586 1 5.75133 3.34333 1.27658
587 1 5.56156 7.42354 -0.00750353
588 1 8.17208 5.76982 0.661805
589 1 3.13456 4.2142 4.13946
590 1 6.34077 6.91553 8.83398
591 1 2.18575 7.63873 0.567511
592 1 8.18553 4.87423 9.36991
593 1 8.75604 3.15423 3.33612
594 1 4.81715 2.18785 2.17368
595 1 5.68175 1.61511 0.311141
596 1 9.21719 5.57928 0.429146
597 1 6.57335 2.76147 1.51775
598 1 7.84246 0.90085 7.54478
599 1 2.56557 2.5411 3.79092
600 1 1.37965 7.04196 9.22427
601 1 7.0833 0.22136 0.395111
602 1 3.17826 5.52185 7.81004
603 1 0.546481 3.22776 4.143
604 1 4.07627 8.30176 7.61851
605 1 1.32544 2.31658 8.49143
606 1 0.343502 7.50978 5.21572
607 1 1.60686 4.31819 6.79201
608 1 9.05607 6.49731 8.35493
609 1 2.54774 8.30941 9.13371
610 1 2.54998 9.14564 6.78642
611 1 3.97783 2.70082 2.27602
612 1 8.24005 2.87071 8.822
613 1 7.30472 8.31273 2.32825
614 1 8.43372 2.06694 6.15619
615 1 9.2339 0.468466 2.30909
616 1 8.37515 3.84905 9.22314
617 1 3.04262 3.51181 3.38411
618 1 5.64881 7.1692 4.583
619 1 5.7933 3.19745 8.77962
620 1 0.714232 4.40775 0.937722
621 1 6.28448 9.2121 5.535
622 1 4.45802 4.3133 3.60535
623 1 1.49005 7.76452 2.38923
624 1 7.16115 8.11353 5.75616
625 1 3.76034 1.37687 8.16931
626 1 8.14067 3.76721 6.01376
627 1 0.294084 6.66185 4.5438
628 1 1.06986 5.63691 2.29199
629 1 7.44092 8.56518 6.99594
630 1 0.790148 0.162697 1.95164
631 1 0.39943 6.9135 3.36178
632 1 6.19349 1.28443 6.99265
633 1 1.51033 6.88046 3.13612
634 1 4.9329 1.05556 4.44063
635 1 3.79261 9.08803 2.96424
636 1 4.41919 7.6179 1.97416
637 1 6.13946 3.34805 6.36994
638 1 8.7091 7.60405 7.87448
639 1 8.20171 3.31616 4.92377
640 1 7.95573 3.81388 7.06784
641 1 0.932541 8.99891 9.20698
642 1 5.79292 0.395741 2.6054
643 1 4.93984 8.9538 7.44923
644 1 3.1587 1.70889 3.51553
645 1 4.88926 3.84599 1.19723
646 1 5.46775 7.23481 8.43113
647 1 6.65921 7.80496 4.63999
648 1 7.40621 2.22336 4.35181
649 1 9.10422 5.26348 3.1419
650 1 4.81303 1.22101 7.43157
651 1 7.91979 5.22955 8.31588
652 1 5.8626 5.30952 5.60662
653 1 6.86019 8.64047 8.55567
654 1 7.59381 4.85118 0.937648
655 1 3.26157 9.18011 7.73757
656 1 2.27104 3.33721 2.15356
657 1 4.9753 7.54918 6.24611
658 1 0.140778 0.503878 6.92065
659 1 0.522989 4.58273 9.09178
660 1 2.24925 5.19853 7.23109
661 1 2.0462 1.85877 1.71444
662 1 2.5252 6.6684 5.18809
663 1 1.37845 5.78187 8.10114
664 1 9.37337 0.290739 1.31226
665 1 2.66657 6.75554 9.30914
666 1 9.0935 3.57226 4.49048
667 1 3.85262 5.86649 8.59742
668 1 5.1798 4.96146 7.94233
669 1 6.30898 2.38289 6.66614
670 1 6.14001 8.17461 5.55536
671 1 0.187766 8.55686 4.81035
672 1 5.44098 6.1264 3.04172
673 1 4.7902 8.99819 5.22332
674 1 3.13042 4.41689 0.375372
675 1 8.14338 7.04084 3.39174
676 1 3.34558 6.1742 1.45396
677 1 6.67679 5.86221 8.70289
678 1 8.1736 4.2852 1.70645
679 1 3.85661 2.94209 7.82483
680 1 1.83902 6.06529 9.23606
681 1 5.306 8.53134 5.92105
682 1 3.58502 3.17156 1.36415
683 1 7.1692 1.33753 0.416402
684 1 5.2297 9.34603 0.104725
685 1 9.1054 4.22971 6.59596
686 1 2.4291 7.7901 6.73923
687 1 4.43092 5.63054 7.77651
688 1 6.38147 8.09538 9.25981
689 1 8.11948 0.386858 6.04284
690 1 8.33075 6.74912 1.08651
691 1 2.96978 6.47965 8.4016
692 1 0.287821 3.48323 6.33619
693 1 1.05734 6.15061 3.82088
694 1 0.52497 7.80682 9.25221
695 1 2.30612 0.544251 6.13283
696 1 8.20073 5.69465 7.38572
697 1 6.19994 5.34623 6.65123
698 1 8.01726 2.8905 6.60517
699 1 1.33632 6.57798 6.14174
700 1 7.2469 1.00167 1.40182
701 1 8.95184 0.036933 5.50571
702 1 7.22844 9.12443 6.01919
703 1 3.29297 9.20055 8.94633
704 1 4.81857 4.47582 4.60025
705 1 7.12705 1.76416 7.12102
706 1 3.67444 5.61057 5.0745
707 1 3.87924 2.97801 5.29305
708 1 4.40049 0.706067 1.41554
709 1 3.95075 1.89473 9.11497
710 1 3.36962 6.19847 5.85239
711 1 3.87121 1.00654 6.69039
712 1 8.51134 5.96077 1.77914
713 1 4.29268 4.88496 5.5214
714 1 7.52049 0.574279 3.9483
715 1 5.79388 6.18363 4.05803
716 1 8.50862 0.242543 7.06045
717 1 1.72624 6.29393 4.55168
718 1 7.11784 5.69754 0.632158
719 1 3.15877 1.36864 4.52514
720 1 7.12385 6.81461 7.07459
721 1 3.71333 6.85987 9.18815
722 1 4.59197 7.74105 8.471
723 1 2.88841 1.78523 0.0721304
724 1 0.632905 2.38614 1.80289
725 1 8.16785 0.280753 4.8921
726 1 3.7748 3.92678 8.05699
727 1 7.16967 4.25867 8.10417
728 1 1.15738 3.34428 5.76392
729 1 2.13959 1.59778 3.16789
730 1 5.6404 0.833169 7.86766
731 1 1.6858 2.18945 0.225435
732 1 5.93152 6.2348 0.129819
733 1 1.11954 7.3274 4.04308
734 1 4.49601 8.57806 2.32535
735 1 2.05845 5.99651 2.69895
736 1 2.5476 5.81308 0.779134
737 1 2.99544 5.65124 2.39332
738 1 0.487129 5.62983 7.51975
739 1 1.04888 1.40537 7.77391
740 1 3.40687 5.0512 1.2726
741 1 8.66245 8.7289 4.68785
742 1 4.42566 0.705358 3.56796
743 1 6.08343 7.81947 0.849753
744 1 4.63479 2.51636 3.13336
745 1 1.79357 3.83754 1.3241
746 1 5.47891 4.45701 3.49045
747 1 0.510134 0.923323 3.00645
748 1 4.34703 6.71636 8.26765
749 1 7.42395 0.227589 2.11737
750 1 8.58453 9.38231 3.114
751 1 2.30876 4.95824 9.31499
752 1 6.74365 2.29149 0.614338
753 1 6.37096 2.17411 7.73838
754 1 8.382 2.20339 1.51506
755 1 6.34649 8.41741 1.73189
756 1 2.94941 4.45817 8.52962
757 1 9.08724 4.32667 3.74153
758 1 5.08899 3.46446 3.06183
759 1 8.22095 2.86122 7.69368
760 1 3.88641 4.86813 4.3156
761 1 8.84775 1.35961 1.96366
762 1 5.89654 4.02578 0.330254
763 1 9.22305 3.89484 1.63627
764 1 2.22887 6.17919 7.64282
765 1 0.852425 8.2959 0.690596
766 1 0.671026 3.77704 8.37389
767 1 4.45021 2.04378 5.62102
768 1 6.64961 4.84972 1.49004
769 1 5.39045 5.66528 7.12343
770 1 9.0256 7.55694 3.14224
771 1 8.36721 0.441301 1.59229
772 1 6.18195 8.79582 4.53125
773 1 2.90197 6.9455 0.874733
774 1 2.3881 0.917444 9.09588
775 1 5.09828 7.34966 1.03496
776 1 2.35036 4.78298 3.74682
777 1 5.02765 3.55877 5.05576
778 1 1.58867 0.505607 2.88813
779 1 4.65505 0.930065 2.37469
780 1 7.09597 9.36634 4.84898
781 1 1.45545 5.24382 3.20041
782 1 1.91003 1.33761 7.10551
783 1 4.28695 2.56113 4.37217
784 1 1.1699 1.32316 3.80844
785 1 7.11443 7.33493 2.81872
786 1 3.20567 1.73948 2.35169
787 1 8.69913 5.18523 4.16865
788 1 0.112222 1.91566 2.51943
789 1 7.76952 0.748228 3.02905
790 1 1.24358 1.42309 2.45171
791 1 5.9759 0.609121 0.641689
792 1 2.5878 4.29429 6.58554
793 1 5.45922 2.38555 8.1913
794 1 0.757485 5.99401 0.268765
795 1 4.19926 5.37982 3.14386
796 1 0.114921 5.06406 5.94225
797 1 1.19907 1.83868 1.1367
798 1 3.20526 0.983276 5.61643
799 1 5.84376 1.44002 4.31464
800 1 1.22439 8.92882 2.68355
801 2 0.664584 2.24338 7.91315
802 2 0.279794 2.72943 5.8398
803 2 3.82967 0.53551 8.47843
804 2 3.86801 1.41364 5.92541
805 2 3.76655 8.08933 2.86815
806 2 2.37829 6.50531 1.40558
807 2 9.20895 2.78009 3.97127
808 2 0.519726 1.71089 3.38636
809 2 7.94388 5.82389 5.77301
810 2 7.63058 3.14554 4.17362
811 2 4.96978 5.36882 5.55782
812 2 8.09012 9.01658 6.52103
813 2 5.333 8.63068 3.41253
814 2 9.06421 7.17946 0.615124
815 2 1.37595 1.81061 6.64792
816 2 8.99495 7.87148 4.86368
817 2 6.46978 8.29109 3.89587
818 2 3.71978 6.3284 6.62379
819 2 2.72218 4.26114 5.74355
820 2 2.26256 5.996 8.49192
821 2 1.92564 2.13197 5.43578
822 2 0.273097 7.10017 1.44992
823 2 2.96516 3.71168 7.11453
824 2 8.23135 8.28273 0.700739
825 2 8.08666 3.22463 0.276609
826 2 5.88629 4.95964 7.51481
827 2 1.15263 2.75008 9.37838
828 2 0.833156 7.24851 5.88192
829 2 1.24675 8.40476 6.40183
830 2 7.11434 8.00991 7.72842
831 2 5.20478 5.26429 0.999656
832 2 8.29339 4.53991 6.65745
833 2 4.59019 4.33442 8.25531
834 2 6.4958 1.65279 0.0563474
835 2 8.3577 8.13293 9.19576
836 2 3.03559 2.59655 7.6383
837 2 9.32495 4.07407 7.87821
838 2 8.75422 3.49792 6.42146
839 2 7.40103 3.48749 7.70394
840 2 2.83302 7.59838 2.11592
841 2 8.9851 6.62891 5.19226
842 2 8.69079 5.82434 2.61148
843 2 5.88425 0.872805 5.9163
844 2 3.09729 5.23823 0.473651
845 2 2.86915 1.82976 5.72826
846 2 5.02185 6.16282 3.79169
847 2 9.1947 4.99528 9.24126
848 2 0.14115 7.21268 8.34518
849 2 6.74066 9.19336 6.82766
850 2 0.419065 1.51483 6.22577
851 2 2.37275 3.20371 1.22993
852 2 6.55699 3.9745 4.62265
853 2 4.55836 1.86425 4.81838
854 2 4.51393 8.45824 1.39667
855 2 5.99558 8.77624 8.37418
856 2 5.764 7.47227 7.68595
857 2 4.33723 5.86047 9.36589
858 2 1.66315 5.15999 6.62918
859 2 9.106 6.53158 6.36506
860 2 2.94907 5.08125 6.85529
861 2 5.39174 2.72763 6.62525
862 2 7.9357 8.79975 8.01031
863 2 5.34004 6.74467 0.445115
864 2 -0.0121583 3.85094 8.97759
865 2 8.95762 0.502058 6.22652
866 2 3.56298 8.51361 1.34206
867 2 1.69701 8.01495 4.16112
868 2 0.271979 3.63462 0.775108
869 2 4.78288 5.99857 8.40177
870 2 4.23398 1.11969 8.99959
871 2 4.65633 9.06847 6.10541
872 2 3.21396 2.62672 0.0157955
873 2 7.66826 2.10142 0.531845
874 2 0.957422 9.04607 4.39354
875 2 0.114389 4.87097 7.26112
876 2 2.00271 0.389008 6.96904
877 2 0.562932 3.80783 2.27016
878 2 2.35138 4.36738 1.94174
879 2 9.35808 4.62484 1.29172
880 2 1.79777 4.30814 4.30841
881 2 3.03158 9.21758 3.39863
882 2 1.90885 0.448915 3.69938
883 2 3.85237 9.01943 5.01738
884 2 1.25756 6.08701 2.97984
885 2 5.36466 3.25825 8.01613
886 2 4.76923 0.545398 5.12426
887 2 2.6765 8.77753 8.31504
888 2 5.12235 0.358264 0.856359
889 2 9.38734 6.09009 9.22272
890 2 8.50374 0.117967 0.803119
891 2 2.63212 5.37154 1.68685
892 2 1.19123 3.64709 0.784918
893 2 4.74622 8.49739 8.25109
894 2 5.77557 8.51845 0.360012
895 2 3.06654 2.72427 5.1191
896 2 7.73875 7.35265 1.1434
897 2 5.38855 5.18632 6.32649
898 2 8.13345 8.25576 1.92037
899 2 2.8689 5.90103 5.13154
900 2 4.06344 2.78964 7.04238
901 2 6.23762 5.80042 4.92695
902 2 5.78143 9.20393 1.79237
903 2 9.23096 0.478581 3.47765
904 2 1.96267 1.86468 7.8377
905 2 7.78392 4.31524 8.68819
906 2 2.72394 8.48017 0.539097
907 2 2.13519 3.64587 8.32738
908 2 2.99587 1.51065 8.71667
909 2 7.76667 1.53518 5.58202
910 2 6.51058 5.40891 0.0382805
911 2 3.92369 7.16543 4.43521
912 2 8.46351 7.23323 2.54697
913 2 7.34175 6.03165 2.80345
914 2 3.76482 7.00061 0.863383
915 2 9.06726 8.59482 2.82786
916 2 2.81413 4.92581 2.95963
917 2 2.93794 7.38627 3.74675
918 2 5.78996 2.05187 3.62192
919 2 8.34395 0.647715 2.42474
920 2 3.38533 5.03841 9.00368
921 2 7.58985 3.88951 1.20581
922 2 1.29753 1.40861 0.350542
923 2 8.1637 5.16331 1.57454
924 2 0.0359413 2.40575 0.405177
925 2 4.92073 6.70558 5.95356
926 2 4.46561 4.27534 6.54914
927 2 1.69119 4.04589 5.52476
928 2 2.27524 3.94099 0.675098
929 2 3.37777 1.18081 7.29337
930 2 3.78034 7.64996 8.77153
931 2 0.949905 8.32442 8.58296
932 2 9.08021 5.56409 1.25726
933 2 6.00259 5.51494 2.56695
934 2 6.32157 7.11892 0.306211
935 2 7.14023 6.68449 8.62516
936 2 1.18955 3.10444 3.41755
937 2 1.0395 6.2271 8.84821
938 2 7.05539 0.8689 7.15046
939 2 6.07124 1.81765 5.10514
940 2 6.26752 7.30214 5.20919
941 2 4.07612 9.11444 7.35669
942 2 6.8214 8.60929 5.16389
943 2 6.6292 5.95055 1.28309
944 2 1.01064 7.65076 3.11236
945 2 5.84435 7.81241 6.26316
946 2 0.944637 2.2133 2.54496
947 2 0.661271 6.43786 7.19747
948 2 3.88311 7.82412 6.15162
949 2 0.540142 5.15148 0.343057
950 2 1.85291 1.94531 3.99305
951 2 0.743511 8.50895 5.44431
952 2 5.79025 9.23976 7.64902
953 2 2.59141 6.52231 6.04169
954 2 3.25215 7.62436 7.121
955 2 4.61795 8.07858 5.51616
956 2 5.71728 2.20456 9.09344
957 2 1.96563 9.3571 1.06812
958 2 4.08527 2.65712 8.68137
959 2 0.504163 8.9698 1.31488
960 2 7.86945 6.71782 0.271237
961 2 1.35023 7.60954 0.592737
962 2 4.68838 2.77214 5.18938
963 2 3.81625 3.69274 3.82128
964 2 6.95491 5.17014 8.02761
965 2 7.10897 8.87052 1.68384
966 2 7.03419 0.15976 8.70334
967 2 4.23866 9.21064 3.66274
968 2 2.36499 2.95776 4.51817
969 2 7.65104 3.72953 5.35019
970 2 4.97545 0.395163 7.58658
971 2 4.22985 0.136886 2.4602
972 2 3.82428 5.37483 5.98541
973 2 1.94705 7.58678 8.74178
974 2 3.39191 2.20616 4.31635
975 2 2.97355 1.03395 0.443831
976 2 8.57454 0.116303 8.99851
977 2 7.56787 1.61645 7.83406
978 2 5.69092 3.7044 5.70885
979 2 8.16096 6.13836 8.3796
980 2 1.16417 4.8144 2.47746
981 2 9.13688 2.44881 1.77711
982 2 0.605028 0.660239 4.18662
983 2 8.26039 2.24281 3.28554
984 2 4.18887 4.70443 0.952419
985 2 5.87515 7.94662 2.28149
986 2 7.81025 6.58271 1.72591
987 2 5.29271 1.59166 8.10125
988 2 8.41421 4.57395 2.51125
989 2 9.30881 8.3855 9.01418
990 2 0.61612 0.23136 0.293361
991 2 3.22588 7.04697 5.57706
992 2 7.14367 7.83243 6.58889
993 2 7.91845 2.90045 5.7432
994 2 9.02887 6.97516 3.81377
995 2 6.03721 4.01671 6.93079
996 2 1.8795 6.27403 5.52519
997 2 5.59713 8.90474 5.15152
998 2 8.98667 1.03039 1.16211
999 2 0.32197 5.28561 2.43768