#bin. KALJ data file T=0.5

1000 atoms
2 atom types

0 9.4 xlo xhi
0 9.4 ylo yhi
0 9.4 zlo zhi

Masses

1 1.0
2 1.0

Atoms

1 1 1.41653 3.89815 7.92052
2 1 6.8364 4.01396 6.91018
3 1 2.60317 4.30043 2.31233
4 1 8.05146 7.01986 8.61909
5 1 0.988192 0.383544 4.74976
6 1 6.56626 0.730362 7.43092
7 1 9.30726 7.39378 0.245227
8 1 4.28729 1.99532 4.54702
9 1 2.95618 3.09561 6.32105
10 1 9.01362 6.99993 7.95121
11 1 6.57442 1.5083 8.30868
12 1 7.97319 1.27589 1.14047
13 1 0.443188 3.16973 0.728759
14 1 3.57166 4.49858 2.72804
15 1 8.63201 1.93441 8.97992
16 1 0.783768 0.294786 6.4705
17 1 0.0524668 3.66968 9.31957
18 1 8.06224 5.3645 1.93798
19 1 5.06709 4.18233 7.97516
20 1 6.89625 6.27536 7.28667
21 1 8.7214 3.07058 3.36759
22 1 2.84197 2.04007 6.00899
23 1 6.13753 2.56907 8.80708
24 1 2.57828 0.495027 7.26211
25 1 7.80436 2.21325 7.52029
26 1 9.20995 5.63636 3.0058
27 1 8.26973 7.62275 9.40813
28 1 3.39315 4.38097 4.79866
29 1 1.37038 2.66754 5.30003
30 1 1.18903 1.91794 3.2207
31 1 2.69648 4.47736 1.31537
32 1 5.00805 8.96258 6.48685
33 1 1.40347 0.96842 8.77734
34 1 5.08754 7.99863 2.78319
35 1 8.06268 2.12407 2.9554
36 1 2.13058 1.09456 1.57867
37 1 6.12344 1.68592 1.08365
38 1 1.01854 7.58886 3.56098
39 1 1.83806 9.27494 5.50762
40 1 0.359516 2.19549 8.57201
41 1 8.48086 7.10088 7.05707
42 1 3.60463 7.32687 5.1002
43 1 2.03773 1.58299 0.728105
44 1 4.07008 3.61386 4.26442
45 1 4.22386 1.14738 6.65053
46 1 1.5576 5.16398 3.48766
47 1 2.10243 6.38231 6.99253
48 1 5.65073 5.68992 3.92381
49 1 3.64265 4.22343 7.16652
50 1 2.44641 0.905404 2.56204
51 1 2.3155 5.85615 4.05876
52 1 4.44348 1.61552 9.14741
53 1 6.01657 2.65195 4.73086
54 1 8.18526 6.5581 0.102898
55 1 1.41427 3.69194 4.90107
56 1 2.36068 4.46376 7.4442
57 1 1.35364 8.80291 8.77076
58 1 8.14872 8.52265 8.86545
59 1 8.75877 9.20895 3.72112
60 1 1.43776 5.49307 0.885787
61 1 5.3842 4.41881 2.35303
62 1 8.62221 0.337567 1.16148
63 1 5.68364 6.54519 9.25845
64 1 6.40362 6.75418 0.632561
65 1 6.87445 5.42193 5.82329
66 1 3.33292 3.78713 8.02787
67 1 3.17605 8.92439 2.82859
68 1 3.31206 6.96543 8.78054
69 1 4.04697 4.89665 0.845
70 1 0.408295 4.13458 4.41828
71 1 8.65335 4.51455 9.26488
72 1 5.79245 7.86274 7.51709
73 1 2.17429 7.60814 0.292356
74 1 7.81935 7.58746 6.34281
75 1 9.19924 0.555357 7.0505
76 1 6.68983 2.41024 0.450344
77 1 3.0181 3.10525 4.39845
78 1 2.16274 6.60003 2.17455
79 1 5.62142 8.96411 2.6406
80 1 8.16258 6.8273 4.06211
81 1 3.06705 0.423853 3.32529
82 1 7.84452 1.37286 4.93121
83 1 3.20482 8.18621 4.6524
84 1 1.41226 6.76798 8.05294
85 1 1.98854 3.06628 0.263492
86 1 5.86747 5.98071 1.32796
87 1 6.80105 3.41663 4.96488
88 1 0.533331 7.40357 8.04933
89 1 0.62062 3.45459 2.39181
90 1 5.3817 7.38385 4.82066
91 1 0.988549 6.8977 6.19073
92 1 9.10577 8.05162 8.49517
93 1 1.33461 8.8808 2.08268
94 1 0.344472 8.49833 1.86165
95 1 4.08232 5.54228 3.64177
96 1 4.29185 9.17007 9.17519
97 1 3.11141 3.4728 1.34107
98 1 6.06638 8.18478 3.11035
99 1 2.83352 0.13884 5.49736
100 1 4.55418 0.116621 5.72953
101 1 4.43906 4.99887 2.77402
102 1 6.72785 0.125992 8.21139
103 1 0.242405 0.00919636 1.36794
104 1 2.60741 8.96401 8.39067
105 1 7.09315 8.38327 6.5798
106 1 5.82711 3.48701 5.38819
107 1 7.80024 7.9296 2.58827
108 1 7.49738 0.545499 5.76966
109 1 7.26008 3.78264 2.33099
110 1 8.76399 6.08999 6.21232
111 1 3.15295 8.26187 7.75475
112 1 5.90964 1.93176 3.08843
113 1 1.43174 5.22454 9.23189
114 1 3.33076 5.49987 4.51618
115 1 4.89618 1.44398 5.16987
116 1 5.24458 6.85953 7.49544
117 1 7.13222 5.20449 8.68406
118 1 8.45465 1.37894 7.2342
119 1 0.601402 7.4165 1.95404
120 1 5.31483 7.93994 3.89161
121 1 5.41689 7.91769 5.80684
122 1 7.70707 0.0285291 8.47372
123 1 1.81473 1.79117 4.10439
124 1 3.11462 6.85428 2.19153
125 1 7.05658 3.96786 3.32075
126 1 0.79431 5.42825 8.38283
127 1 2.25093 8.4211 5.07964
128 1 4.64839 8.8774 0.838575
129 1 3.64751 4.27206 1.71641
130 1 3.77252 5.15312 9.06893
131 1 0.199727 1.24961 4.91689
132 1 6.70441 5.93724 3.96863
133 1 7.24372 5.94308 0.0727764
134 1 3.84186 1.6765 5.80521
135 1 5.98241 1.64791 5.7254
136 1 1.11512 0.193854 0.02365
137 1 3.3633 6.0125 8.28249
138 1 6.22657 5.54086 6.82156
139 1 0.810673 7.92972 4.68484
140 1 1.06376 3.96278 6.03009
141 1 3.11051 9.22661 6.57239
142 1 0.73907 2.95169 7.89881
143 1 4.11293 8.53622 7.01999
144 1 0.435183 4.67741 6.55773
145 1 5.90577 6.0726 7.70574
146 1 8.0686 8.78026 3.09664
147 1 1.66336 7.73889 6.36475
148 1 5.4339 3.00358 7.24031
149 1 8.54288 7.19623 2.29785
150 1 5.18631 8.73445 7.58394
151 1 1.75069 7.41776 5.39355
152 1 4.49649 7.44192 1.02506
153 1 9.10445 6.31902 0.537536
154 1 6.2522 4.44225 8.20898
155 1 6.92954 7.51938 3.18178
156 1 5.11423 0.106552 3.41106
157 1 7.67941 1.47564 6.54959
158 1 3.27914 1.45996 6.76204
159 1 -0.0413798 8.22091 3.77322
160 1 6.67164 9.27176 6.25356
161 1 0.0134286 4.42715 1.87897
162 1 8.79291 0.762882 0.182976
163 1 8.58346 3.21545 7.4859
164 1 6.25258 7.55445 3.9405
165 1 7.76342 7.534 1.53711
166 1 9.3202 5.30281 5.81456
167 1 3.51012 7.3568 1.28016
168 1 6.27861 4.70792 9.21333
169 1 4.54958 5.60642 5.72198
170 1 3.25739 0.0222791 9.16202
171 1 9.0472 2.59494 2.49414
172 1 4.43958 1.99852 1.98316
173 1 6.91327 6.89133 1.52518
174 1 2.07568 3.7429 4.00029
175 1 3.93645 8.28826 1.32449
176 1 0.48981 1.40957 5.91999
177 1 1.24047 8.65082 3.93002
178 1 8.08332 8.33692 7.04427
179 1 5.89438 6.23217 2.46007
180 1 2.46017 8.81192 7.161
181 1 8.46744 5.97179 1.27198
182 1 5.33169 2.40657 1.46102
183 1 4.20049 7.97159 0.295814
184 1 2.77412 1.51189 7.66649
185 1 0.566633 4.60578 7.81706
186 1 9.27312 7.32782 5.32208
187 1 3.51014 2.5883 0.74741
188 1 2.47299 5.58069 0.97295
189 1 0.918691 2.33114 4.24488
190 1 7.96429 4.60738 4.27986
191 1 5.68877 4.08152 7.1918
192 1 9.1328 6.32417 7.2557
193 1 3.18411 6.66192 5.86036
194 1 4.33505 3.33101 8.05952
195 1 8.25028 9.26988 2.11205
196 1 2.17272 0.835601 3.67927
197 1 1.30634 4.53237 4.24409
198 1 2.36827 3.62789 8.32691
199 1 1.47724 5.52182 4.63514
200 1 4.01952 0.810839 5.01945
201 1 7.96271 5.95627 8.58709
202 1 8.56917 2.72969 4.33993
203 1 1.50804 5.66713 6.5892
204 1 5.10739 4.21007 6.23346
205 1 8.95557 5.59663 8.1
206 1 0.310448 2.63545 3.3589
207 1 7.44143 2.4231 6.45297
208 1 7.79692 5.90203 5.70767
209 1 5.3252 1.32369 0.248443
210 1 1.79281 4.87848 8.21681
211 1 3.00536 2.49851 2.76882
212 1 5.2337 7.62124 1.78687
213 1 3.13241 1.24241 5.25728
214 1 7.27073 3.44668 0.294176
215 1 0.679106 6.26242 4.48105
216 1 4.65193 3.80614 7.10477
217 1 6.4849 9.25026 9.14673
218 1 4.23144 3.89064 0.88116
219 1 5.52367 5.00431 0.561136
220 1 9.1683 3.33216 1.526
221 1 0.454257 9.06072 7.27155
222 1 5.06662 3.49937 1.7292
223 1 1.59748 7.89221 2.17368
224 1 6.08937 5.26576 2.06378
225 1 2.67929 4.65655 5.60397
226 1 9.1494 7.66981 1.41587
227 1 4.42326 9.24729 2.5896
228 1 5.59336 3.98016 0.182303
229 1 1.52928 0.874321 5.94414
230 1 3.61645 0.415257 2.31746
231 1 0.448256 5.92511 6.40032
232 1 5.06092 6.40036 8.44919
233 1 9.25372 7.91201 7.33977
234 1 1.0303 1.16933 0.35587
235 1 6.83023 6.20219 5.04209
236 1 3.94442 0.737551 8.80638
237 1 7.50664 1.83982 8.69982
238 1 5.56394 7.43252 8.41892
239 1 1.96904 6.38267 5.91887
240 1 5.77071 0.25684 6.73429
241 1 4.96906 5.50049 2.05345
242 1 7.89975 3.15021 5.14951
243 1 2.9096 8.2207 1.15563
244 1 7.34044 1.49092 0.279176
245 1 7.35401 2.52392 2.20377
246 1 0.545902 5.92765 1.09834
247 1 7.77787 3.21349 3.13573
248 1 7.63359 7.50755 4.75117
249 1 9.11299 5.26807 6.99889
250 1 3.642 8.08006 3.68054
251 1 9.04972 2.95184 5.25985
252 1 4.41833 4.03023 2.39749
253 1 1.01318 5.03963 5.80314
254 1 8.35554 1.71139 3.96068
255 1 6.89007 8.10458 7.63349
256 1 9.36673 4.86219 8.64582
257 1 2.74305 7.894 8.69768
258 1 3.68912 1.19578 4.08222
259 1 3.91406 5.67631 7.48469
260 1 4.96091 1.83276 6.16999
261 1 6.7435 3.83823 1.38623
262 1 3.92549 2.05903 2.97469
263 1 0.157837 3.05565 4.26541
264 1 7.28508 4.98696 3.50335
265 1 6.17014 5.36339 4.81474
266 1 8.39807 6.90909 5.68777
267 1 3.00844 1.66975 1.29447
268 1 4.90969 1.79703 7.16131
269 1 2.51853 5.21897 8.95157
270 1 6.53052 9.0739 7.30662
271 1 9.15391 8.3919 0.0648368
272 1 6.57516 4.51149 5.26822
273 1 7.82374 3.46635 4.20942
274 1 6.30311 6.99198 7.75407
275 1 4.06192 6.74456 8.00708
276 1 8.56376 6.20414 2.53542
277 1 5.7772 2.84362 3.65069
278 1 1.99015 3.52787 5.85285
279 1 1.54045 0.321493 2.56801
280 1 4.33158 2.84695 1.3192
281 1 4.56419 7.45687 5.49738
282 1 7.2673 0.30352 3.62346
283 1 8.74824 8.70727 4.67107
284 1 6.51268 7.71862 6.00933
285 1 5.26395 4.66796 3.90468
286 1 9.32853 0.190479 7.98797
287 1 4.22398 8.70705 8.03479
288 1 2.08573 0.0670497 1.69168
289 1 6.53476 2.67423 5.66818
290 1 2.01014 0.0241889 6.50109
291 1 3.23895 8.59882 5.75728
292 1 1.83209 4.66763 6.30997
293 1 2.43172 8.4763 3.98563
294 1 8.84971 4.0462 8.35028
295 1 7.16594 5.23278 6.86811
296 1 5.51819 6.90645 0.876347
297 1 2.58897 3.89919 0.478739
298 1 3.97823 6.21598 5.17357
299 1 4.39031 6.94276 4.48527
300 1 6.53176 4.62418 2.662
301 1 8.90908 8.9422 6.96038
302 1 9.21092 0.921037 3.65832
303 1 0.564595 7.87397 8.99461
304 1 5.91612 2.66173 2.32807
305 1 3.96745 1.10203 1.31739
306 1 0.332972 9.17015 3.41453
307 1 5.66478 8.70669 1.54439
308 1 5.24942 0.779323 5.85775
309 1 1.37427 4.84452 7.25328
310 1 2.5452 2.87087 5.35983
311 1 8.02053 8.2308 0.863965
312 1 2.03106 5.71035 1.89761
313 1 6.60233 8.96984 2.28285
314 1 5.39931 4.80972 8.74803
315 1 3.08496 5.1484 7.00016
316 1 1.52524 3.16902 2.91224
317 1 0.021469 1.61323 6.91358
318 1 8.73601 5.60207 9.28026
319 1 2.67551 0.840487 6.20986
320 1 6.1258 8.74324 4.01826
321 1 2.37599 4.81313 4.35719
322 1 1.59501 7.71072 8.76081
323 1 6.33223 0.0529924 3.20035
324 1 5.70005 4.18638 1.27024
325 1 6.4643 5.06672 1.0644
326 1 2.25865 8.47885 6.13185
327 1 4.72905 8.55225 1.90222
328 1 3.44473 1.68229 8.44532
329 1 9.20802 1.95122 1.69499
330 1 3.61302 8.82197 0.513703
331 1 3.91504 2.08721 7.57373
332 1 2.46521 2.27808 8.26376
333 1 5.5652 5.18542 3.00057
334 1 3.57658 5.92109 6.37207
335 1 6.39248 2.71085 1.41253
336 1 0.115351 4.32287 5.53122
337 1 3.83934 7.73898 8.22426
338 1 8.93073 2.21474 7.75351
339 1 0.501403 5.09181 4.79429
340 1 8.50006 8.3215 1.89624
341 1 8.38457 0.481333 7.81014
342 1 4.7958 5.59449 0.987843
343 1 2.60608 3.52267 3.01096
344 1 3.23585 8.99779 4.02629
345 1 5.14768 6.38405 5.13984
346 1 7.94862 2.49157 0.225332
347 1 3.565 3.45223 0.255373
348 1 8.07674 4.90433 8.32105
349 1 6.34854 3.43751 7.7752
350 1 4.6425 5.98248 4.29713
351 1 8.39968 4.16291 1.76567
352 1 3.0684 0.505307 8.31266
353 1 0.576409 1.79207 2.35522
354 1 0.932535 0.059973 8.14883
355 1 8.45073 7.11877 0.930042
356 1 4.64039 4.83418 7.28392
357 1 8.41355 9.13956 0.318028
358 1 7.04627 6.94471 4.15647
359 1 4.10624 4.26753 8.61681
360 1 2.45396 3.84259 4.95429
361 1 3.51197 3.21934 3.37202
362 1 5.2281 3.41795 2.74935
363 1 7.27732 4.44526 0.727594
364 1 1.86522 2.92837 7.64301
365 1 1.0538 2.6291 9.36908
366 1 6.51127 7.43176 5.00417
367 1 0.700001 4.79484 0.822491
368 1 2.04933 9.3431 4.31785
369 1 6.63544 5.34641 7.77159
370 1 5.46387 9.14346 0.172743
371 1 1.7374 4.60497 5.19676
372 1 3.42569 4.88912 8.07559
373 1 7.05542 7.9139 0.935051
374 1 7.3171 5.30999 4.77396
375 1 4.34105 6.62102 5.98716
376 1 2.15913 0.283209 9.17897
377 1 2.03012 6.08883 0.168288
378 1 5.78741 0.833503 1.51155
379 1 8.11381 5.28735 6.50867
380 1 6.29008 4.88122 3.69925
381 1 2.72793 0.799993 0.527567
382 1 7.81083 6.89552 3.06973
383 1 1.25532 8.34727 5.56217
384 1 3.99296 8.32699 2.69597
385 1 4.6717 8.05185 8.73026
386 1 0.861732 1.26227 3.98526
387 1 8.79392 1.91604 5.10788
388 1 9.06484 1.26169 8.26586
389 1 5.92189 3.73116 4.30479
390 1 3.28755 6.15301 3.67207
391 1 4.8591 0.427295 0.648471
392 1 7.41786 1.31042 3.86607
393 1 0.477817 6.32592 8.08658
394 1 8.19509 3.65684 0.86647
395 1 8.98103 0.393556 2.81844
396 1 3.48734 2.19397 3.92946
397 1 4.50561 5.16745 8.22452
398 1 6.5571 5.69015 3.00828
399 1 8.13643 3.11243 2.12712
400 1 0.16415 7.4269 2.92167
401 1 2.1329 1.61797 6.67079
402 1 8.95796 8.6872 1.05627
403 1 1.75225 4.6716 1.49319
404 1 5.90607 6.91897 5.6145
405 1 4.02076 2.37927 6.55502
406 1 6.09666 0.619629 0.457945
407 1 6.38032 1.53295 9.33147
408 1 0.940822 3.8401 1.36844
409 1 3.55016 3.35688 5.27065
410 1 1.27159 1.57427 4.97224
411 1 6.71831 0.988162 3.06441
412 1 8.18389 0.671545 3.97933
413 1 1.90374 8.44975 1.27797
414 1 7.49495 1.22402 7.71065
415 1 0.195302 1.01348 0.920647
416 1 7.18729 1.92553 1.37519
417 1 8.65899 5.76254 5.22835
418 1 2.9232 0.504048 4.45605
419 1 7.43334 1.27897 2.16985
420 1 0.43891 2.23674 5.16493
421 1 5.98393 6.54509 4.54576
422 1 7.18669 1.7055 5.66673
423 1 0.585391 2.65921 1.70493
424 1 5.18743 8.99879 4.32237
425 1 1.90723 2.78363 4.45118
426 1 5.7013 1.21199 7.82281
427 1 8.35483 4.7301 7.36708
428 1 3.12435 8.16743 6.65521
429 1 4.25697 7.49486 2.06385
430 1 4.07513 0.13619 4.08119
431 1 8.79904 1.42707 6.06361
432 1 4.15318 0.10124 6.89012
433 1 3.74916 7.48667 7.16306
434 1 7.47757 8.62028 1.64038
435 1 2.48859 1.92155 2.1269
436 1 8.73764 0.0291599 8.74768
437 1 7.29891 8.09435 9.40186
438 1 8.48774 8.84111 7.92229
439 1 3.41417 7.33008 3.06306
440 1 7.10578 4.84645 1.78822
441 1 5.16955 1.96456 4.03224
442 1 4.87022 2.97227 6.38719
443 1 4.14867 6.48694 1.33675
444 1 9.27177 7.05914 6.44387
445 1 4.94748 2.38991 8.07692
446 1 8.8295 4.43298 6.24642
447 1 2.30699 4.57928 3.24271
448 1 5.74368 7.22393 6.57161
449 1 1.36335 8.29468 0.213713
450 1 3.03816 4.09961 8.9409
451 1 7.08029 8.54339 8.4722
452 1 4.72352 7.54155 6.59151
453 1 4.4157 7.98465 4.59541
454 1 5.96521 8.38022 4.99011
455 1 7.7725 6.39584 6.70198
456 1 7.93434 6.46602 4.93819
457 1 4.98002 0.180398 1.73917
458 1 2.62009 6.65438 3.08996
459 1 9.2898 5.61421 1.92147
460 1 5.86539 2.43608 6.52075
461 1 8.97351 3.68048 2.58261
462 1 2.21889 9.21253 3.2459
463 1 3.60057 1.58152 0.34731
464 1 0.15064 2.74592 7.02696
465 1 2.05022 8.22961 7.90841
466 1 6.57718 0.607935 2.09125
467 1 4.97615 1.34116 1.28583
468 1 6.86791 1.26341 4.76336
469 1 8.83562 3.80306 4.25934
470 1 1.05881 2.89688 6.28647
471 1 4.99608 0.77495 7.32666
472 1 5.23282 5.24138 6.54783
473 1 7.51385 3.31303 7.60905
474 1 2.47436 7.6067 2.65026
475 1 3.39279 2.76864 8.14511
476 1 0.269653 0.618966 8.87888
477 1 1.3874 6.92971 0.25828
478 1 9.17148 0.321189 4.53143
479 1 1.3903 2.58983 1.03707
480 1 7.51843 8.97579 7.60938
481 1 3.26918 7.90334 2.14251
482 1 4.53425 7.54722 3.4808
483 1 5.04433 5.62075 9.18213
484 1 7.26731 2.79415 8.88306
485 1 6.24911 5.75229 0.195896
486 1 0.268695 3.78228 3.52096
487 1 0.432065 5.47122 3.87379
488 1 7.69022 5.92072 3.90054
489 1 1.0806 9.02714 1.00133
490 1 7.59191 5.97271 2.84815
491 1 8.59976 7.78703 3.12643
492 1 1.23165 7.57719 1.08127
493 1 7.253 6.97539 9.40392
494 1 6.69643 2.9715 2.89798
495 1 3.38516 2.56941 1.77876
496 1 4.38295 2.73495 3.67357
497 1 0.437323 8.21834 0.781717
498 1 6.92196 2.5818 7.89305
499 1 4.79858 3.00761 4.60629
500 1 7.50519 5.46138 0.996513
501 1 6.54667 6.41587 6.21527
502 1 1.48463 2.37705 2.07707
503 1 3.43695 7.15763 4.06405
504 1 6.85123 6.68166 2.55159
505 1 7.82084 3.74466 8.47025
506 1 2.41441 5.58302 5.10629
507 1 7.61996 6.93828 7.69192
508 1 4.156 6.63181 3.44683
509 1 1.79129 1.95599 9.14901
510 1 5.05466 1.31258 3.17359
511 1 5.37699 2.5994 5.51155
512 1 7.64017 4.64166 2.57987
513 1 1.78899 8.27615 3.18212
514 1 0.813152 5.66786 2.75818
515 1 7.71171 7.77716 3.80553
516 1 2.55835 7.5361 3.65427
517 1 0.127051 0.840024 2.02212
518 1 1.20338 2.2139 7.15595
519 1 3.57067 4.22378 5.88457
520 1 2.97758 2.41351 7.10613
521 1 9.37871 2.3782 6.04754
522 1 6.10823 8.69321 8.21072
523 1 1.08618 6.27574 1.97805
524 1 0.696849 1.19715 7.94105
525 1 9.12655 3.05826 8.41363
526 1 5.46302 1.72357 8.63836
527 1 5.87114 1.02606 3.72707
528 1 5.86305 5.68674 5.79685
529 1 7.38039 4.4828 6.15273
530 1 7.32191 8.15937 5.53987
531 1 7.28805 9.00111 0.597019
532 1 3.07178 6.09102 9.32024
533 1 7.01113 8.6416 3.37203
534 1 7.762 8.90902 4.10262
535 1 7.74035 9.11379 6.33073
536 1 8.96544 6.70917 3.37311
537 1 1.15221 3.6524 9.2965
538 1 4.93487 8.65877 5.23982
539 1 3.65417 0.627397 6.05232
540 1 1.7128 2.94712 8.67487
541 1 6.43702 1.63747 2.14635
542 1 9.21275 2.62628 0.0691001
543 1 3.4441 9.25847 7.60927
544 1 8.65282 7.73981 4.28564
545 1 8.25937 4.86458 5.50009
546 1 1.05856 6.03105 5.55226
547 1 0.880968 7.61468 7.07531
548 1 8.83985 8.00153 6.33394
549 1 8.58842 2.35537 6.70109
550 1 8.46384 7.94887 5.28702
551 1 6.33736 3.57764 8.81773
552 1 1.75076 0.607301 0.765489
553 1 1.40343 0.270222 7.30735
554 1 0.496086 4.72028 2.83717
555 1 6.59977 2.07552 4.00674
556 1 2.06251 2.73642 6.60693
557 1 0.871964 5.19905 1.84344
558 1 8.32092 4.07311 3.37153
559 1 2.61459 6.70159 0.80312
560 1 2.24394 1.96945 5.07686
561 1 8.90206 4.78532 4.67356
562 1 1.36215 1.90757 6.10201
563 1 4.93306 5.92388 3.15599
564 1 6.76158 1.03049 6.37043
565 1 7.27725 3.38535 6.05135
566 1 2.33813 8.56194 2.31939
567 1 0.609289 5.56672 7.33731
568 1 4.71729 4.58365 9.41311
569 1 7.43354 3.07869 1.28616
570 1 7.01202 5.87744 1.80942
571 1 1.97805 7.35031 7.42598
572 1 3.00846 0.639226 1.57401
573 1 8.58474 3.94132 5.24882
574 1 5.41563 1.66919 2.20951
575 1 7.60998 2.45378 3.81995
576 1 4.4732 4.62554 5.49495
577 1 3.61208 8.542 8.86518
578 1 3.80153 9.06166 5.02686
579 1 0.579042 8.39732 6.35063
580 1 1.74503 7.71459 4.29281
581 1 0.662298 9.22107 5.47753
582 1 4.49597 2.07191 0.704369
583 1 8.7188 1.90389 0.649002
584 1 1.5564 3.91919 2.29374
585 1 2.36157 8.65297 0.0138155
586 1 6.04191 3.6896 2.21237
587 1 5.28674 8.08308 0.841414
588 1 9.12495 5.26787 0.887117
589 1 3.07706 4.01115 3.88211
590 1 6.10027 5.63856 8.6215
591 1 4.36063 7.07018 8.92464
592 1 7.19029 4.32396 9.08078
593 1 9.34026 1.85501 4.15453
594 1 4.9524 2.27804 3.00685
595 1 5.61259 2.34577 0.344752
596 1 0.439103 5.62712 0.0827139
597 1 7.06383 1.96466 3.12101
598 1 8.44065 0.559069 6.32329
599 1 2.46051 2.65528 3.56392
600 1 3.12591 7.9313 0.247055
601 1 8.14817 0.967888 8.78338
602 1 4.06317 5.00845 6.4378
603 1 1.07733 3.41942 3.94444
604 1 4.47949 0.269127 8.01359
605 1 1.31222 2.08144 8.18183
606 1 0.855321 7.01437 5.16579
607 1 1.77763 3.72213 6.88403
608 1 9.00019 6.51411 8.82874
609 1 2.47728 9.22101 0.797065
610 1 3.63749 0.949529 7.62416
611 1 4.24829 2.94092 2.50986
612 1 0.170609 1.53924 9.36789
613 1 6.80961 7.9432 2.1887
614 1 8.09609 2.19852 5.73534
615 1 1.1204 0.572175 1.60755
616 1 0.493461 3.80097 8.37261
617 1 3.41402 3.42447 2.38496
618 1 7.3099 6.93159 5.67718
619 1 4.81636 2.53866 9.08942
620 1 1.61879 4.22773 0.619149
621 1 5.42142 0.543717 4.76252
622 1 4.24087 4.35874 3.53473
623 1 1.26735 7.07611 2.70576
624 1 5.72311 9.1395 5.73696
625 1 4.91685 0.648776 9.02081
626 1 7.60253 4.17668 5.10985
627 1 9.01893 6.61626 4.64687
628 1 1.66744 4.93571 2.46605
629 1 7.06664 7.50652 8.52342
630 1 0.594375 0.000563323 2.47295
631 1 0.21931 6.48273 2.53506
632 1 5.96105 2.28443 7.75096
633 1 1.7928 6.8101 3.79135
634 1 4.79196 0.949387 4.10485
635 1 4.53367 8.53287 3.54807
636 1 5.04653 6.92662 2.75461
637 1 4.71621 3.48898 5.55353
638 1 8.01903 7.8677 7.95952
639 1 6.90967 4.26709 4.30354
640 1 7.92836 3.95119 6.85243
641 1 0.303042 8.85545 8.67091
642 1 5.64344 0.616375 2.5449
643 1 5.11902 9.10722 8.63623
644 1 3.12855 1.43971 3.21798
645 1 4.6917 4.62051 1.55308
646 1 7.02213 6.38672 8.42293
647 1 6.95246 8.35758 4.49423
648 1 7.20675 2.32234 4.79437
649 1 8.73591 4.83783 2.58487
650 1 5.89481 0.728083 8.81777
651 1 7.2631 4.32436 7.83779
652 1 5.58788 4.56688 5.44911
653 1 6.30496 7.51615 9.25832
654 1 8.24538 4.72961 0.854451
655 1 2.94777 7.27903 7.88898
656 1 2.3288 3.04563 2.07527
657 1 3.76462 7.49151 6.16831
658 1 0.769587 8.35942 7.94031
659 1 0.726024 4.53118 9.20757
660 1 2.7655 4.10084 6.55597
661 1 2.46971 2.57964 1.14493
662 1 2.78428 7.68452 5.77799
663 1 1.33098 6.19875 8.89982
664 1 0.0564181 9.36459 0.290706
665 1 3.63667 5.79099 0.664643
666 1 9.14075 4.76425 3.60646
667 1 2.20274 6.84824 8.93619
668 1 4.99644 5.83936 7.37696
669 1 5.81356 3.48379 6.39848
670 1 6.83891 9.12923 5.23474
671 1 0.0124126 8.36394 5.44911
672 1 6.15588 6.63774 3.38422
673 1 4.32278 8.44093 6.01495
674 1 3.09227 4.85216 0.406651
675 1 0.238859 7.27646 4.17648
676 1 2.97992 5.22481 2.01815
677 1 5.63107 4.99616 7.5126
678 1 8.39753 2.74102 1.1289
679 1 3.72152 3.1845 7.24342
680 1 2.37073 6.43098 8.04646
681 1 6.04922 8.42544 6.65966
682 1 5.0969 3.22594 0.664723
683 1 7.0364 0.832434 8.88107
684 1 6.21603 8.59613 0.65792
685 1 9.16204 4.14192 7.19961
686 1 2.7904 7.18954 6.72766
687 1 5.14722 6.29098 6.43728
688 1 5.6337 8.30296 9.05668
689 1 7.49863 0.438076 6.99894
690 1 7.5914 6.54906 0.890422
691 1 2.34888 7.44295 1.54141
692 1 0.0327629 3.56564 6.36356
693 1 0.650658 6.58456 3.49748
694 1 0.550808 6.87761 0.846577
695 1 1.46282 8.57977 7.01985
696 1 8.06588 5.83186 7.49709
697 1 4.30104 6.56731 6.99422
698 1 8.41276 3.20321 6.12125
699 1 0.881697 6.51561 7.12127
700 1 6.86094 1.00599 1.054
701 1 7.91089 9.00023 5.26817
702 1 9.33685 0.491749 5.79126
703 1 3.86817 0.470963 0.438718
704 1 5.10145 5.24624 4.85893
705 1 5.75541 1.36402 6.7348
706 1 2.53609 5.5497 6.17999
707 1 3.95667 3.4138 6.30397
708 1 4.02675 0.0326789 1.45407
709 1 3.71333 2.48561 9.10942
710 1 3.03102 6.4501 4.76806
711 1 4.53954 1.46309 8.10108
712 1 9.18783 6.62416 1.59245
713 1 3.58094 5.18326 5.42599
714 1 7.46057 0.318967 4.70683
715 1 5.2215 6.71863 3.80142
716 1 1.08042 1.19659 6.79206
717 1 1.67606 6.50376 4.75156
718 1 7.88725 5.12745 -0.0278624
719 1 2.78123 1.514 4.31164
720 1 6.87254 7.21535 6.8145
721 1 3.73304 6.92389 0.321207
722 1 4.6831 7.81739 7.62508
723 1 2.77698 2.14534 0.132904
724 1 0.455716 2.06091 0.847287
725 1 8.40701 0.602388 5.28089
726 1 4.53102 3.49803 9.19842
727 1 6.70399 3.0052 6.87552
728 1 0.569404 3.32731 5.33989
729 1 2.20951 1.73825 3.15569
730 1 5.69348 0.162634 7.80986
731 1 2.75063 3.01438 8.99172
732 1 4.6899 6.51103 0.428933
733 1 2.60457 7.47244 4.75248
734 1 3.05283 9.04582 1.75697
735 1 1.62356 6.1325 3.03562
736 1 3.17536 6.08449 1.51485
737 1 3.53837 5.62851 2.71504
738 1 1.55197 5.81462 7.68564
739 1 1.75056 1.24511 7.60971
740 1 3.96976 5.38229 1.78139
741 1 8.75343 9.0068 5.86901
742 1 4.15359 0.707752 3.23499
743 1 6.19404 7.7005 1.46895
744 1 4.93713 3.63001 3.74963
745 1 1.92366 3.56129 1.26193
746 1 6.78524 3.10991 3.92211
747 1 0.599302 0.917479 3.0092
748 1 5.18243 7.38336 0.0212666
749 1 7.39243 0.270763 2.55055
750 1 7.52745 0.354358 1.3854
751 1 2.59585 5.48473 7.84285
752 1 8.42066 3.34825 9.26316
753 1 6.71058 1.787 7.18515
754 1 8.18011 2.0252 1.88606
755 1 6.06535 7.3072 2.56598
756 1 2.03275 4.2956 9.01795
757 1 8.23332 5.22954 3.32456
758 1 5.88618 3.98623 3.24701
759 1 8.13776 2.66874 8.36201
760 1 4.19178 4.84809 4.41792
761 1 8.46761 0.955684 2.01647
762 1 6.24106 3.25919 0.594882
763 1 9.29388 4.09293 0.889915
764 1 3.19907 6.43811 7.31519
765 1 1.6022 6.51639 1.15874
766 1 0.790324 3.76926 7.09424
767 1 4.38573 2.45088 5.44788
768 1 6.113 4.67995 6.31288
769 1 4.03068 6.06882 9.07841
770 1 9.05496 8.62748 2.70613
771 1 7.78831 0.554658 0.336011
772 1 6.43144 0.3153 4.41781
773 1 4.19465 6.36432 2.3853
774 1 2.42746 1.28962 8.66314
775 1 5.05972 6.49729 1.8074
776 1 1.29653 4.16391 3.2394
777 1 4.96426 4.09822 4.73131
778 1 1.27783 0.272677 3.65111
779 1 4.48938 0.923092 2.29819
780 1 6.25196 0.629601 5.45445
781 1 2.43682 5.57524 2.942
782 1 1.95573 0.282981 8.10151
783 1 3.34648 2.19353 4.97853
784 1 0.427855 8.8682 4.46999
785 1 7.86144 6.54101 1.90441
786 1 3.45681 1.47558 2.17509
787 1 8.6657 5.75202 4.14981
788 1 9.04182 1.48698 2.80189
789 1 8.09155 1.15679 3.0525
790 1 1.48787 1.34184 2.42474
791 1 6.57594 9.3832 1.29289
792 1 2.61607 3.42207 7.30302
793 1 5.4605 3.28153 8.38444
794 1 0.46137 6.6687 9.17858
795 1 3.14262 5.05209 3.56939
796 1 0.111006 6.30883 5.48264
797 1 1.15439 1.57507 1.4597
798 1 2.07111 0.821965 4.98183
799 1 5.85638 1.44281 4.65929
800 1 0.706926 8.31099 2.85955
801 2 0.44719 2.0431 7.61368
802 2 8.08108 2.315 4.80123
803 2 3.17328 0.901716 9.19074
804 2 3.84754 9.0923 6.1249
805 2 5.64989 7.32914 3.33259
806 2 3.51191 6.46267 2.88298
807 2 -0.0293917 5.73779 4.7259
808 2 0.777293 2.61312 2.64403
809 2 3.09359 5.88048 5.56549
810 2 9.22003 9.21232 5.18485
811 2 3.84448 6.24037 4.36713
812 2 9.38243 8.09438 4.69554
813 2 7.0722 6.43837 3.36231
814 2 8.84402 7.93287 0.677535
815 2 2.22236 1.37269 5.69597
816 2 1.31145 7.68514 7.91681
817 2 7.44222 8.76296 2.53467
818 2 4.86568 5.34189 3.76919
819 2 0.595537 2.11784 6.50943
820 2 2.7839 6.30506 6.5265
821 2 1.52733 0.770198 4.27511
822 2 1.07127 8.22383 1.5897
823 2 3.90825 4.26063 0.0981984
824 2 8.82825 1.26622 1.30188
825 2 8.21149 1.42747 0.207791
826 2 4.35932 5.47982 0.257932
827 2 1.95946 1.14396 9.39266
828 2 0.229668 7.11716 7.26692
829 2 1.58973 7.01036 6.76597
830 2 6.25763 7.8342 8.33896
831 2 5.84397 3.36355 1.3852
832 2 7.45595 5.20226 7.82817
833 2 4.21513 4.1633 7.7391
834 2 5.12401 3.97548 8.84482
835 2 7.68172 7.41216 0.627348
836 2 2.02663 2.08275 7.43382
837 2 0.0818206 3.45093 7.61935
838 2 8.08977 4.05043 5.91861
839 2 7.06509 3.37543 8.30616
840 2 6.48276 4.25508 0.545329
841 2 8.41903 7.14901 4.90687
842 2 8.74857 4.97174 1.64183
843 2 5.12306 0.770033 8.21686
844 2 3.43992 4.23153 0.873131
845 2 1.18964 3.02307 7.13485
846 2 4.81634 7.24124 8.1831
847 2 7.94256 4.11998 0.0218305
848 2 9.35252 7.27535 8.8036
849 2 0.0643781 9.15779 6.30453
850 2 8.68143 1.16715 4.60764
851 2 2.81565 3.031 0.473072
852 2 8.14495 5.82792 0.536387
853 2 4.37648 1.65702 3.73174
854 2 2.45242 9.42995 2.39968
855 2 6.56061 6.5239 9.19581
856 2 4.98682 0.390491 6.51498
857 2 5.48379 5.09821 1.39689
858 2 2.07391 5.32769 7.14279
859 2 8.18431 9.35343 7.18762
860 2 3.5758 6.78803 6.64303
861 2 4.24708 5.48622 4.95459
862 2 0.513375 0.487822 7.40818
863 2 4.94454 8.49082 0.0981978
864 2 1.10939 4.50455 8.47261
865 2 8.0303 1.23046 5.75312
866 2 4.48142 1.22245 0.553506
867 2 0.75817 0.69328 5.50194
868 2 8.87558 3.2581 0.5849
869 2 3.73419 7.60393 9.06207
870 2 4.26942 2.92747 0.415637
871 2 5.14232 7.0162 5.99255
872 2 3.84477 1.99731 1.36247
873 2 7.3109 9.01298 9.1583
874 2 0.489703 0.450861 4.04232
875 2 0.54658 7.7345 5.78807
876 2 1.2953 8.9964 6.15621
877 2 8.92602 2.15694 3.39923
878 2 4.14553 3.5356 1.79667
879 2 0.655188 3.97954 0.510905
880 2 2.04886 2.5695 2.71346
881 2 2.65932 8.32119 3.16711
882 2 1.20872 8.9743 3.11972
883 2 4.57491 0.0634653 4.79277
884 2 -0.0302103 6.23539 3.93689
885 2 4.46015 5.7777 6.60807
886 2 4.42523 1.00176 5.8175
887 2 1.48302 8.85035 7.89056
888 2 6.54018 8.40987 9.09759
889 2 0.104693 5.76656 8.75701
890 2 8.08491 9.05438 1.13506
891 2 5.02677 4.21211 3.08973
892 2 1.24916 3.35956 0.700723
893 2 5.36149 8.18891 8.21537
894 2 3.84251 8.83926 2.05789
895 2 2.91489 3.74095 5.71539
896 2 6.75423 5.99018 0.888923
897 2 5.72212 4.49782 4.58605
898 2 0.630397 8.77431 0.0158805
899 2 1.36451 6.06375 3.99882
900 2 4.26195 4.19421 6.46427
901 2 7.89038 3.09869 6.84842
902 2 6.65441 1.03987 4.01081
903 2 8.07733 0.271607 3.11315
904 2 1.87468 0.800952 6.83105
905 2 6.43756 4.72441 7.18991
906 2 3.28733 0.0993507 1.01352
907 2 2.62298 4.609 8.25885
908 2 4.20083 2.21342 8.4348
909 2 7.38958 2.63155 5.57561
910 2 4.99023 4.31715 0.732712
911 2 5.42263 8.64187 3.45281
912 2 1.83215 7.34597 3.18554
913 2 7.57711 3.92503 1.53773
914 2 5.4382 6.00233 0.568935
915 2 1.10435 7.11502 4.33513
916 2 2.64711 6.6579 3.93983
917 2 3.9818 8.67002 4.2705
918 2 6.54495 2.00307 5.1169
919 2 6.52767 8.53532 1.46489
920 2 2.23072 4.92293 0.32688
921 2 9.09709 4.82162 7.73791
922 2 0.927396 1.74845 9.01032
923 2 9.37726 4.76935 0.172553
924 2 1.28566 1.95398 0.474007
925 2 2.93059 8.965 4.90669
926 2 4.10951 3.9933 5.07075
927 2 1.99099 2.37849 5.85324
928 2 0.531678 3.09689 8.77791
929 2 5.66544 3.1673 9.30875
930 2 2.33261 7.9266 6.9151
931 2 -0.0314723 8.68599 7.80532
932 2 1.01103 6.12808 0.398855
933 2 5.01552 2.68132 2.24734
934 2 5.99027 7.60555 0.618718
935 2 5.90545 6.56957 8.45757
936 2 1.28974 3.20487 1.86605
937 2 1.93167 5.75913 8.4488
938 2 8.06614 8.42057 5.90453
939 2 8.3054 6.49009 8.02308
940 2 8.31271 0.0751377 4.62537
941 2 3.5196 2.59594 5.75011
942 2 6.4624 8.53155 5.89659
943 2 6.30505 4.45637 1.84367
944 2 8.44363 8.39207 3.77202
945 2 7.94526 8.27519 4.64867
946 2 1.94039 1.92072 1.47461
947 2 2.15737 7.384 8.26324
948 2 3.81544 8.16386 5.28182
949 2 3.29789 5.21793 1.23241
950 2 1.43195 1.09283 3.29279
951 2 6.9142 9.08408 4.12972
952 2 7.52979 7.73301 7.17684
953 2 1.30772 8.98435 4.81389
954 2 1.06078 7.06828 8.76256
955 2 5.8711 9.2178 4.94778
956 2 3.74773 9.38281 8.37678
957 2 0.337965 1.70543 3.35894
958 2 3.64602 3.40326 8.78487
959 2 1.34149 7.11993 1.82801
960 2 7.02358 5.16363 0.202919
961 2 2.87067 7.04076 0.083119
962 2 2.66214 2.37203 4.36061
963 2 3.92402 2.78835 4.57226
964 2 5.91431 6.45529 6.89346
965 2 5.8357 8.05275 2.21028
966 2 6.88519 0.341713 0.412887
967 2 3.86627 9.02331 3.34911
968 2 1.55562 2.64921 3.61171
969 2 8.33094 6.11858 3.3761
970 2 4.56889 2.59127 7.2371
971 2 5.9453 0.0265803 1.86531
972 2 3.21934 5.00248 6.20046
973 2 2.79071 6.06435 2.34808
974 2 4.32718 3.4405 3.13198
975 2 1.72584 8.99848 0.459284
976 2 8.29402 1.70345 8.04934
977 2 3.34763 0.629812 6.85861
978 2 7.14156 5.31162 2.50906
979 2 8.1482 4.0442 7.75972
980 2 0.776283 4.31582 2.15065
981 2 6.73715 3.19009 1.95613
982 2 9.32481 3.6962 4.96602
983 2 6.57895 1.95048 6.2778
984 2 7.42482 7.24878 2.24784
985 2 5.91358 6.80032 1.77329
986 2 9.16993 7.83038 2.24845
987 2 5.58819 9.40864 1.05513
988 2 9.23565 2.56588 1.03438
989 2 0.820009 7.57486 0.384399
990 2 0.803164 0.473717 0.802685
991 2 1.7979 5.38383 5.65464
992 2 5.15352 8.20184 6.91442
993 2 0.890086 4.31371 5.22893
994 2 0.636698 4.60104 3.73048
995 2 5.34196 5.59508 8.11547
996 2 2.49845 6.85897 5.40277
997 2 5.67451 0.209764 4.04139