#bin. KALJ data file T=0.5

1000 atoms
2 atom types

0 9.4 xlo xhi
0 9.4 ylo yhi
0 9.4 zlo zhi

Masses

1 1.0
2 1.0

Atoms

1 1 4.11346 5.71648 2.52457
2 1 3.02636 5.3767 4.18342
3 1 3.45683 2.34301 3.74845
4 1 3.72034 4.01801 9.03022
5 1 2.54549 0.323096 2.73125
6 1 3.8204 7.67652 6.38718
7 1 6.67595 5.64115 6.50701
8 1 8.97639 1.94539 7.26081
9 1 0.978813 6.88492 6.80877
10 1 0.897963 5.68374 0.454689
11 1 1.2356 0.944119 4.23281
12 1 0.41143 1.26881 8.79592
13 1 0.414351 7.64411 6.05094
14 1 2.15876 3.64232 6.08612
15 1 9.35585 8.27795 0.59496
16 1 8.71807 7.30296 7.77852
17 1 5.94721 0.0313903 0.590736
18 1 6.91209 7.32027 4.80134
19 1 8.9174 6.90541 0.419057
20 1 7.61615 5.56193 8.32208
21 1 8.94583 3.27359 0.721453
22 1 7.90463 0.552949 9.38602
23 1 6.09568 9.07073 7.89465
24 1 1.88582 5.89329 9.11592
25 1 2.76204 7.48239 0.750337
26 1 6.41667 0.254769 2.37537
27 1 8.14542 3.6517 7.61672
28 1 6.85806 2.38621 2.82808
29 1 7.99854 4.6653 7.89033
30 1 9.25607 0.821842 5.0135
31 1 0.999923 9.39726 3.71069
32 1 5.6738 5.40235 6.13213
33 1 8.67021 7.72179 1.23348
34 1 2.40652 8.47319 0.576161
35 1 4.85449 5.42641 5.18226
36 1 4.138 8.78028 4.96312
37 1 0.121198 5.68905 8.47631
38 1 0.450133 8.85541 1.97912
39 1 4.19413 6.70549 3.11795
40 1 4.96251 9.3269 8.56983
41 1 2.23753 8.06941 5.58769
42 1 2.1851 1.36951 4.58001
43 1 4.72284 1.0837 8.38463
44 1 4.06467 1.99958 2.57473
45 1 0.490895 7.60019 7.99148
46 1 1.65333 4.39969 4.36883
47 1 5.77131 7.73218 2.65954
48 1 6.21085 1.3524 4.89586
49 1 2.21333 4.47243 5.38021
50 1 4.95119 0.936624 3.51139
51 1 5.42885 6.07927 2.04157
52 1 4.41048 7.82805 0.121689
53 1 8.85431 0.493013 0.334566
54 1 7.78863 1.00977 6.17425
55 1 8.59089 5.95015 3.86565
56 1 2.16856 7.12037 5.12892
57 1 2.71679 5.71411 5.17559
58 1 4.19363 4.60094 2.52304
59 1 4.87272 6.58667 6.73109
60 1 3.47672 3.60192 3.8384
61 1 4.3647 4.22613 3.43796
62 1 3.74944 7.91403 1.12077
63 1 9.21833 2.97012 4.70729
64 1 2.02819 7.65477 2.33606
65 1 6.51036 8.84347 1.66154
66 1 1.48474 1.26381 8.76986
67 1 1.05847 5.94672 6.51538
68 1 5.15955 7.36412 5.89765
69 1 8.12911 7.60234 2.12459
70 1 0.276723 4.78824 4.32102
71 1 6.60096 8.30966 7.30278
72 1 2.33553 3.37214 0.672277
73 1 4.04098 5.13778 1.5544
74 1 6.62131 0.233941 3.40286
75 1 6.78688 2.13076 1.77145
76 1 6.90875 6.72137 6.51816
77 1 3.19368 3.7724 5.00703
78 1 2.72801 6.43619 0.809995
79 1 7.82913 8.33876 6.1527
80 1 9.26538 1.62224 0.191458
81 1 3.07998 4.3485 8.14585
82 1 4.17251 0.143824 0.81686
83 1 8.09898 7.3311 5.48261
84 1 0.804871 5.8661 7.68733
85 1 8.59671 4.51096 7.10621
86 1 5.98812 4.99252 7.7489
87 1 0.847189 0.895564 6.23608
88 1 7.93423 1.78072 4.12242
89 1 4.28107 7.16703 2.10434
90 1 5.59615 5.07006 4.1047
91 1 0.511844 5.9635 3.21721
92 1 9.25454 1.25487 2.67059
93 1 3.69787 1.03708 4.95651
94 1 1.63475 5.30601 5.00512
95 1 6.78625 6.06607 3.41333
96 1 5.11755 8.01286 6.68997
97 1 0.943054 2.22488 8.95225
98 1 4.44926 8.75018 1.51716
99 1 6.27903 9.26868 5.85645
100 1 4.53992 4.75986 -0.0166888
101 1 6.52926 4.78343 8.48937
102 1 2.5857 3.57026 3.12741
103 1 5.26338 6.72558 2.8072
104 1 6.13813 7.77741 6.46286
105 1 8.45021 6.13548 2.51723
106 1 8.58898 7.53105 4.55743
107 1 6.00058 3.95659 3.7501
108 1 8.24102 0.198786 2.44891
109 1 7.44131 6.02957 7.22873
110 1 9.05861 6.31582 7.51801
111 1 5.45293 8.87965 1.39122
112 1 7.73838 2.03801 1.24072
113 1 3.92353 4.85499 7.79769
114 1 5.15675 3.63227 3.27255
115 1 5.77087 1.93416 2.52171
116 1 6.0965 2.83223 9.13064
117 1 7.22529 9.19449 0.654462
118 1 6.89895 3.40664 1.08949
119 1 4.07959 2.06214 5.24018
120 1 1.76666 0.610184 7.7577
121 1 3.76751 2.89606 4.67713
122 1 3.13883 7.42112 5.51902
123 1 5.28671 5.86877 9.379
124 1 9.15981 9.17747 5.27038
125 1 3.82471 4.80783 5.88676
126 1 6.72691 3.32087 2.1818
127 1 5.47818 8.39772 5.85401
128 1 7.2485 6.58236 5.49586
129 1 7.5197 7.34104 0.295378
130 1 4.21741 4.07488 1.55808
131 1 7.72631 3.09375 2.9094
132 1 7.13027 8.20976 2.12411
133 1 4.92506 2.51784 2.82166
134 1 0.358696 8.5731 8.40159
135 1 7.9452 6.55652 4.51352
136 1 6.74793 2.11707 7.33271
137 1 2.8815 5.16339 6.07659
138 1 5.97424 7.75895 5.06597
139 1 5.31561 2.93817 3.94253
140 1 0.448482 3.62303 0.0776678
141 1 3.71002 7.53535 2.94099
142 1 5.47068 0.537187 4.97586
143 1 5.63939 2.13379 0.371107
144 1 4.68543 1.35419 4.56516
145 1 0.647674 3.0889 0.890355
146 1 1.00047 2.57743 2.81287
147 1 7.58226 2.14982 8.04404
148 1 1.56569 5.40751 2.86178
149 1 2.75716 1.11985 1.80585
150 1 0.220272 6.54551 4.1539
151 1 7.2278 7.66629 6.82392
152 1 6.61619 0.290584 4.59145
153 1 0.827797 8.08294 9.1752
154 1 2.85445 4.6849 0.131209
155 1 0.826348 8.39283 4.45961
156 1 5.68536 2.25525 7.80826
157 1 7.65969 6.52853 9.02348
158 1 3.11467 0.99096 6.39109
159 1 1.53852 6.61097 7.64589
160 1 5.87975 6.42002 6.66055
161 1 2.45833 2.50789 7.34099
162 1 0.428103 3.04136 3.82852
163 1 5.90185 1.86391 6.78869
164 1 3.66118 0.176348 7.34322
165 1 8.4531 5.94805 6.55488
166 1 6.12507 7.24316 7.28009
167 1 3.29776 9.20679 0.322651
168 1 7.14475 5.05933 1.72082
169 1 1.83984 5.00835 0.280464
170 1 6.80109 3.41566 3.26043
171 1 6.79612 8.57011 6.30179
172 1 3.17036 8.20985 8.31025
173 1 2.72299 5.30937 0.998662
174 1 5.3431 3.02638 8.35055
175 1 7.88806 3.19264 0.84334
176 1 1.74755 0.838636 1.87112
177 1 4.52516 6.23036 1.45752
178 1 5.9746 2.793 3.26977
179 1 6.3244 1.81987 3.94178
180 1 0.817923 1.57213 7.8434
181 1 8.32282 3.67762 2.24744
182 1 2.58388 8.22155 3.83314
183 1 4.70948 5.45289 0.78071
184 1 6.90824 7.54492 7.89134
185 1 1.10025 6.82194 4.89934
186 1 0.446771 1.88173 2.04703
187 1 2.23157 0.939274 3.60791
188 1 1.29307 6.62093 0.108413
189 1 3.62106 5.8831 5.817
190 1 3.52057 2.62609 1.91982
191 1 4.97 4.63511 5.8788
192 1 4.30989 0.614638 6.60848
193 1 4.76035 1.46812 1.93779
194 1 3.53599 9.26787 4.08152
195 1 5.55606 7.92579 4.00581
196 1 2.21767 8.719 2.6906
197 1 5.0634 3.47281 1.47718
198 1 6.82413 0.722358 0.151207
199 1 3.42513 0.106482 5.26049
200 1 0.674707 0.548782 7.35714
201 1 5.75884 2.41455 4.85051
202 1 3.99374 6.05327 3.90297
203 1 4.04478 2.5499 6.63012
204 1 5.16372 6.99501 0.153499
205 1 4.13911 1.55248 6.18046
206 1 5.27041 0.0358789 6.02112
207 1 6.88755 4.91637 2.78883
208 1 0.498166 5.92481 1.44687
209 1 5.65189 0.3978 6.97606
210 1 9.35897 5.39596 7.20824
211 1 6.36263 1.1816 1.93249
212 1 4.93417 5.88379 3.2222
213 1 1.95339 6.50304 6.61504
214 1 7.70989 1.8207 2.35084
215 1 6.57636 6.24169 2.3512
216 1 7.22086 3.12611 7.3355
217 1 3.21873 9.22333 6.42078
218 1 1.50765 1.89697 2.13901
219 1 7.52272 4.69666 8.89261
220 1 6.92045 0.126506 8.58477
221 1 5.16511 8.67258 7.61742
222 1 4.84433 3.91265 0.533198
223 1 2.34058 0.132713 0.399683
224 1 6.93745 3.79363 4.22996
225 1 1.4568 2.79622 0.217899
226 1 3.15195 1.87931 7.82353
227 1 8.19998 6.26658 5.63823
228 1 6.15633 8.69673 8.96742
229 1 0.208462 1.53297 5.78933
230 1 6.71524 0.428729 1.2695
231 1 8.78783 3.1796 6.64817
232 1 6.70749 3.99194 7.79747
233 1 0.534548 0.0303137 2.80152
234 1 4.74498 7.64569 3.04576
235 1 5.20002 7.94444 1.04526
236 1 9.1532 3.82111 4.14618
237 1 8.21873 2.08809 6.42752
238 1 7.34842 0.862384 7.83008
239 1 5.28392 4.79052 6.87368
240 1 1.72341 1.78824 0.178987
241 1 3.24739 6.0168 3.1441
242 1 4.55813 5.37827 8.38167
243 1 5.85454 0.866352 4.05771
244 1 7.54417 4.58975 3.71347
245 1 7.41979 4.09926 1.65764
246 1 8.98588 1.19807 3.88103
247 1 5.03262 2.96992 0.076966
248 1 5.78482 8.92157 5.0016
249 1 6.55616 4.87915 5.83093
250 1 5.23989 4.69811 3.18452
251 1 7.82191 4.78051 4.83603
252 1 9.15 5.78936 5.7107
253 1 1.95749 7.66706 1.27474
254 1 5.86292 2.64792 1.55965
255 1 4.35526 3.40903 2.44797
256 1 9.14763 5.31752 2.27161
257 1 0.232172 8.62832 3.53979
258 1 3.63708 6.92557 1.45503
259 1 6.16087 2.18296 5.80745
260 1 4.7406 2.45184 1.82768
261 1 8.65668 8.14898 8.47493
262 1 8.55222 2.85605 8.26983
263 1 6.75761 3.79526 6.1671
264 1 7.08278 0.75018 5.50981
265 1 3.71988 1.52847 1.64303
266 1 0.541027 7.35075 0.518416
267 1 5.94766 4.91014 2.08124
268 1 4.90217 1.00132 1.02535
269 1 3.8183 3.93724 0.652638
270 1 7.19374 7.3756 1.33226
271 1 0.281797 7.9059 1.55665
272 1 1.85172 3.55968 1.7247
273 1 9.26573 5.02998 3.29577
274 1 4.25533 3.10128 8.59035
275 1 5.0044 0.23689 0.148039
276 1 0.125561 0.215675 8.13315
277 1 7.38942 4.30072 0.6665
278 1 3.70582 3.03091 5.83358
279 1 0.985956 3.99024 1.27637
280 1 3.38151 1.80932 6.79071
281 1 3.26085 6.8318 2.43127
282 1 1.6912 8.61192 3.88768
283 1 2.26038 5.52667 6.92384
284 1 6.75341 6.26436 4.55554
285 1 0.344147 9.32424 6.35753
286 1 0.606905 3.64524 7.69632
287 1 4.28096 9.25755 5.84869
288 1 8.24942 6.69251 1.47099
289 1 0.513724 0.909003 3.46212
290 1 4.92082 4.56748 7.82869
291 1 0.0101583 3.43752 5.62867
292 1 5.29219 2.8023 6.83764
293 1 7.93287 4.21743 6.04432
294 1 9.30436 2.87208 7.56339
295 1 5.09345 3.69619 7.30961
296 1 8.55804 5.06558 8.64111
297 1 1.16525 4.22621 6.69329
298 1 0.347284 2.49029 6.5821
299 1 4.24853 8.7707 6.80788
300 1 1.9511 2.38025 4.66188
301 1 5.07364 7.27722 7.45807
302 1 8.90182 6.99744 6.02212
303 1 5.84805 5.25655 5.11272
304 1 1.40304 7.20162 8.61053
305 1 5.83692 8.78866 6.77182
306 1 0.0330328 0.0334202 0.995726
307 1 4.71025 2.34155 4.43344
308 1 3.35849 9.28546 8.43569
309 1 0.0438004 7.31751 7.07638
310 1 7.76154 6.30505 3.29967
311 1 0.872914 8.6133 0.947802
312 1 2.41781 7.91285 9.06179
313 1 6.24018 6.92366 3.1156
314 1 5.71887 1.04279 0.320635
315 1 6.06346 6.91985 8.23986
316 1 9.32482 4.27465 8.97254
317 1 6.64911 5.10773 3.78646
318 1 8.16582 2.21906 3.19876
319 1 0.991811 1.45563 1.35858
320 1 9.37711 5.59027 4.7166
321 1 8.38538 4.02094 1.27089
322 1 7.4047 9.0518 4.06283
323 1 9.40412 2.70463 9.36587
324 1 9.31144 5.27795 9.35846
325 1 9.41528 7.56929 8.99416
326 1 2.4261 2.03598 3.77092
327 1 1.25415 5.04839 1.25309
328 1 5.78227 3.78342 6.57642
329 1 0.00781547 6.86606 1.34696
330 1 5.21361 4.1884 2.29547
331 1 1.89643 0.148203 4.31064
332 1 2.8311 2.89292 6.48073
333 1 1.82176 4.54475 8.75562
334 1 1.2333 5.06281 7.27006
335 1 6.3093 4.69963 1.13053
336 1 7.56566 5.63861 4.08953
337 1 8.20791 0.939005 4.69492
338 1 3.98502 0.771565 3.83283
339 1 8.09765 6.12885 0.563663
340 1 4.20082 5.89411 7.46683
341 1 6.8837 7.18362 8.8503
342 1 8.33832 2.39175 4.91956
343 1 2.23523 6.24368 3.5308
344 1 3.68762 5.04776 8.83896
345 1 6.99982 6.41584 8.15505
346 1 8.52735 2.91406 1.58424
347 1 8.15269 6.4252 8.09188
348 1 8.94127 2.2717 3.95893
349 1 2.62218 3.13965 2.16142
350 1 0.21664 4.41122 7.08995
351 1 5.48358 9.1815 2.34252
352 1 3.71358 6.04576 0.888335
353 1 7.10535 6.99641 3.82028
354 1 2.40999 7.29051 8.23664
355 1 7.24531 8.64988 3.0428
356 1 6.19983 1.07899 6.01365
357 1 1.1466 4.54739 5.66482
358 1 4.67637 3.05651 5.20832
359 1 1.02855 5.23675 8.82838
360 1 6.80055 2.48074 0.686568
361 1 7.62671 0.0143229 6.40818
362 1 2.92277 7.15463 6.60058
363 1 8.0886 5.5747 1.57608
364 1 1.95998 0.607181 6.30245
365 1 5.05807 6.25738 8.02869
366 1 1.51088 8.91605 0.0907384
367 1 0.637153 2.4954 5.52598
368 1 4.13167 7.42838 5.02155
369 1 6.60546 7.33586 2.22757
370 1 0.784132 0.98619 2.35747
371 1 1.65859 8.82057 5.02985
372 1 4.14748 3.95886 5.42154
373 1 5.38223 1.15034 7.6111
374 1 6.98138 8.24325 0.957113
375 1 2.47798 9.02495 7.89236
376 1 5.99844 3.86853 1.64158
377 1 9.35932 8.36972 6.58398
378 1 3.19881 5.98122 1.75267
379 1 7.33251 8.05799 4.02489
380 1 0.474623 4.81863 7.97119
381 1 3.31639 2.58387 8.7145
382 1 5.17319 1.1616 6.34383
383 1 2.55434 0.131213 1.64133
384 1 1.98251 6.21382 4.61193
385 1 4.24429 6.85788 9.01964
386 1 1.83924 7.73471 6.56375
387 1 8.20348 2.09239 8.89295
388 1 3.19233 3.35523 1.24266
389 1 4.87786 1.92494 6.93045
390 1 1.024 5.0031 3.6816
391 1 6.53384 7.86197 3.4064
392 1 1.83412 5.89693 0.902283
393 1 1.3901 0.0885479 6.84588
394 1 2.73967 6.55341 5.7114
395 1 6.51424 1.66919 9.2817
396 1 2.6222 3.23302 8.13367
397 1 5.89536 5.60798 2.85657
398 1 7.33697 5.30741 0.514322
399 1 6.32834 2.95068 4.21276
400 1 8.36119 5.64744 4.85175
401 1 5.46244 6.32957 0.925506
402 1 8.85118 3.98276 5.02816
403 1 7.28838 2.61012 3.80011
404 1 0.453899 0.888413 0.515571
405 1 3.69553 5.2401 6.77634
406 1 5.57064 1.64052 1.37455
407 1 3.91457 8.1768 2.15898
408 1 0.879049 3.15188 1.92647
409 1 7.88169 8.20166 4.89433
410 1 5.82884 3.2149 0.735457
411 1 3.46394 3.79257 2.17782
412 1 3.50543 6.50841 5.02541
413 1 2.10548 9.03155 6.18239
414 1 7.01039 6.3912 0.389448
415 1 8.8188 8.84804 1.65073
416 1 7.24326 6.13991 1.33098
417 1 0.916953 0.394985 9.00897
418 1 7.26952 2.35185 9.07265
419 1 1.8887 3.43974 3.89583
420 1 6.12656 6.57089 9.32298
421 1 0.0203051 6.71261 8.40283
422 1 7.25232 1.55875 3.32683
423 1 8.05924 4.78508 2.25287
424 1 3.45808 3.04348 2.88018
425 1 9.13988 4.14506 2.6072
426 1 8.18871 2.67863 7.2527
427 1 8.41909 1.04985 1.8638
428 1 1.96707 7.29917 3.36121
429 1 4.1479 2.04398 8.34552
430 1 6.24285 8.84144 4.03297
431 1 0.090082 6.30623 6.66162
432 1 0.63568 6.93578 3.05519
433 1 7.54251 4.08325 2.75299
434 1 1.10125 1.8828 4.75505
435 1 6.80981 8.51468 4.87406
436 1 1.60823 8.54779 7.21828
437 1 2.44434 4.26004 2.3675
438 1 2.62459 5.18894 3.04867
439 1 1.4479 4.19228 7.79104
440 1 2.79484 1.43187 0.368426
441 1 5.15056 2.08949 8.86894
442 1 2.84767 8.14528 6.41287
443 1 0.317783 4.66076 1.73105
444 1 7.39859 4.15537 7.082
445 1 2.52036 0.232321 7.10095
446 1 8.26307 1.3039 7.87162
447 1 8.23584 3.02805 9.25345
448 1 1.11186 7.77622 3.5357
449 1 5.64017 0.496209 1.56222
450 1 2.59023 8.90931 8.92726
451 1 0.9388 4.01373 8.67105
452 1 9.132 7.28746 2.23866
453 1 4.63892 2.09994 0.911116
454 1 0.308136 9.08086 0.0248189
455 1 3.81324 7.11148 4.07603
456 1 1.0441 3.49946 5.66595
457 1 6.47078 3.17992 5.13876
458 1 1.26669 7.85123 5.24812
459 1 6.9397 1.69393 6.31505
460 1 3.13699 4.75128 5.06851
461 1 1.721 1.3589 5.50489
462 1 6.28418 6.72661 1.43721
463 1 1.49917 0.771332 0.527791
464 1 1.26694 9.17115 8.06664
465 1 2.78464 1.06859 5.45014
466 1 2.52697 1.25865 7.2024
467 1 6.69445 1.68909 8.29395
468 1 6.14699 6.99154 5.80092
469 1 1.36604 1.6407 3.23916
470 1 0.833332 0.105978 4.77374
471 1 7.77727 8.85388 9.16175
472 1 -0.000941038 1.81542 4.80753
473 1 6.64979 2.75988 8.20683
474 1 0.588236 8.69656 5.48493
475 1 0.0248275 2.28346 3.00894
476 1 1.36906 3.03201 6.66289
477 1 3.62931 9.42107 3.11567
478 1 3.78182 5.07446 0.538475
479 1 9.07287 4.1568 7.95662
480 1 1.62402 8.40513 8.62238
481 1 4.27233 3.03149 0.843971
482 1 4.5321 3.67492 4.37919
483 1 0.948981 5.79938 4.40191
484 1 1.61374 2.54741 1.28583
485 1 1.32945 0.121794 5.72327
486 1 7.84774 8.63588 1.43415
487 1 8.34983 7.66778 6.8374
488 1 0.450113 6.64171 5.72329
489 1 1.1024 1.97985 6.26529
490 1 4.4954 7.9458 3.96139
491 1 2.8238 7.96209 2.87507
492 1 2.95016 2.17305 2.86325
493 1 8.36071 3.34225 5.64931
494 1 6.28295 1.23696 3.07051
495 1 1.3263 7.11887 5.88858
496 1 3.26035 1.97859 5.82879
497 1 2.16229 4.51967 6.67135
498 1 2.79665 3.04096 4.36767
499 1 4.22575 6.94884 7.90338
500 1 7.52307 1.31568 8.77
501 1 7.9961 3.87659 4.4145
502 1 1.42317 2.18416 7.21906
503 1 6.3076 0.735353 7.93213
504 1 7.72636 7.00655 7.43315
505 1 4.51909 5.13896 4.04255
506 1 7.47293 6.78109 2.13981
507 1 0.844739 0.448283 1.46905
508 1 4.42874 9.00746 2.56461
509 1 5.91257 0.314716 8.91943
510 1 9.11342 5.89568 0.827681
511 1 9.17204 8.48439 4.56843
512 1 8.45673 2.21854 0.574523
513 1 9.32615 2.88563 2.25512
514 1 8.36398 5.54033 7.48428
515 1 4.16206 8.83124 9.06002
516 1 3.02866 7.72028 1.86547
517 1 1.65308 3.12063 7.63517
518 1 3.30586 3.16099 0.214017
519 1 1.74904 4.46439 3.29328
520 1 2.3289 6.91102 9.34418
521 1 4.47819 0.290241 4.63135
522 1 8.6095 9.03952 7.88649
523 1 2.89064 6.35116 4.24577
524 1 1.42002 1.15915 7.04867
525 1 4.65645 0.357097 1.9179
526 1 4.79988 3.82104 8.88994
527 1 2.45647 6.0779 2.45809
528 1 2.48729 2.14559 1.91472
529 1 2.7164 2.81971 5.42266
530 1 8.08417 8.56551 2.48244
531 1 2.07628 3.51353 4.95078
532 1 0.79959 4.5225 2.83993
533 1 3.31442 7.25633 7.69877
534 1 8.17049 9.14821 3.39129
535 1 3.52362 8.26843 4.32775
536 1 5.4834 3.19338 2.41105
537 1 4.71614 1.38843 0.0422603
538 1 4.83761 2.37886 5.9121
539 1 8.53591 4.89798 4.02786
540 1 1.96358 5.77092 8.00718
541 1 2.51879 2.34505 0.758527
542 1 3.08582 4.46905 7.08102
543 1 1.92869 0.332525 8.7658
544 1 3.6586 0.959363 8.21522
545 1 6.19777 5.68957 1.49445
546 1 5.86407 7.9294 8.11277
547 1 1.78777 7.6883 4.39788
548 1 0.425589 7.9449 2.73656
549 1 1.70798 2.28234 8.27015
550 1 0.396912 3.48759 6.61818
551 1 3.01607 5.7567 0.0383273
552 1 9.30309 3.74181 1.59026
553 1 4.66785 5.53049 6.31278
554 1 5.83424 4.10467 5.54024
555 1 2.23905 1.42676 2.64114
556 1 0.777808 5.65378 5.48106
557 1 4.18907 8.75953 7.94248
558 1 7.18531 0.800923 2.66205
559 1 2.92392 6.98404 3.3889
560 1 2.67833 4.27868 4.08589
561 1 3.26142 4.24785 3.12308
562 1 1.54869 7.66858 7.711
563 1 3.66405 7.06751 0.408991
564 1 8.8928 3.16347 3.23211
565 1 2.32395 1.83359 6.38518
566 1 0.755765 4.69039 0.235878
567 1 8.90697 8.0174 5.6751
568 1 9.35897 1.20738 1.39215
569 1 2.56873 5.24224 8.61927
570 1 4.52953 6.38654 4.81751
571 1 8.95234 4.16956 6.12495
572 1 6.26691 5.65462 0.437016
573 1 1.44601 3.60434 2.66565
574 1 4.30584 2.97596 3.57374
575 1 2.00696 2.71839 2.98931
576 1 7.75299 3.19965 6.41761
577 1 4.1374 7.79015 8.44997
578 1 8.24047 8.68684 7.04406
579 1 5.23949 7.14165 1.81009
580 1 2.27457 0.211054 5.32507
581 1 5.21917 8.50298 3.15983
582 1 5.17337 4.51618 1.33045
583 1 9.03591 0.356334 3.19886
584 1 4.92471 5.21115 2.28465
585 1 7.4132 1.59483 0.439354
586 1 3.37033 8.40987 5.47465
587 1 8.22671 1.11139 3.03769
588 1 8.27276 9.28761 4.58162
589 1 1.61452 9.23032 1.14786
590 1 7.82164 5.16485 6.69089
591 1 2.91067 7.38099 4.45229
592 1 8.69547 9.10877 6.21875
593 1 0.409872 5.12224 6.30838
594 1 6.75093 3.7449 8.8005
595 1 8.85958 5.00222 1.27558
596 1 7.42454 5.5137 5.69636
597 1 0.314721 1.41296 6.85372
598 1 2.39479 3.65096 7.18395
599 1 1.21857 8.60027 2.92786
600 1 5.03259 8.18302 2.15829
601 1 0.00989348 7.59177 3.83566
602 1 7.56857 2.88108 1.88668
603 1 3.02157 4.13287 6.06125
604 1 6.0148 8.34855 0.507171
605 1 3.28868 7.13522 8.83039
606 1 4.01738 3.8273 7.94146
607 1 2.74007 0.613415 8.11792
608 1 5.13188 8.29672 8.74802
609 1 1.54443 0.558022 2.92012
610 1 7.17734 3.22376 0.113011
611 1 4.03271 0.467264 9.12666
612 1 1.50952 3.93867 0.272362
613 1 4.58845 9.3418 3.506
614 1 0.7796 2.72402 8.08642
615 1 3.17755 1.36772 3.96355
616 1 0.506184 1.86844 3.8837
617 1 9.04205 6.79222 3.24436
618 1 6.49478 4.5907 0.115458
619 1 6.43513 4.57188 6.79121
620 1 8.36667 5.01199 0.373872
621 1 9.14998 0.616457 6.03487
622 1 6.19751 8.72148 2.86617
623 1 6.98896 7.5566 5.77825
624 1 9.35025 2.0978 8.32878
625 1 9.26477 4.29039 0.729998
626 1 8.40857 5.10571 5.8058
627 1 1.50442 9.21719 2.18137
628 1 1.66733 3.27316 8.74474
629 1 4.90625 6.9717 3.89472
630 1 4.18153 7.87754 7.35468
631 1 3.1655 0.537663 0.93674
632 1 1.72494 5.2299 6.07247
633 1 9.27797 0.147543 4.22974
634 1 5.24801 6.32092 5.70644
635 1 3.28386 5.01841 2.30683
636 1 6.96896 8.45616 8.34929
637 1 1.07694 6.24948 8.5762
638 1 5.28974 7.10148 4.83996
639 1 2.37306 2.55668 9.10193
640 1 7.55824 3.16362 8.40214
641 1 4.12048 5.84687 9.40616
642 1 0.0531698 3.38407 8.53526
643 1 8.0616 7.24227 3.67669
644 1 3.57589 0.43996 2.11005
645 1 3.54131 3.6587 6.68626
646 1 5.7188 6.17703 4.76291
647 1 5.77508 1.31639 8.57609
648 1 7.06463 4.13268 5.19292
649 1 4.23884 6.78804 5.92913
650 1 3.4823 2.88714 7.55917
651 1 5.96027 5.88187 8.45671
652 1 5.34503 1.57178 5.39923
653 1 7.61361 1.63288 7.10334
654 1 6.4007 7.34891 0.58795
655 1 2.49359 6.88897 1.65779
656 1 6.5498 1.45368 0.958156
657 1 4.88626 8.68404 0.43192
658 1 1.56895 6.09841 1.86311
659 1 1.10887 3.07175 4.68574
660 1 3.77503 5.54016 4.86567
661 1 5.55556 4.8532 0.330001
662 1 6.44766 2.83809 6.64509
663 1 3.33935 8.59008 7.29501
664 1 0.032035 4.82721 5.41637
665 1 2.61134 9.21673 3.6485
666 1 2.70085 8.84673 4.59706
667 1 9.31979 0.376079 2.04584
668 1 6.0834 7.06057 4.13043
669 1 1.3572 2.48946 3.83265
670 1 7.18475 1.20542 4.55352
671 1 0.744903 5.44193 2.2975
672 1 6.83372 5.71421 8.99604
673 1 2.0947 1.55037 1.16656
674 1 2.45471 7.91343 7.43422
675 1 2.96228 0.586184 9.11244
676 1 0.265882 6.28992 9.32685
677 1 5.97239 7.60659 9.0624
678 1 7.65349 1.73543 5.45126
679 1 7.55398 3.056 4.90786
680 1 1.26848 6.74847 3.89019
681 1 2.34509 8.54789 1.7015
682 1 3.69072 5.09927 3.33767
683 1 3.59087 1.55569 9.13011
684 1 8.47929 7.84142 0.167801
685 1 7.91301 6.79262 6.47467
686 1 2.23185 4.77254 7.72499
687 1 6.18982 4.43169 4.60867
688 1 7.38123 7.51625 2.94824
689 1 1.23332 8.54178 6.20947
690 1 4.28198 0.962459 2.75806
691 1 3.90006 1.18413 0.643123
692 1 7.30883 9.32319 2.14182
693 1 7.9523 0.241534 8.46277
694 1 1.61424 7.65157 0.30858
695 1 6.02529 3.22627 7.56196
696 1 8.42767 4.05866 3.36981
697 1 5.01526 8.11902 4.91893
698 1 4.68306 3.55808 6.30582
699 1 1.73208 6.16262 5.61755
700 1 7.41556 9.0922 7.67966
701 1 4.22764 1.26411 7.3848
702 1 8.92683 2.47434 5.76137
703 1 6.35195 5.99633 5.57965
704 1 8.35126 4.01743 0.237171
705 1 5.60523 3.0791 5.79635
706 1 3.01129 1.90664 4.79665
707 1 5.37605 1.90723 3.61363
708 1 5.1297 8.84489 4.26196
709 1 2.62504 6.38987 7.47871
710 1 1.19264 6.79594 1.15214
711 1 2.4529 1.5445 8.59143
712 1 1.93578 5.28395 3.97624
713 1 8.95739 6.58019 5.02025
714 1 0.857174 3.89889 3.78776
715 1 6.88781 5.23424 4.8146
716 1 3.87438 8.47912 3.36413
717 1 5.25943 5.76408 7.16371
718 1 5.00424 4.45058 4.85483
719 1 8.81016 9.19916 8.90104
720 1 5.75749 6.16364 3.7207
721 1 2.23612 5.1555 1.89073
722 1 8.68857 1.97675 2.21407
723 1 7.05193 5.01474 7.48881
724 1 6.57744 1.03466 7.0002
725 1 5.41001 4.79779 8.67877
726 1 8.34419 8.32242 3.9667
727 1 3.71419 6.11424 8.49926
728 1 8.00774 0.174151 1.35475
729 1 0.822589 7.18242 2.04162
730 1 0.455717 3.49205 2.86646
731 1 9.26636 2.28961 1.20813
732 1 5.62184 0.085756 3.36743
733 1 3.3987 8.0986 9.33103
734 1 1.4637 4.48738 2.09662
735 1 8.29554 0.376226 5.52142
736 1 9.17436 8.24126 7.51202
737 1 0.632455 3.9862 4.83113
738 1 1.25414 8.26438 1.85163
739 1 4.23507 4.32447 6.97033
740 1 8.62247 1.17027 6.79982
741 1 2.88077 0.555401 4.50213
742 1 8.19894 3.00874 4.00758
743 1 0.846854 7.89862 6.9639
744 1 0.826239 1.04242 5.15855
745 1 2.59301 3.78203 9.10389
746 1 9.02456 8.86942 2.64029
747 1 8.76891 0.923254 8.7639
748 1 5.78726 3.85862 9.29358
749 1 7.71754 7.83271 8.82933
750 1 8.65075 1.42069 5.63002
751 1 5.08631 7.2585 8.57647
752 1 4.55903 2.69739 7.68903
753 1 7.77629 8.05236 7.70921
754 1 4.74156 0.281546 7.52817
755 1 1.68982 2.5244 5.62062
756 1 3.13936 6.04606 6.70199
757 1 0.77083 2.05178 0.632355
758 1 3.89683 6.80709 6.95094
759 1 3.80481 4.48492 4.31112
760 1 3.2526 8.8604 1.3174
761 1 9.10032 0.139507 7.10454
762 1 4.53307 7.17949 1.01413
763 1 8.24565 3.98974 8.57156
764 1 2.09739 4.40318 1.1077
765 1 8.78105 7.82092 3.07128
766 1 7.11073 2.63164 5.80235
767 1 6.94628 2.23093 4.75654
768 1 3.24728 4.49914 1.37241
769 1 0.237511 7.48287 4.97087
770 1 2.70159 6.24819 8.50483
771 1 7.41591 1.09421 1.62865
772 1 4.30999 1.7791 3.55952
773 1 4.44834 8.16329 5.8216
774 1 4.62508 0.827893 5.549
775 1 0.0319579 6.32073 2.34614
776 1 4.09408 2.43979 9.42736
777 1 6.1254 7.89959 1.52101
778 1 8.52686 7.0564 8.76324
779 1 3.19615 8.8494 2.33934
780 1 7.48185 5.75608 2.49401
781 1 8.32405 1.18182 0.859136
782 1 9.28136 1.10486 7.74152
783 1 0.57364 8.86054 7.35757
784 1 3.28487 1.12493 2.95843
785 1 1.5815 6.55788 2.78452
786 1 3.10898 5.45357 7.70533
787 1 8.46284 8.97826 0.573613
788 1 7.47437 9.15243 5.45357
789 1 8.10706 0.406149 7.23711
790 1 5.80381 3.92398 8.25453
791 1 6.21845 4.08194 2.71719
792 1 8.19406 5.29652 3.14507
793 1 6.69135 9.38072 7.03052
794 1 8.63546 6.11103 9.12443
795 1 6.30651 6.00408 7.452
796 1 5.5352 3.53413 4.7311
797 1 7.67916 0.606406 3.80065
798 1 3.55581 2.26256 0.846454
799 1 5.41419 0.907002 2.54376
800 1 6.93348 8.27968 9.38336
801 2 1.96694 1.48577 7.81854
802 2 0.67507 7.04512 9.08644
803 2 4.18654 3.38479 9.39457
804 2 7.49069 0.685267 0.911758
805 2 6.38053 7.89264 4.30208
806 2 6.81979 5.59786 8.09252
807 2 2.55607 2.27386 8.28325
808 2 1.12925 7.72553 1.13906
809 2 3.00413 4.0287 0.622519
810 2 7.35077 2.49129 6.82832
811 2 8.90582 4.41466 1.84026
812 2 2.64703 3.9065 1.58094
813 2 8.43017 2.77152 2.55268
814 2 0.826099 2.38527 1.52846
815 2 5.48161 7.24878 6.64099
816 2 0.968853 1.35901 0.129488
817 2 2.52748 8.76305 6.94937
818 2 2.36773 7.33163 5.96603
819 2 1.23857 7.43099 2.71472
820 2 8.86807 4.95332 7.87065
821 2 4.09826 0.210022 8.13949
822 2 5.48736 0.39872 8.01763
823 2 4.91191 7.92767 8.02145
824 2 8.75979 6.80956 4.14965
825 2 5.47901 6.57053 7.38644
826 2 4.92993 1.62742 2.82646
827 2 7.50162 5.84874 4.87679
828 2 7.46303 0.358957 4.74252
829 2 5.53935 5.29004 1.06108
830 2 7.66683 7.10878 8.25483
831 2 8.4535 0.47867 3.89287
832 2 5.51777 1.68149 4.47175
833 2 0.726647 7.40804 4.30447
834 2 6.66385 4.26944 2.00755
835 2 7.22241 4.67848 6.35106
836 2 0.536565 1.64905 3.00493
837 2 4.29125 8.81238 4.17282
838 2 8.87425 8.90823 3.80572
839 2 9.02348 1.87663 6.3793
840 2 8.39217 2.11045 7.94591
841 2 2.15473 3.94505 8.22023
842 2 4.89008 3.73981 8.08314
843 2 3.72954 0.521799 5.99039
844 2 7.10006 6.7368 2.98915
845 2 4.90812 8.95708 5.28938
846 2 7.93615 5.52003 9.25529
847 2 0.571186 6.75173 7.58322
848 2 7.68998 7.40144 4.41907
849 2 0.392591 4.22771 6.12112
850 2 4.34118 4.52692 8.58478
851 2 3.97567 2.16751 7.42322
852 2 8.56629 1.78554 1.36261
853 2 0.513143 6.43215 0.7131
854 2 7.36237 5.40937 3.31399
855 2 5.31705 5.43016 8.02332
856 2 0.980841 8.98827 8.86164
857 2 0.0108945 4.17987 3.42429
858 2 5.93234 5.33601 9.12767
859 2 6.08282 5.35308 6.97212
860 2 4.98627 0.144448 1.06488
861 2 5.42738 6.53345 8.79252
862 2 3.26697 7.78675 7.04897
863 2 7.46164 3.46823 5.65522
864 2 8.85037 6.04696 1.73356
865 2 0.328148 0.980522 4.2682
866 2 7.47697 3.99389 8.15069
867 2 6.58976 3.66858 7.00738
868 2 8.70832 4.80497 4.83862
869 2 4.95045 9.18694 6.82813
870 2 2.32549 4.88017 4.60482
871 2 6.76419 1.63273 5.49773
872 2 4.02604 8.59224 0.477467
873 2 0.882016 6.27304 2.30396
874 2 6.73534 1.05948 3.82234
875 2 6.13849 1.56965 7.61879
876 2 2.16838 6.86521 4.15013
877 2 0.888152 2.90894 7.313
878 2 2.65342 8.82239 5.5087
879 2 4.90969 1.8091 7.91374
880 2 2.75929 8.11282 4.93261
881 2 7.98803 2.58799 5.67291
882 2 3.5035 6.48134 9.2506
883 2 3.05436 8.71396 3.168
884 2 7.50318 0.116593 3.02143
885 2 1.5103 3.32798 0.938818
886 2 4.98724 3.84332 5.43866
887 2 0.461804 6.20568 4.97899
888 2 3.73413 8.51394 6.21389
889 2 0.48734 2.48773 4.58773
890 2 7.69638 8.38506 0.493406
891 2 2.2304 0.690374 1.0494
892 2 2.15569 1.06146 9.25955
893 2 1.00053 0.779109 8.07866
894 2 9.09769 5.85407 3.07696
895 2 1.92132 8.13086 3.19852
896 2 8.23335 3.78995 6.79763
897 2 6.55897 0.988331 8.69288
898 2 0.443712 2.13207 7.39041
899 2 5.83944 4.15207 7.42802
900 2 2.29501 7.10147 7.17149
901 2 8.4015 1.35264 0.0703727
902 2 2.02028 6.90367 0.776156
903 2 4.0508 6.0908 6.57867
904 2 8.73989 0.522607 1.28956
905 2 4.57706 7.37322 6.57673
906 2 7.97483 4.02661 5.22795
907 2 3.38232 1.13645 7.37087
908 2 4.62654 6.37666 2.38372
909 2 4.4917 5.11754 7.10875
910 2 3.46482 6.43078 7.67655
911 2 4.52728 7.86666 1.6051
912 2 6.18696 2.64944 2.34031
913 2 0.447597 0.325824 5.59073
914 2 6.53075 3.69061 0.335613
915 2 5.49774 7.31928 3.41352
916 2 4.06829 0.776746 1.3531
917 2 7.47696 6.09524 6.26882
918 2 6.83539 1.60892 2.50234
919 2 7.97687 8.61563 8.3794
920 2 6.80273 6.76056 7.38693
921 2 2.36074 6.91308 2.68441
922 2 6.26656 8.3303 5.59394
923 2 4.79043 0.348052 2.74362
924 2 3.26483 3.68243 7.50318
925 2 8.85664 8.12429 2.20179
926 2 7.15971 4.56084 4.43867
927 2 6.66873 9.25545 0.0199104
928 2 8.30395 8.70237 5.4373
929 2 1.8973 6.60852 8.47788
930 2 7.64522 2.52395 0.414542
931 2 4.45939 4.60812 0.867119
932 2 9.18322 3.70764 7.29605
933 2 3.18217 2.27144 0.101736
934 2 3.41594 6.69962 6.14277
935 2 7.6651 6.76142 0.9036
936 2 7.57683 3.85372 9.11556
937 2 6.01948 4.70926 3.29393
938 2 8.88815 3.56574 9.211
939 2 5.10771 4.28697 3.9831
940 2 1.6506 7.01043 1.91956
941 2 4.08545 3.18398 1.60442
942 2 1.56977 5.82761 7.29609
943 2 5.67213 4.04131 0.793172
944 2 7.98671 4.8133 1.20924
945 2 0.257929 5.15771 0.873931
946 2 1.83521 9.19775 3.27138
947 2 5.44649 8.9851 9.18465
948 2 0.293939 5.55953 3.90417
949 2 3.87075 1.77969 4.32945
950 2 3.08622 0.582171 3.65513
951 2 8.84727 1.74056 3.28441
952 2 4.24119 3.43093 7.19564
953 2 1.61289 2.83274 2.21746
954 2 4.2066 4.79691 5.03293
955 2 7.91792 8.12826 3.27373
956 2 1.59846 0.630977 5.00155
957 2 4.59247 6.13221 8.8173
958 2 2.72472 2.75622 3.55718
959 2 4.5164 5.11279 3.14117
960 2 8.74914 5.82366 8.24067
961 2 0.0516396 0.480002 9.07732
962 2 3.36527 3.41726 8.53576
963 2 8.93943 5.0256 6.50006
964 2 6.80921 4.28378 3.447
965 2 5.62042 7.17186 0.941856
966 2 1.6479 1.6836 4.04572
967 2 2.7335 0.324159 5.96083
968 2 5.1632 0.275606 4.15665
969 2 5.30308 7.95739 0.160825
970 2 6.18151 5.70271 4.2319
971 2 5.84664 8.45724 2.11998
972 2 8.34865 0.439956 6.44684
973 2 6.00611 2.10524 8.62142
974 2 8.37242 3.22417 4.83283
975 2 2.36969 8.2294 8.25731
976 2 4.9722 5.91662 4.17579
977 2 1.50769 5.04216 8.09616
978 2 1.66671 8.4235 0.836682
979 2 0.831427 4.82949 4.95828
980 2 8.64649 6.85513 6.89119
981 2 2.4151 2.88891 1.42155
982 2 1.33225 5.90222 3.52421
983 2 2.36374 5.97602 1.54056
984 2 7.40319 0.720437 6.87381
985 2 7.41547 8.70568 6.89475
986 2 0.902958 0.0736338 0.576796
987 2 6.21399 6.8346 4.96459
988 2 7.5559 3.6996 3.61997
989 2 2.39522 1.90006 5.30157
990 2 9.28723 8.36764 9.10808
991 2 5.91038 6.81373 2.26851
992 2 8.30175 7.00603 2.80887
993 2 3.27045 1.66239 2.30641
994 2 0.667143 3.91753 2.15241
995 2 0.842762 3.1204 8.98292
996 2 4.34758 6.48767 0.569101
997 2 1.02839 8.2795 7.94819
998 2 3.38521 7.72831 3.66005
999 2 8.66137 0.485955 7.89213