#bin. KALJ data file T=0.5

1000 atoms
2 atom types

0 9.4 xlo xhi
0 9.4 ylo yhi
0 9.4 zlo zhi

Masses

1 1.0
2 1.0

Atoms

1 1 0.981982 5.0897 8.31853
2 1 6.93753 7.08541 0.473499
3 1 3.10859 2.98177 2.84852
4 1 7.42947 8.21582 8.10926
5 1 1.27199 9.17733 4.93777
6 1 7.02359 7.3962 7.24164
7 1 2.14803 9.26248 1.69653
8 1 3.93134 0.635384 7.37896
9 1 2.56421 5.84673 5.79506
10 1 0.994368 5.92215 9.13802
11 1 7.19929 0.522551 5.04113
12 1 0.337774 0.745529 1.65356
13 1 1.80589 2.3624 1.35092
14 1 3.48047 4.86302 3.97705
15 1 5.95378 3.30912 0.0777197
16 1 0.586413 1.39478 5.97453
17 1 8.57922 3.10668 1.19657
18 1 6.05779 7.11405 8.42337
19 1 4.0566 4.48655 9.10234
20 1 7.3553 5.53287 6.97108
21 1 8.4541 0.661774 3.08112
22 1 2.30349 1.80745 7.03795
23 1 5.05754 1.98284 8.5674
24 1 3.35076 4.22822 6.87732
25 1 7.89288 1.01104 9.11978
26 1 0.124208 4.4565 2.76281
27 1 0.320123 7.44597 0.750596
28 1 3.88665 2.71574 2.1574
29 1 0.625774 5.1807 6.29037
30 1 0.122473 3.45439 6.0075
31 1 2.56692 2.83724 1.98288
32 1 7.41442 6.31437 5.47242
33 1 1.96123 7.7472 8.38048
34 1 5.68673 0.18401 3.56746
35 1 0.44321 1.53556 2.29477
36 1 3.95336 7.96234 3.49347
37 1 5.78935 8.57809 0.568113
38 1 1.10069 6.38598 2.44397
39 1 1.01462 8.27698 8.06166
40 1 7.64721 2.35551 9.2946
41 1 7.18394 7.27847 5.57555
42 1 1.15868 1.21836 4.20438
43 1 1.80625 9.09197 8.26184
44 1 2.3072 3.18464 5.55131
45 1 5.68506 2.85243 4.51163
46 1 2.87731 3.60225 3.63935
47 1 1.83059 6.28251 0.33806
48 1 5.77551 5.74736 2.83258
49 1 4.38098 4.38572 5.40305
50 1 1.33307 8.64467 3.88601
51 1 0.661966 5.48858 2.87976
52 1 3.50063 1.65044 1.93573
53 1 3.45912 1.30375 3.72046
54 1 6.99718 7.39086 8.81692
55 1 1.40217 4.9789 7.23518
56 1 1.88329 4.68734 8.86821
57 1 7.92654 7.14765 6.30174
58 1 8.13638 8.39956 0.590572
59 1 7.88825 8.88565 7.29668
60 1 1.58131 7.3778 2.69004
61 1 2.68514 1.44116 2.88233
62 1 1.0885 9.37327 0.282318
63 1 6.48025 0.0237044 6.99293
64 1 8.04496 7.41791 0.290861
65 1 9.32456 1.16819 4.15061
66 1 2.25458 6.11491 4.87362
67 1 3.09619 7.9598 2.17614
68 1 5.01003 6.79486 0.337685
69 1 5.33197 4.03529 2.98863
70 1 7.0095 3.01988 2.94116
71 1 7.70198 3.76369 0.572617
72 1 6.61915 8.99291 4.73619
73 1 3.17551 6.02366 6.60071
74 1 6.37875 8.18028 4.10513
75 1 6.81982 1.99223 7.93634
76 1 6.74206 3.44008 0.873186
77 1 1.94645 2.98945 3.68585
78 1 4.47338 7.53071 1.89811
79 1 6.71667 1.04325 7.22693
80 1 8.21769 7.47278 8.69184
81 1 3.41436 7.29005 5.47327
82 1 5.37419 0.920002 4.24737
83 1 4.31821 6.83587 5.14118
84 1 0.210083 7.32406 6.86517
85 1 2.28449 1.56393 0.61853
86 1 3.22954 3.85391 0.175808
87 1 6.49804 1.43786 4.75341
88 1 0.0783445 2.16947 8.37571
89 1 0.411043 3.19411 2.25928
90 1 7.54843 3.70309 2.32996
91 1 8.63303 5.92081 5.22428
92 1 6.70311 6.28139 8.55163
93 1 2.87071 8.07995 4.97931
94 1 1.81756 8.54664 0.951754
95 1 1.81871 4.38907 2.48147
96 1 2.63067 1.29508 9.06918
97 1 2.12499 2.40034 2.80889
98 1 5.14283 1.43867 3.28699
99 1 1.87613 0.478012 4.58353
100 1 6.64038 7.26984 3.72449
101 1 4.16598 5.81776 2.54882
102 1 6.28794 0.513362 4.35505
103 1 0.77424 8.36256 0.473196
104 1 4.26361 8.93907 9.13061
105 1 7.41651 8.79968 5.41468
106 1 7.9406 2.07153 7.43517
107 1 8.70434 7.75141 1.1445
108 1 9.20167 1.2444 6.65818
109 1 6.29943 4.05778 3.7012
110 1 8.52905 5.80223 7.1788
111 1 4.40094 6.61326 1.26099
112 1 6.14531 0.836595 8.94198
113 1 4.01859 4.28578 8.07713
114 1 2.6581 7.35633 3.19394
115 1 4.36064 9.13405 5.0299
116 1 4.99718 3.79378 7.98883
117 1 8.56554 5.65082 0.907111
118 1 8.48337 3.09575 7.50639
119 1 7.42983 6.92836 4.5223
120 1 2.7012 5.68063 2.24887
121 1 5.22964 7.61156 6.87986
122 1 0.670617 7.63333 9.08493
123 1 0.60907 8.24656 7.01398
124 1 6.54482 0.0564984 5.96619
125 1 5.52042 4.94888 6.65013
126 1 0.350921 5.06712 1.85554
127 1 1.62014 8.07227 4.78675
128 1 4.74262 8.56279 7.08871
129 1 3.3613 3.23407 1.20023
130 1 3.68133 7.0594 6.41613
131 1 8.77806 1.93634 4.64007
132 1 7.48077 3.74399 3.79669
133 1 5.97361 7.71251 2.02446
134 1 3.77521 8.3885 5.43784
135 1 4.38393 0.914036 3.87586
136 1 1.38956 1.68031 7.54702
137 1 3.27367 4.98571 0.522277
138 1 6.5646 4.16593 7.7157
139 1 9.33781 5.67485 4.41981
140 1 3.20084 5.51934 5.01436
141 1 3.73018 9.00732 7.55779
142 1 0.763499 2.60733 9.37882
143 1 3.96868 6.66315 0.203484
144 1 2.91598 3.7991 6.06957
145 1 5.94852 4.50116 8.65105
146 1 7.7822 1.47247 2.22349
147 1 3.87289 8.77569 6.50881
148 1 4.18841 3.50412 7.39442
149 1 8.69714 6.40243 3.00359
150 1 5.48623 9.3298 1.23616
151 1 0.722727 7.24614 4.44707
152 1 5.00228 7.19567 8.72565
153 1 0.488338 5.10317 0.0938317
154 1 6.51925 5.06863 9.31359
155 1 7.01221 6.29437 2.2015
156 1 4.75167 0.364394 2.98357
157 1 5.15006 4.17237 6.08706
158 1 3.89643 5.51769 9.1703
159 1 0.850664 6.97985 3.29984
160 1 6.27595 7.73578 6.40866
161 1 0.598764 4.18818 0.813715
162 1 0.654778 0.579767 8.94605
163 1 0.179651 4.4517 5.67503
164 1 4.99473 7.74374 3.43555
165 1 7.97327 -0.0253654 1.12063
166 1 6.77206 6.13227 4.32226
167 1 5.27888 7.17996 1.44611
168 1 6.70936 5.34522 8.19437
169 1 2.95062 5.54415 8.57192
170 1 1.71202 1.17731 6.09405
171 1 9.17832 3.35455 3.10698
172 1 2.37075 3.75975 9.05066
173 1 7.64951 6.60111 9.0197
174 1 8.76977 3.79435 5.38983
175 1 6.57123 0.10163 2.2525
176 1 1.34541 2.03955 6.54263
177 1 5.19648 9.38064 0.139651
178 1 8.43629 4.75986 5.21783
179 1 5.65541 8.89998 4.34587
180 1 0.0678241 0.844168 5.20868
181 1 6.19712 7.74988 0.996287
182 1 3.19296 1.85663 4.56614
183 1 1.65418 6.7287 6.70997
184 1 2.02404 2.13026 8.30249
185 1 2.65464 6.84845 8.324
186 1 1.72391 4.37155 5.17211
187 1 3.19233 1.95232 8.48167
188 1 3.7614 5.84817 0.75927
189 1 1.9199 4.03939 3.63595
190 1 7.70848 5.60079 1.5818
191 1 4.58797 6.12989 8.83838
192 1 0.580279 4.44518 7.48144
193 1 3.19357 4.75911 7.77955
194 1 3.19549 2.97948 8.73133
195 1 9.15172 0.20442 3.70365
196 1 2.93368 0.699811 2.1511
197 1 1.69029 6.27378 5.75602
198 1 2.36849 4.45094 0.518745
199 1 0.97475 5.99368 6.98168
200 1 2.91414 8.63591 6.99706
201 1 0.937788 6.79434 0.323168
202 1 8.3147 1.74628 3.77794
203 1 3.26897 5.96519 7.59208
204 1 3.45775 3.05852 6.70255
205 1 7.33897 8.05182 6.33958
206 1 1.00035 2.5065 5.60014
207 1 7.57519 2.74201 0.96763
208 1 7.77919 4.2352 5.76801
209 1 5.16171 1.87566 7.25277
210 1 1.72624 1.84023 9.25735
211 1 0.16121 2.33312 2.8794
212 1 5.4927 6.67186 3.46643
213 1 2.0133 1.36635 5.01836
214 1 8.47158 3.0891 0.0994144
215 1 2.69663 7.35932 4.26559
216 1 4.16779 6.08396 6.58356
217 1 7.40398 0.601328 0.545295
218 1 4.90945 4.30622 1.68322
219 1 6.05696 5.48195 0.821493
220 1 0.294649 1.59687 1.17766
221 1 8.12632 0.0150543 4.81087
222 1 5.86762 4.77596 1.7132
223 1 3.29057 8.95322 1.68403
224 1 7.73347 8.28438 2.88735
225 1 5.25449 5.8623 6.28819
226 1 0.574351 7.24265 2.16192
227 1 4.39337 7.55112 0.769368
228 1 5.96585 3.46353 8.44376
229 1 0.571419 7.24096 8.07433
230 1 3.93103 2.36275 1.13341
231 1 9.36124 6.4318 7.62663
232 1 5.50902 5.28049 9.35475
233 1 7.61944 6.96178 8.00607
234 1 3.5536 8.37657 0.294268
235 1 6.86534 6.7847 6.43717
236 1 0.0696814 8.78812 7.79302
237 1 8.0441 1.00273 1.36483
238 1 7.89449 9.06232 8.49524
239 1 4.39658 7.92003 6.29052
240 1 5.12089 1.3264 5.17676
241 1 2.17646 6.46287 2.75033
242 1 8.30781 2.87073 4.75465
243 1 2.42871 8.15215 0.179514
244 1 5.67459 8.56339 8.90053
245 1 6.45906 3.85074 2.41456
246 1 0.863642 6.58517 1.38564
247 1 5.88263 3.08067 3.36712
248 1 5.85727 8.88796 5.46874
249 1 2.9116 4.62175 8.92531
250 1 4.98385 6.55476 6.97887
251 1 6.93555 1.93942 6.8855
252 1 1.42138 2.17863 4.6856
253 1 0.167907 5.82005 5.61057
254 1 7.6532 1.69267 0.652373
255 1 5.11343 2.96511 8.92795
256 1 1.41951 3.72127 8.46121
257 1 4.60554 0.463839 0.925384
258 1 1.97803 0.669054 2.79349
259 1 2.9581 6.27442 0.0811888
260 1 3.27383 2.06758 6.43879
261 1 6.73331 4.06312 9.33347
262 1 6.03587 0.741362 1.63272
263 1 5.3825 4.91066 3.78502
264 1 6.78617 5.47607 5.54279
265 1 5.35028 3.6995 4.00307
266 1 6.96892 7.32273 2.70603
267 1 4.45347 1.9092 2.48342
268 1 5.34711 0.0116316 7.3474
269 1 3.25702 4.25485 1.23281
270 1 8.22626 9.08782 3.68149
271 1 6.62003 6.12852 0.163704
272 1 9.42435 0.499893 2.6792
273 1 8.54244 2.34577 2.81167
274 1 5.95216 7.03701 7.42437
275 1 4.62944 7.79499 5.21784
276 1 0.173995 6.15196 3.46104
277 1 3.57562 2.07388 3.02629
278 1 2.23359 5.74111 7.21575
279 1 2.41215 8.35916 4.04117
280 1 4.21719 2.05965 3.9208
281 1 6.16811 8.74873 3.22664
282 1 0.264056 8.95867 2.24167
283 1 8.70099 8.06927 3.69998
284 1 7.5973 7.72388 3.79347
285 1 5.52827 9.16299 2.43167
286 1 0.944731 1.65853 8.44297
287 1 3.82782 7.93409 7.22317
288 1 2.70912 0.498816 0.310263
289 1 6.80817 1.90935 5.65058
290 1 1.39152 6.90887 8.78038
291 1 4.30428 3.78972 0.459856
292 1 0.395142 7.60919 5.52213
293 1 2.08305 8.87827 5.49073
294 1 8.79969 4.86414 7.5514
295 1 7.80137 4.82034 7.60862
296 1 5.9789 6.77249 0.702149
297 1 4.48149 3.63489 2.47274
298 1 3.64751 6.24725 5.69028
299 1 5.91354 7.69798 3.11292
300 1 7.80655 2.60225 2.10064
301 1 0.894803 0.860371 6.81789
302 1 7.86529 0.283423 5.83912
303 1 1.51527 8.44424 9.04816
304 1 6.7982 5.3823 2.56378
305 1 5.11989 1.32411 0.471936
306 1 7.18714 8.77638 3.66257
307 1 7.27391 8.95384 0.307579
308 1 7.655 0.47085 6.9456
309 1 9.37952 5.88288 8.74232
310 1 4.47605 4.92859 6.32905
311 1 8.56865 8.02335 2.1504
312 1 3.5479 5.19897 1.65768
313 1 7.14478 0.685171 1.69594
314 1 7.12367 4.43103 3.12029
315 1 3.22592 4.54354 5.22661
316 1 1.55821 4.80438 4.23488
317 1 9.01139 2.26522 7.37113
318 1 7.68772 6.46512 7.03202
319 1 4.5113 0.311178 6.54296
320 1 6.16703 4.55601 5.6285
321 1 1.68214 1.92415 3.63703
322 1 1.50485 6.51986 4.06831
323 1 3.79187 7.65907 4.49413
324 1 3.71593 3.62246 5.45832
325 1 4.40393 4.76868 3.3473
326 1 7.98452 2.01191 5.32997
327 1 4.07728 1.35977 8.8162
328 1 6.75896 2.8414 8.7989
329 1 8.64897 2.12316 9.14106
330 1 4.29813 0.322171 8.40658
331 1 4.05297 1.27755 4.83482
332 1 2.68759 1.01285 6.50966
333 1 7.64004 4.76159 2.22301
334 1 1.08573 7.54621 6.24897
335 1 7.43741 1.16344 3.33243
336 1 0.702897 5.10688 5.04564
337 1 5.78102 5.97797 7.17206
338 1 0.0572821 0.481044 8.14652
339 1 9.19789 4.25144 6.76176
340 1 2.26059 9.29258 3.55286
341 1 9.27898 8.81512 6.36567
342 1 7.91562 5.7991 2.7032
343 1 4.59826 5.45733 1.57076
344 1 0.324865 0.404295 6.0928
345 1 5.44177 7.96865 5.89991
346 1 7.16458 5.27106 0.636933
347 1 5.03356 3.22493 6.77221
348 1 7.33226 3.88483 6.7669
349 1 7.61409 3.46348 8.89854
350 1 3.78609 3.92252 4.29851
351 1 7.86341 6.9135 2.29478
352 1 0.761518 8.67969 5.80556
353 1 9.31131 2.61991 5.31673
354 1 1.29641 7.48432 7.34623
355 1 1.06315 5.7884 0.734894
356 1 3.32035 1.48717 7.38033
357 1 0.196676 3.22919 8.65394
358 1 6.52724 7.31037 4.75443
359 1 4.22866 6.2841 7.66419
360 1 2.48193 3.80819 1.80711
361 1 4.80376 2.25639 4.92455
362 1 4.39222 1.41326 1.47122
363 1 7.10095 4.13111 1.49564
364 1 2.51337 3.49614 7.11755
365 1 1.13057 1.83673 0.645716
366 1 6.13818 8.71602 1.71891
367 1 1.60991 4.1229 1.17631
368 1 3.55002 0.455571 5.26798
369 1 8.52652 6.08219 9.31379
370 1 7.77793 0.644481 8.03464
371 1 3.42729 5.87434 3.9691
372 1 4.10396 2.3988 8.62457
373 1 6.71543 7.09455 1.68628
374 1 9.078 6.72649 5.82659
375 1 4.81098 5.44245 7.27916
376 1 2.83104 8.7882 8.04751
377 1 2.24596 7.63781 6.77238
378 1 5.88674 0.778344 0.595853
379 1 6.38695 2.88378 5.28003
380 1 4.58599 4.42216 7.22502
381 1 4.52958 9.04868 1.73225
382 1 4.98458 6.13311 4.89627
383 1 8.78937 8.15631 7.08248
384 1 3.02967 0.425417 3.18685
385 1 4.86217 8.08951 9.3634
386 1 8.9077 5.1395 6.14539
387 1 9.15257 1.51282 3.17231
388 1 6.5362 2.34932 0.308008
389 1 6.85945 2.82534 6.29989
390 1 2.65614 4.7241 3.31412
391 1 6.96869 1.41161 9.28044
392 1 3.35943 1.90773 0.0962983
393 1 2.43086 4.91174 1.44221
394 1 8.62203 4.95258 1.81058
395 1 0.547334 8.84639 8.87475
396 1 2.70806 2.14536 3.61237
397 1 6.30641 4.48433 0.752752
398 1 8.48128 4.21647 2.55313
399 1 6.36448 2.19688 3.0621
400 1 3.65116 7.21871 2.55991
401 1 4.31905 2.03882 6.73386
402 1 1.37675 4.88779 0.489457
403 1 4.11657 4.69221 2.35105
404 1 0.333088 5.45375 7.57207
405 1 5.39113 4.1968 4.92861
406 1 8.16213 9.39141 0.056473
407 1 6.1267 8.90933 7.94518
408 1 1.77509 2.95747 9.18413
409 1 2.97819 3.44422 4.71869
410 1 0.586141 2.40523 7.3529
411 1 5.70068 7.88563 4.85098
412 1 0.505845 0.333349 4.47946
413 1 1.74097 7.12035 1.74153
414 1 6.16627 1.84406 8.85468
415 1 9.01969 0.693269 9.18999
416 1 0.489829 0.742421 0.579215
417 1 9.29622 4.5742 4.58735
418 1 3.10619 2.55102 5.47579
419 1 6.83613 3.06673 1.86098
420 1 0.873349 4.08243 4.76877
421 1 5.92219 5.65036 5.00118
422 1 8.7344 2.76921 6.22918
423 1 9.20051 3.44955 4.40666
424 1 5.01977 8.235 2.47734
425 1 1.84415 3.76918 6.37806
426 1 4.866 0.886478 7.82487
427 1 8.31009 3.67866 6.60601
428 1 2.67283 6.93663 6.13959
429 1 5.72749 0.787146 2.58742
430 1 6.10728 4.77414 4.47302
431 1 7.7988 2.13707 6.31563
432 1 5.51704 0.16835 8.39998
433 1 2.31406 7.06523 5.19672
434 1 7.62281 8.19421 9.14357
435 1 1.53035 3.93191 0.185695
436 1 0.031529 6.43105 0.290547
437 1 7.50888 7.75916 1.90582
438 1 1.55741 7.5928 0.400351
439 1 2.0323 8.23209 3.03936
440 1 6.09525 6.80528 2.47737
441 1 5.28952 2.32897 2.81359
442 1 6.27858 3.80321 4.73579
443 1 1.86877 6.10077 1.57768
444 1 8.51301 6.39236 3.99663
445 1 5.49376 2.24821 0.125274
446 1 8.15238 1.19187 6.14998
447 1 1.15926 4.71731 3.34947
448 1 9.3556 7.94858 8.38926
449 1 3.21522 3.6916 7.82276
450 1 3.83737 5.17367 7.09167
451 1 5.42642 7.96697 7.95099
452 1 4.05605 7.48862 8.99843
453 1 2.28848 9.31473 6.53533
454 1 3.94495 8.29714 8.3469
455 1 8.50978 5.24997 4.30634
456 1 8.23785 4.0152 4.51701
457 1 6.28729 9.29315 0.0163398
458 1 2.55579 6.42228 3.73273
459 1 8.726 4.02766 0.665597
460 1 7.60604 2.93294 7.00928
461 1 8.17083 3.97731 1.61282
462 1 3.92105 8.24475 1.34227
463 1 4.46701 2.0743 0.108208
464 1 9.13732 3.88908 7.85628
465 1 1.87008 8.3523 7.50431
466 1 3.58149 0.506682 9.24823
467 1 6.06496 1.20448 3.59282
468 1 9.25568 7.80237 4.55156
469 1 7.59665 1.34746 4.52408
470 1 9.32803 3.22724 6.99803
471 1 4.85831 8.85447 5.99284
472 1 7.78572 2.73823 3.78674
473 1 4.83201 2.85498 0.658394
474 1 8.77686 0.387006 1.85279
475 1 2.45747 1.20809 7.936
476 1 0.21762 1.4381 7.63844
477 1 3.22316 1.16895 0.992182
478 1 3.7184 9.3217 0.726535
479 1 1.1065 2.77734 2.98694
480 1 6.70127 3.08987 7.70829
481 1 3.623 6.27201 1.82547
482 1 1.65827 5.36361 5.35238
483 1 5.82916 5.78115 3.91357
484 1 5.56679 0.252822 6.24552
485 1 4.90013 4.89871 8.56252
486 1 8.94062 2.61852 3.81897
487 1 8.96663 5.38188 2.66521
488 1 7.65427 6.78239 3.34523
489 1 2.3446 1.6794 1.91172
490 1 4.7491 8.34254 4.33745
491 1 7.33768 0.363329 3.97698
492 1 8.29235 6.11861 6.20609
493 1 5.80457 1.24851 8.06965
494 1 7.00575 2.0175 3.948
495 1 4.41139 3.71629 3.53596
496 1 2.93577 1.44169 5.50266
497 1 1.63623 0.826823 0.478383
498 1 0.405309 9.17042 1.05801
499 1 3.42713 2.82234 3.90233
500 1 5.63209 6.35011 8.93994
501 1 5.71444 8.65434 6.69962
502 1 1.13112 3.76939 2.94229
503 1 4.75052 7.00187 6.08698
504 1 4.94051 0.526072 1.90798
505 1 7.3836 5.61526 9.00681
506 1 1.31273 7.17006 5.29521
507 1 7.14221 0.328424 8.94335
508 1 3.51701 7.2563 1.42608
509 1 8.75409 1.3074 8.33185
510 1 0.47613 1.82622 4.92138
511 1 7.73189 5.35479 6.00208
512 1 9.42535 7.74242 2.86636
513 1 1.52453 7.63831 3.81915
514 1 8.19358 6.88289 5.31811
515 1 5.85991 6.60763 4.51949
516 1 4.31494 6.49147 4.15526
517 1 8.96235 0.280118 0.777976
518 1 3.39316 0.858765 8.25628
519 1 1.96282 3.57162 4.571
520 1 2.82519 2.6386 7.43446
521 1 8.28616 8.4054 4.55993
522 1 4.29909 2.82735 5.94543
523 1 1.68558 5.40479 2.4986
524 1 6.36043 5.06695 7.25326
525 1 8.5857 3.08572 8.52638
526 1 4.22056 4.75009 0.87314
527 1 5.41068 7.05046 5.30104
528 1 4.61931 4.48266 4.39743
529 1 6.10126 0.923303 5.65413
530 1 6.70583 6.35032 7.42132
531 1 8.74637 7.26255 7.76867
532 1 4.75387 5.79589 0.52326
533 1 7.60275 0.0287894 2.92434
534 1 6.79658 8.40996 2.46479
535 1 8.0761 7.89835 5.47349
536 1 -0.00421218 5.04717 3.6242
537 1 0.169843 1.60904 9.37728
538 1 3.82366 1.21447 6.38088
539 1 5.32483 2.31898 6.3425
540 1 1.18635 3.08192 0.752603
541 1 0.1309 3.36696 0.29047
542 1 9.1471 2.40471 0.572728
543 1 3.13997 8.02156 6.16121
544 1 4.8792 8.74961 3.37308
545 1 7.60795 4.78033 4.08428
546 1 3.25026 6.57801 4.72437
547 1 8.79432 7.62386 6.17238
548 1 7.35867 8.05527 4.72203
549 1 4.49789 0.570056 5.57164
550 1 8.42531 7.30633 4.34438
551 1 3.84773 2.87112 0.228676
552 1 0.683965 3.3352 7.69364
553 1 7.84864 3.03956 5.64653
554 1 0.883169 4.11171 6.55166
555 1 5.72606 2.11236 5.34932
556 1 1.54384 3.86272 7.39973
557 1 0.168303 6.20521 2.19669
558 1 3.95356 1.85257 5.68644
559 1 4.42907 6.75056 3.12332
560 1 2.00099 2.21084 5.63258
561 1 0.413769 4.08202 3.75737
562 1 6.72272 3.75236 5.89357
563 1 5.06171 4.99914 2.52031
564 1 6.4536 7.93699 7.97899
565 1 8.94949 1.77606 5.67788
566 1 3.97056 8.28024 2.52159
567 1 7.91978 7.77087 7.29067
568 1 4.04053 5.33037 8.15121
569 1 6.12227 2.2855 1.93495
570 1 7.69708 7.04981 1.21868
571 1 7.49513 5.86365 7.94031
572 1 3.27052 6.27862 2.83753
573 1 7.22076 2.53557 4.81606
574 1 2.80783 9.17345 4.71203
575 1 5.99725 3.81935 1.48721
576 1 7.6842 2.69642 8.22746
577 1 4.86555 8.82524 8.21344
578 1 4.91676 1.25828 6.31716
579 1 8.3649 0.943733 5.17959
580 1 0.653921 8.34875 4.84391
581 1 2.29517 0.474067 5.61282
582 1 5.29207 3.85302 0.824993
583 1 1.25862 0.337112 1.28858
584 1 0.241204 3.30036 1.25109
585 1 8.70804 6.79718 6.88301
586 1 5.02456 2.53506 1.7708
587 1 4.63889 7.33387 7.75633
588 1 1.09782 7.74364 1.29739
589 1 2.59973 4.36966 4.42031
590 1 1.72887 6.53036 7.77625
591 1 2.7341 9.13811 2.49573
592 1 9.24584 4.90496 0.941895
593 1 8.77278 1.46225 0.656678
594 1 4.80305 -0.0011741 4.09992
595 1 5.81412 2.92102 1.05991
596 1 0.630816 4.12109 9.05304
597 1 8.58268 0.192407 7.69885
598 1 8.04965 4.67323 6.71718
599 1 2.12594 3.43045 2.77652
600 1 2.76058 8.03357 1.17531
601 1 9.00254 8.78792 0.263559
602 1 3.26586 7.43118 0.425164
603 1 8.893 0.0458962 5.53788
604 1 7.28278 9.08004 6.44536
605 1 2.27275 3.08001 8.17325
606 1 9.18258 6.65064 4.80983
607 1 2.02751 6.01702 8.65052
608 1 9.0778 7.74243 0.0157694
609 1 2.6128 0.358713 8.59585
610 1 1.35413 0.0733194 6.0784
611 1 2.97943 4.59819 2.31699
612 1 8.26366 5.3098 8.47674
613 1 6.80326 8.69064 8.69237
614 1 1.04098 0.769253 7.92268
615 1 8.93301 8.78538 2.94949
616 1 7.65796 4.62106 9.27775
617 1 3.59799 4.16122 3.08217
618 1 6.71733 5.25304 3.65126
619 1 5.13261 4.01337 9.1456
620 1 9.17608 4.01087 1.73902
621 1 6.82348 8.41456 7.08562
622 1 5.62008 1.89663 4.20001
623 1 2.9825 8.39074 3.2388
624 1 7.64934 5.76451 3.88921
625 1 3.48275 3.7218 2.13889
626 1 8.29299 4.99006 3.30006
627 1 9.28167 7.09739 3.73006
628 1 0.880543 4.04934 2.02217
629 1 8.92948 9.14215 8.69133
630 1 2.04646 9.1852 9.33169
631 1 0.848226 8.14124 2.592
632 1 6.42599 6.49994 5.53964
633 1 0.546091 9.11696 3.24066
634 1 3.83965 9.35476 2.46929
635 1 5.82988 1.87177 1.09874
636 1 6.55644 6.30444 3.3208
637 1 4.22487 3.83888 6.36355
638 1 0.939437 6.1068 4.88573
639 1 8.75297 4.11614 3.64449
640 1 5.78599 2.40603 7.99851
641 1 1.63571 0.949296 8.82006
642 1 9.24762 2.4005 1.76075
643 1 3.3922 0.222887 6.57693
644 1 0.875501 3.05047 4.66284
645 1 2.86266 2.28818 1.16275
646 1 5.21308 6.4715 8.00032
647 1 8.27324 8.62613 6.25678
648 1 6.14889 1.66521 6.38248
649 1 8.40604 7.44211 2.9526
650 1 5.27092 3.07979 5.49534
651 1 8.72953 4.89915 0.0336924
652 1 5.81929 6.73212 6.36497
653 1 6.82774 1.01299 8.23746
654 1 7.73605 6.24273 0.563583
655 1 2.95035 7.85461 8.77019
656 1 4.07541 1.22224 0.438005
657 1 6.5825 8.1125 5.53892
658 1 0.756849 6.65561 6.10585
659 1 8.28637 4.17213 8.34595
660 1 2.3337 4.65374 7.08241
661 1 1.55713 1.56651 2.58183
662 1 1.54112 8.51695 6.53762
663 1 2.75906 7.81898 7.63784
664 1 3.9073 1.01479 2.71183
665 1 2.33965 7.06875 9.26464
666 1 8.17129 3.28515 3.03318
667 1 5.7653 7.52011 9.3257
668 1 5.20987 4.89451 0.908952
669 1 6.94829 4.77979 6.30427
670 1 5.33344 0.226565 5.04717
671 1 0.389544 8.14889 3.70846
672 1 5.16667 5.06107 5.52722
673 1 7.00794 1.0217 6.18247
674 1 1.56189 3.33475 1.83017
675 1 1.34064 0.316534 3.70463
676 1 6.1467 5.90086 1.94626
677 1 5.55975 4.60828 7.67815
678 1 8.72191 3.21038 2.16762
679 1 3.80726 2.56386 7.58376
680 1 2.39777 5.39414 0.0451574
681 1 5.03051 7.27266 4.38423
682 1 5.63912 3.17622 2.35089
683 1 5.36539 1.54281 1.98122
684 1 6.64583 8.08821 0.149285
685 1 7.63621 5.47379 4.90232
686 1 2.1268 7.90515 5.79954
687 1 2.3593 4.70615 5.91738
688 1 8.5934 0.404916 6.59465
689 1 8.33874 0.724877 4.0827
690 1 7.31049 7.94362 0.935779
691 1 3.64824 7.26361 7.94336
692 1 8.38475 6.36194 8.20377
693 1 1.82703 5.6245 3.48931
694 1 2.42095 6.93931 0.884775
695 1 4.14613 1.64713 7.82529
696 1 0.160646 5.82214 1.14047
697 1 6.25758 4.13713 6.68027
698 1 8.34431 1.2075 7.28291
699 1 -0.00916563 6.00476 6.57827
700 1 8.80163 1.42062 2.09439
701 1 7.01795 9.41567 7.84494
702 1 1.08826 0.771305 5.29658
703 1 2.08897 8.26978 1.92348
704 1 2.58646 5.32705 4.22105
705 1 5.64886 1.03324 6.99613
706 1 2.37733 2.52904 4.66498
707 1 1.24994 3.48404 5.62644
708 1 5.17789 8.26652 1.43289
709 1 4.34577 3.42238 1.47248
710 1 3.90753 2.60842 4.80628
711 1 2.85201 0.284328 7.47444
712 1 8.74009 6.71055 0.931293
713 1 4.3821 5.5266 4.19003
714 1 3.6603 8.62821 4.37882
715 1 6.03311 4.8114 2.89299
716 1 6.40541 5.81023 6.41266
717 1 3.02106 9.0284 5.85713
718 1 5.39242 6.1551 1.26336
719 1 2.80978 0.902829 4.63102
720 1 5.66499 5.52197 8.17594
721 1 2.75091 6.80896 2.00862
722 1 3.09655 8.95939 9.04137
723 1 4.21832 3.52891 8.81569
724 1 1.5958 9.05557 2.69243
725 1 9.2195 8.9649 4.56156
726 1 2.30393 2.69248 6.49509
727 1 7.20089 4.46623 8.46241
728 1 0.952011 3.14483 6.58712
729 1 0.463892 3.06324 3.73422
730 1 8.46645 8.35724 8.01931
731 1 9.32649 4.93885 8.51612
732 1 5.13398 7.17604 2.54046
733 1 0.860192 5.52729 3.98055
734 1 3.81808 9.02606 3.47867
735 1 0.182601 8.03579 1.69959
736 1 2.73725 8.97129 0.755542
737 1 3.42743 5.27956 3.02573
738 1 0.823395 6.15256 8.13293
739 1 1.66065 2.70857 7.38102
740 1 6.8127 5.1489 1.58074
741 1 6.63515 1.3789 2.50978
742 1 0.252097 2.30156 6.37505
743 1 6.53391 -0.00706272 0.983045
744 1 3.80559 0.511964 1.64131
745 1 2.15058 3.20922 0.989268
746 1 4.95145 2.7202 3.90344
747 1 1.10135 8.71744 1.73904
748 1 3.50855 5.19339 6.09304
749 1 8.88322 8.82876 1.45758
750 1 8.16895 8.99986 2.28203
751 1 3.54664 6.39212 8.59201
752 1 7.55897 2.12687 2.99398
753 1 6.06439 2.57203 7.02172
754 1 1.10506 2.77907 8.38108
755 1 4.54192 8.75846 0.673277
756 1 2.35795 4.11574 8.03207
757 1 8.54738 6.08895 1.90237
758 1 6.67201 3.06903 4.02474
759 1 5.88954 3.29141 6.21694
760 1 4.63395 3.44893 4.76012
761 1 0.214911 0.229764 7.20528
762 1 6.82698 6.15424 1.15493
763 1 7.56116 3.69131 7.8195
764 1 2.66389 6.75414 7.26532
765 1 1.25056 9.24818 7.33255
766 1 8.92828 3.9448 9.00464
767 1 5.83255 3.52744 7.395
768 1 7.96543 4.74161 0.930562
769 1 7.08752 4.54791 5.04393
770 1 9.18716 6.95172 8.6696
771 1 1.35853 1.33094 1.55982
772 1 3.5938 0.366186 4.22642
773 1 3.51767 7.03663 3.72325
774 1 4.82546 2.75257 7.84617
775 1 5.08704 6.13981 2.26344
776 1 4.30713 2.76489 3.13042
777 1 4.91735 5.64891 3.24551
778 1 2.32653 0.729303 1.29001
779 1 7.10952 2.05396 1.60506
780 1 6.60167 0.47785 3.20207
781 1 1.32443 5.08399 1.55176
782 1 9.14934 8.40654 5.4492
783 1 1.69261 5.45516 6.36474
784 1 0.648077 0.953362 3.35023
785 1 7.22162 8.81795 1.56429
786 1 0.511176 2.01602 3.81035
787 1 8.92317 7.01739 2.10263
788 1 8.29426 2.06323 1.40662
789 1 7.80644 1.71515 8.47486
790 1 0.938555 2.34198 1.93733
791 1 5.05978 0.947502 8.86895
792 1 2.14958 5.15016 8.01763
793 1 6.685 1.2819 0.904713
794 1 2.80349 5.91183 1.05562
795 1 4.28448 5.43979 5.32665
796 1 7.26704 3.55521 4.77831
797 1 2.75697 2.88058 0.329109
798 1 1.87301 0.672643 7.18893
799 1 2.28304 1.05481 3.76094
800 1 1.02639 0.476661 2.359
801 2 3.08137 9.16262 3.89259
802 2 8.72431 4.28782 6.09039
803 2 6.6432 0.624503 0.145384
804 2 6.27455 0.737437 6.5409
805 2 3.91957 5.9705 4.77846
806 2 3.16364 7.95259 3.94763
807 2 0.867665 1.84053 3.0295
808 2 9.0752 0.831559 7.39057
809 2 8.89381 7.48839 5.22069
810 2 2.36039 8.48227 6.37991
811 2 4.73912 1.16621 2.50202
812 2 0.445012 6.45845 4.27695
813 2 6.39362 2.37866 4.56577
814 2 -0.0162629 4.30244 0.230708
815 2 0.158186 2.61227 4.41828
816 2 1.27125 8.0119 5.52026
817 2 4.61946 8.94606 2.58881
818 2 4.71918 4.88086 0.120078
819 2 1.06225 4.65293 5.69532
820 2 0.553853 6.62648 8.87361
821 2 0.627099 1.65631 6.91412
822 2 3.26469 6.62762 0.855581
823 2 2.50085 4.03239 5.25755
824 2 1.98324 7.6872 1.16773
825 2 6.09128 1.57412 0.26313
826 2 6.77288 3.66264 8.54234
827 2 0.485015 2.4349 0.988482
828 2 1.2502 1.69206 5.49756
829 2 6.75981 7.04224 7.95875
830 2 7.10335 4.61734 7.09285
831 2 3.88651 3.19717 8.17813
832 2 7.97948 5.40719 0.328344
833 2 4.25905 2.8634 6.81437
834 2 8.321 1.52788 2.88976
835 2 8.02352 8.40465 1.5427
836 2 4.45455 0.402933 9.29875
837 2 0.584903 4.00088 8.2343
838 2 1.18877 2.58379 3.97037
839 2 8.25583 4.10954 7.39254
840 2 6.88238 5.31623 4.57145
841 2 8.21157 0.685201 0.571222
842 2 6.95268 2.26478 2.40943
843 2 2.51454 2.27302 9.00857
844 2 4.81659 5.70892 8.09524
845 2 1.97603 0.483031 7.98498
846 2 3.72018 3.37281 3.23092
847 2 1.22133 6.2109 3.26818
848 2 8.91352 5.75276 8.00989
849 2 4.85769 1.98844 5.68969
850 2 0.793528 9.28462 8.06634
851 2 4.29561 1.51722 3.25239
852 2 8.20598 3.98883 9.29523
853 2 7.04413 2.09876 8.78301
854 2 6.37062 1.49899 1.63643
855 2 6.89505 1.09626 3.96791
856 2 7.83878 0.512487 2.15377
857 2 2.94557 5.26553 7.13472
858 2 2.30007 8.47839 8.71277
859 2 7.97987 6.24183 4.70398
860 2 8.9069 0.340568 4.59444
861 2 6.50083 3.34148 6.89462
862 2 0.816408 6.73775 7.37491
863 2 6.17571 0.211079 5.14957
864 2 7.32628 3.08387 0.217814
865 2 1.66002 5.71299 4.45008
866 2 5.41779 5.47784 1.87615
867 2 1.73647 0.559649 1.9449
868 2 2.70875 5.62788 3.29817
869 2 1.83069 7.23257 4.50366
870 2 6.66465 8.58351 0.84438
871 2 4.30329 6.81399 8.35128
872 2 3.59279 4.32072 6.03061
873 2 4.81045 1.56437 4.27899
874 2 4.30735 7.28982 3.85857
875 2 6.14828 5.71922 8.96076
876 2 0.112719 7.85212 7.53646
877 2 5.7826 1.62963 2.77723
878 2 5.07272 3.17836 3.0984
879 2 0.675775 5.04845 1.00943
880 2 1.63221 4.52386 6.57054
881 2 4.53933 9.34177 7.55621
882 2 5.54229 8.16387 3.8879
883 2 6.47603 8.61354 6.352
884 2 1.80276 6.93458 3.41563
885 2 3.96359 4.91066 4.70479
886 2 1.03277 1.33225 9.30629
887 2 1.79148 7.12282 5.9991
888 2 7.51019 3.42065 1.46447
889 2 0.00798163 6.89537 1.35436
890 2 7.91966 2.16297 4.43865
891 2 1.54118 1.06363 3.32314
892 2 2.36633 6.17548 6.48937
893 2 1.94996 5.44165 0.884146
894 2 6.35306 0.0388962 8.54823
895 2 1.60458 2.92003 6.08543
896 2 8.47849 0.476856 8.50785
897 2 5.10851 8.78676 5.05582
898 2 5.31867 7.71965 0.650688
899 2 9.35069 5.11578 6.87555
900 2 3.49803 9.33568 8.38288
901 2 4.17937 3.0185 4.14351
902 2 2.46773 1.84649 6.22558
903 2 8.76627 8.99137 7.07746
904 2 1.63311 2.95883 5.05529
905 2 1.568 6.84169 0.961189
906 2 0.167813 1.26325 8.58404
907 2 1.0537 4.81558 2.41221
908 2 5.15954 3.44446 1.60196
909 2 7.52093 8.91038 4.51697
910 2 3.45415 3.89871 8.62437
911 2 7.97556 4.17282 3.23974
912 2 4.66592 7.95457 8.52338
913 2 4.36342 7.56741 2.79282
914 2 7.46487 6.06365 6.32266
915 2 8.88237 0.844745 5.92374
916 2 9.24062 5.13263 5.25713
917 2 5.62599 4.13748 2.22821
918 2 3.06289 0.295823 1.12358
919 2 9.05701 1.00528 1.2806
920 2 3.20588 6.95418 9.07751
921 2 8.25486 2.39538 0.585561
922 2 6.14358 1.75417 7.39086
923 2 6.00722 6.74112 1.55009
924 2 4.81567 2.00956 0.908109
925 2 5.55402 6.2823 5.57057
926 2 5.90505 3.7472 5.49131
927 2 6.18925 0.530447 7.67898
928 2 2.84721 3.86642 2.73875
929 2 0.840395 8.98126 6.62042
930 2 0.949296 5.80201 1.7914
931 2 6.32607 6.88791 9.15874
932 2 6.00273 8.1549 7.28197
933 2 5.34274 0.91801 1.245
934 2 5.5474 6.03353 0.421894
935 2 6.29419 7.87913 8.72916
936 2 2.05372 8.83082 4.60603
937 2 9.28709 5.6267 0.335586
938 2 7.51521 1.40586 7.71633
939 2 9.34976 2.61764 9.16688
940 2 3.90419 0.030113 5.94204
941 2 5.93726 5.48903 5.83484
942 2 7.41771 5.17672 3.26102
943 2 1.02429 5.84525 6.0221
944 2 4.65307 6.19219 5.71032
945 2 0.0777779 6.8344 2.8347
946 2 -0.0160975 2.82898 7.89196
947 2 8.81452 5.70071 3.62902
948 2 8.35231 8.80695 5.3253
949 2 1.92479 2.43962 0.489448
950 2 2.91361 2.16339 2.43459
951 2 2.54073 6.01271 7.95339
952 2 3.55757 6.65083 7.17218
953 2 1.46242 5.69585 7.75311
954 2 2.48097 5.01174 5.04571
955 2 5.38072 4.12046 6.94438
956 2 4.0176 4.29807 1.59153
957 2 2.33004 7.5273 2.35291
958 2 7.15375 4.41124 0.555233
959 2 3.88584 0.446365 3.42011
960 2 6.07544 6.33291 7.97089
961 2 2.07256 7.24819 7.49787
962 2 0.984885 3.37434 9.16693
963 2 0.206372 7.91719 6.33488
964 2 8.45778 2.21112 8.11031
965 2 5.12046 5.33204 4.71371
966 2 6.75054 8.05248 1.64155
967 2 0.36066 3.55121 5.1349
968 2 0.645615 4.76695 4.26838
969 2 1.18311 3.68082 4.06826
970 2 6.13354 2.46728 6.06637
971 2 1.95413 0.0853479 0.820128
972 2 4.41507 6.66243 2.21112
973 2 1.37492 0.153297 8.8598
974 2 0.517113 8.90606 4.07456
975 2 5.83572 2.67557 8.84216
976 2 8.62211 1.87244 6.55581
977 2 0.504987 9.27568 5.25385
978 2 1.58 4.45828 7.96795
979 2 3.0883 7.49745 6.95096
980 2 6.64261 4.59609 2.23839
981 2 7.41691 1.3019 5.53564
982 2 4.40763 7.20037 6.89045
983 2 2.08468 9.18527 7.40218
984 2 5.84355 4.21769 0.0891772
985 2 5.92385 8.41176 2.51496
986 2 0.190016 0.0689133 9.41611
987 2 6.76671 8.04042 3.3451
988 2 6.21174 7.34341 5.62138
989 2 8.4739 8.47584 9.01267
990 2 4.44786 0.541368 4.67354
991 2 0.507265 6.79209 5.19125
992 2 6.41488 9.16654 3.93464
993 2 4.08672 5.88802 3.37599
994 2 5.79573 7.38735 4.00694
995 2 2.18404 1.76374 4.26694
996 2 8.43023 3.35864 3.96368