#bin. KALJ data file T=0.5

1000 atoms
2 atom types

0 9.4 xlo xhi
0 9.4 ylo yhi
0 9.4 zlo zhi

Masses

1 1.0
2 1.0

Atoms

1 1 3.59275 6.23145 2.65081
2 1 3.41065 4.80217 3.68039
3 1 3.49618 2.50394 3.75441
4 1 3.26705 4.18213 8.98523
5 1 2.76653 0.108986 2.8905
6 1 3.58879 6.50955 5.59114
7 1 6.64835 5.58789 6.59341
8 1 8.68647 1.41231 7.2815
9 1 0.923555 6.8814 6.41495
10 1 0.456275 5.27008 0.617447
11 1 1.54209 0.460155 5.06256
12 1 0.673218 1.09955 8.68162
13 1 8.91327 7.37864 7.47308
14 1 2.78724 3.6378 6.91104
15 1 9.14515 8.15668 0.537794
16 1 8.59192 7.09222 8.42795
17 1 6.04623 9.41321 0.627645
18 1 6.33731 7.58114 4.13342
19 1 8.81227 6.85422 0.893812
20 1 7.1418 5.24055 8.62588
21 1 8.92261 3.75173 0.179413
22 1 7.92613 9.38358 0.554378
23 1 5.97847 9.10088 8.18018
24 1 1.83314 5.59411 9.09343
25 1 2.84264 7.45965 1.21527
26 1 6.21416 0.312713 2.90752
27 1 8.3429 3.31805 7.55496
28 1 6.94009 3.13287 2.2816
29 1 8.73825 4.44905 7.58146
30 1 9.38324 0.723444 4.58416
31 1 0.424503 1.49012 2.80659
32 1 5.61329 5.3307 6.11959
33 1 8.55266 7.85241 1.28389
34 1 3.03044 8.50091 0.811522
35 1 4.86947 5.83473 5.62286
36 1 3.93042 9.01216 4.26602
37 1 8.81744 5.97353 8.66822
38 1 0.756175 9.02832 1.96713
39 1 4.40656 7.55815 3.20764
40 1 5.09809 0.258756 8.29322
41 1 2.02253 8.6899 6.45871
42 1 2.3911 0.354921 4.5606
43 1 4.74196 1.18849 7.9657
44 1 4.34175 2.56544 3.02232
45 1 1.02823 7.43558 8.5944
46 1 0.769384 4.39199 4.99408
47 1 5.4776 8.32223 2.07464
48 1 5.83588 1.15553 5.01856
49 1 2.30712 4.52915 5.20322
50 1 5.12479 1.95265 3.1774
51 1 5.29806 6.24677 2.01652
52 1 4.58376 7.73625 0.300427
53 1 8.83349 0.386581 0.862643
54 1 7.35274 0.559961 6.55281
55 1 0.180426 5.23118 3.36644
56 1 2.11589 7.3284 4.75144
57 1 3.03197 5.75913 5.0428
58 1 3.87561 5.28311 2.8752
59 1 5.07253 6.27042 6.62189
60 1 3.60161 3.50953 3.71846
61 1 4.16577 4.27085 3.18672
62 1 3.84454 7.40977 1.48184
63 1 9.28967 3.39694 4.62889
64 1 1.9021 8.16883 2.24309
65 1 6.31648 8.95491 1.64001
66 1 1.69744 0.615554 8.82388
67 1 0.61114 5.45315 6.64623
68 1 5.37886 7.62212 5.70061
69 1 8.51201 7.32381 2.28499
70 1 8.68949 4.32432 4.65522
71 1 7.02186 8.42375 7.35745
72 1 2.62265 2.55174 0.0689924
73 1 3.59803 5.36606 1.84429
74 1 6.94116 0.778292 3.49039
75 1 6.65082 2.14407 2.00844
76 1 7.0228 6.7132 6.65609
77 1 3.23191 3.62517 4.77609
78 1 4.15666 6.81923 0.665304
79 1 8.19019 8.17988 7.13159
80 1 9.40353 1.71563 0.692528
81 1 3.15206 3.68853 7.92236
82 1 4.51945 0.126392 0.664069
83 1 7.13361 7.41201 4.98336
84 1 1.24523 6.10486 7.17769
85 1 8.64159 3.95487 6.43903
86 1 5.92789 4.92118 7.84044
87 1 0.681541 1.91981 5.84287
88 1 8.81 1.29798 3.68418
89 1 4.39815 6.79662 2.20298
90 1 5.35639 5.78654 3.75391
91 1 1.01138 5.61145 2.76201
92 1 8.27915 0.421639 1.91721
93 1 3.05841 1.446 4.74901
94 1 2.07214 5.46884 4.57562
95 1 6.77467 6.62724 4.14683
96 1 5.43244 8.12071 6.63165
97 1 0.323421 2.93256 8.47039
98 1 4.62253 8.25419 1.25552
99 1 6.35672 9.27156 5.90412
100 1 4.26111 4.51981 8.71122
101 1 6.3846 4.61226 8.75056
102 1 1.98145 4.00876 3.33672
103 1 5.18314 6.87926 2.85421
104 1 6.32441 8.20782 6.04095
105 1 8.60963 6.57198 2.94896
106 1 0.0251636 8.33427 4.59966
107 1 5.5849 4.71857 3.74951
108 1 8.13889 9.37233 2.89305
109 1 7.61026 5.71572 6.91886
110 1 8.73478 6.39987 7.68786
111 1 5.26884 9.23451 1.26582
112 1 7.48933 2.12327 1.20987
113 1 3.73528 4.56356 7.87737
114 1 5.66506 3.65655 3.67187
115 1 5.56498 2.15166 2.24026
116 1 5.82782 2.70116 8.98149
117 1 8.10875 8.40214 0.480284
118 1 6.95684 2.97119 1.21498
119 1 4.15447 2.0411 5.30104
120 1 1.60824 8.74175 8.0427
121 1 3.97367 2.94484 4.58499
122 1 3.26639 7.91564 4.65898
123 1 4.98035 5.78169 8.9447
124 1 0.531659 0.474548 5.57245
125 1 3.99458 4.45885 5.82359
126 1 6.14013 3.48449 1.5234
127 1 5.47056 8.66698 5.6348
128 1 7.46364 6.87175 5.76704
129 1 7.85414 7.32082 0.749216
130 1 4.41654 3.78767 1.42979
131 1 7.70964 3.08703 3.40843
132 1 6.96992 8.26601 2.41531
133 1 5.30892 2.94672 2.89381
134 1 8.72595 8.22839 9.01729
135 1 7.86599 6.67825 4.6908
136 1 6.65403 2.15699 7.22441
137 1 2.99989 5.17815 5.89738
138 1 6.16969 7.87113 5.10213
139 1 5.37349 2.14409 4.84044
140 1 0.571799 3.39201 9.29119
141 1 3.69652 8.15833 3.66689
142 1 5.31035 0.270158 5.37599
143 1 5.38938 1.79969 0.168869
144 1 4.18597 1.2125 4.4484
145 1 0.633648 2.6008 0.734733
146 1 0.973851 2.48181 2.74306
147 1 7.61148 1.98295 7.97368
148 1 1.44149 5.64936 3.68897
149 1 3.56391 0.983042 1.87731
150 1 0.945642 6.46516 4.1956
151 1 7.27094 7.76785 6.36942
152 1 5.83604 0.506748 4.14142
153 1 1.32788 7.04056 0.261885
154 1 3.57056 4.87204 0.298046
155 1 0.66785 8.06775 3.86428
156 1 5.63577 2.41296 7.54895
157 1 7.27441 6.48406 0.283452
158 1 2.5307 8.95737 7.41355
159 1 2.23022 6.16009 7.88086
160 1 6.05625 6.43008 6.77987
161 1 2.62436 2.75974 7.55321
162 1 0.373421 3.29948 3.51829
163 1 5.83507 1.91482 6.68353
164 1 3.09468 0.610499 7.44298
165 1 9.36246 5.99476 5.86132
166 1 6.36569 7.62853 6.87756
167 1 3.21081 9.16566 0.0673239
168 1 6.85253 5.10963 1.97394
169 1 1.47703 4.83809 0.429831
170 1 6.57738 3.29684 3.49124
171 1 7.0819 8.90919 6.43946
172 1 3.30749 7.50748 8.45163
173 1 2.83126 5.08414 1.00975
174 1 5.11196 3.21627 8.41086
175 1 8.03711 3.97767 0.975046
176 1 1.90107 0.874755 2.62413
177 1 4.35464 5.99809 1.43712
178 1 7.04378 1.61066 2.81754
179 1 7.03651 2.28516 3.83353
180 1 1.46268 1.34981 8.00334
181 1 8.3428 4.39872 1.98648
182 1 2.71239 8.44648 3.12043
183 1 4.64273 4.69788 0.248788
184 1 6.4593 7.06296 7.93333
185 1 0.568195 7.28265 4.73512
186 1 0.325749 2.15835 1.92904
187 1 2.32584 1.25464 3.87129
188 1 0.957462 6.05822 0.265237
189 1 3.92477 5.46941 5.42774
190 1 3.0428 2.65722 1.67528
191 1 4.93965 4.7384 5.6732
192 1 3.88028 0.455249 6.66534
193 1 4.81467 2.06868 1.44841
194 1 1.94875 8.88582 5.23799
195 1 5.71967 8.37885 4.00512
196 1 1.8393 9.24514 2.41199
197 1 5.24941 3.08043 1.775
198 1 7.09294 0.687642 0.237376
199 1 3.49722 0.110202 5.71021
200 1 0.891543 0.396385 7.72349
201 1 4.51673 2.19311 4.02121
202 1 3.90102 6.05869 3.58885
203 1 4.29842 2.68992 6.53315
204 1 4.94342 6.7821 9.33067
205 1 3.90841 1.68803 6.45254
206 1 5.43997 0.0504448 6.59504
207 1 6.34277 4.88264 2.96123
208 1 0.537292 5.3234 1.70915
209 1 6.36098 0.619918 6.89154
210 1 1.4021 4.59525 8.08
211 1 6.86284 1.25026 1.33355
212 1 4.76083 5.94075 2.85564
213 1 2.2766 6.49396 5.3503
214 1 7.69866 2.32565 2.40238
215 1 6.73219 6.56513 3.05458
216 1 7.39614 2.90794 7.2547
217 1 2.29787 0.32417 6.75872
218 1 2.18053 2.29296 2.44663
219 1 7.36652 4.22704 8.6878
220 1 7.15816 0.252502 8.50226
221 1 5.2573 8.7766 7.51249
222 1 4.10401 4.81588 1.17843
223 1 2.50057 9.39479 0.937222
224 1 6.63498 4.30665 3.91347
225 1 1.47566 2.95022 9.2567
226 1 3.09003 1.8426 7.58301
227 1 7.66061 5.90784 5.25758
228 1 6.94622 9.09374 0.153021
229 1 9.00596 2.21963 6.14522
230 1 7.08995 0.128934 1.16113
231 1 0.315919 4.10662 6.65876
232 1 6.94255 3.81853 7.8056
233 1 9.05474 0.800571 2.65776
234 1 5.3109 8.04868 3.06118
235 1 5.41038 7.63745 0.9952
236 1 8.96219 4.19058 3.69127
237 1 7.99059 2.39293 6.2126
238 1 7.91287 0.718426 7.46327
239 1 5.34841 4.66569 6.86902
240 1 0.883541 1.24091 0.490709
241 1 2.85134 5.51619 2.89999
242 1 4.31245 5.5633 8.17547
243 1 4.53552 0.438145 3.8204
244 1 7.31888 5.05039 3.46599
245 1 7.11251 4.04994 1.72776
246 1 0.452514 1.60167 4.04633
247 1 4.85419 2.58358 9.27694
248 1 5.95029 9.0104 4.78594
249 1 6.52475 5.08596 5.61822
250 1 5.217 4.29602 2.84219
251 1 7.44193 4.96408 5.06854
252 1 0.278406 6.36155 4.98895
253 1 2.24025 6.66043 1.298
254 1 5.50524 2.64496 0.830416
255 1 4.52595 3.54572 2.50912
256 1 8.86419 5.3219 1.90291
257 1 0.340416 9.16652 4.00397
258 1 3.42339 6.48914 1.59674
259 1 6.01569 1.99689 5.69373
260 1 4.07393 2.83419 1.78529
261 1 0.0110502 7.8741 8.3222
262 1 8.0401 2.12633 8.87165
263 1 6.92529 4.21869 6.12487
264 1 6.81061 0.849032 5.53387
265 1 3.66467 1.87587 1.43285
266 1 0.456692 7.21702 0.745864
267 1 5.68412 5.16021 2.15195
268 1 5.06079 0.97843 1.07431
269 1 3.71842 3.65331 0.441741
270 1 7.64207 7.63757 1.79858
271 1 1.14889 6.9901 1.41334
272 1 1.99871 3.07896 1.54164
273 1 8.8311 4.86959 2.79675
274 1 4.14787 2.90312 8.52009
275 1 5.31303 0.50393 0.16106
276 1 8.78696 8.84416 8.18589
277 1 7.20199 4.69973 0.823885
278 1 3.72174 2.99215 5.70617
279 1 0.22921 3.58103 0.894926
280 1 2.95965 1.19815 6.54404
281 1 3.57418 7.25832 2.64874
282 1 1.69748 8.4511 3.336
283 1 2.43638 5.8714 6.45256
284 1 6.17971 6.72646 4.95969
285 1 0.650121 0.57883 6.62576
286 1 0.659313 2.74516 6.43187
287 1 4.55587 9.29585 6.10741
288 1 8.64919 6.36823 1.88487
289 1 8.6896 1.74752 2.37671
290 1 4.89726 4.63776 7.83657
291 1 9.21378 4.12354 5.56205
292 1 5.27874 2.83806 6.53856
293 1 8.43375 4.72702 5.58063
294 1 0.632725 2.94165 7.45477
295 1 5.2148 3.68081 7.27217
296 1 8.16351 5.07441 8.66301
297 1 1.31199 4.55902 6.99613
298 1 9.1475 3.11134 6.93514
299 1 4.11212 8.89783 7.0323
300 1 1.93748 1.39779 4.78896
301 1 5.4535 7.19531 7.30422
302 1 8.58889 6.63858 5.72038
303 1 5.76757 5.67102 5.15372
304 1 1.63585 6.44655 8.78001
305 1 6.19272 8.79807 7.02803
306 1 0.0765887 0.413335 1.74363
307 1 5.67263 2.65751 3.91109
308 1 3.36922 8.746 8.37664
309 1 0.608887 6.92612 7.37456
310 1 7.66212 6.74772 3.57727
311 1 0.857405 8.4193 0.867538
312 1 2.89541 8.22117 9.17804
313 1 6.14629 7.42202 3.06966
314 1 6.17575 1.05533 0.598171
315 1 5.92057 6.08662 7.7147
316 1 9.14563 4.66825 9.20783
317 1 6.46096 5.61703 3.77619
318 1 8.22081 2.07895 3.29319
319 1 0.765371 1.19547 1.5794
320 1 0.00619606 5.79511 4.18218
321 1 9.06971 4.64721 1.00966
322 1 6.81348 0.234223 4.47385
323 1 9.13743 2.6248 0.132221
324 1 0.942574 5.06525 9.00674
325 1 9.22501 7.25296 9.24551
326 1 2.54431 2.18259 3.38919
327 1 1.32252 3.54666 0.731417
328 1 5.85221 3.77157 6.47778
329 1 0.0853394 7.09134 1.79162
330 1 5.32026 4.13271 1.84579
331 1 1.30443 0.824337 4.13049
332 1 3.19205 2.50851 6.67157
333 1 0.472436 4.26418 8.55445
334 1 1.9824 5.26646 7.31758
335 1 6.10458 4.47804 1.26061
336 1 7.75267 5.65825 4.31608
337 1 7.70512 0.786006 4.80011
338 1 3.61249 0.389884 3.39836
339 1 8.07447 6.13632 0.91504
340 1 4.12628 6.20966 7.21515
341 1 6.56567 7.72223 8.81788
342 1 8.48731 1.57138 4.67519
343 1 2.87466 6.65196 3.31675
344 1 3.44511 5.32002 8.68266
345 1 6.74949 6.24343 8.4747
346 1 8.91133 3.62945 1.59958
347 1 7.74068 6.156 8.66876
348 1 9.08215 2.27474 4.00589
349 1 2.4732 3.2198 2.41873
350 1 1.92326 3.79574 7.61722
351 1 5.28308 0.092907 2.36774
352 1 4.62926 5.70755 0.540734
353 1 7.46392 7.63705 3.9738
354 1 2.3585 7.30236 8.64619
355 1 7.83294 8.40754 3.34491
356 1 5.75712 0.972681 6.04102
357 1 1.36008 4.54906 5.92047
358 1 4.74044 2.89965 5.59956
359 1 0.524562 5.93905 8.67758
360 1 6.45441 2.24247 0.644891
361 1 9.11718 0.16091 6.2952
362 1 2.29987 7.60457 6.47955
363 1 7.81751 5.5885 1.94988
364 1 1.26797 1.02018 5.8514
365 1 4.93479 6.45333 7.87966
366 1 2.02665 8.53986 0.473726
367 1 0.176886 2.86412 5.48832
368 1 3.83895 7.60497 5.56378
369 1 6.76916 7.14552 2.21869
370 1 1.41007 1.62907 2.21064
371 1 1.4645 9.05914 4.17894
372 1 4.29462 3.75564 5.19275
373 1 5.41848 1.01159 7.00321
374 1 6.37946 8.35985 0.646171
375 1 2.4755 8.1992 8.15513
376 1 5.42046 3.78963 0.914176
377 1 8.91421 8.56115 6.40962
378 1 2.61095 5.7605 1.90062
379 1 8.38186 8.087 4.34367
380 1 9.24309 5.14169 8.32672
381 1 2.7721 2.26525 8.49654
382 1 4.6961 0.927357 6.23718
383 1 2.69796 0.396598 1.94788
384 1 2.18473 6.42961 4.14111
385 1 4.00999 7.06566 9.09677
386 1 2.01263 6.73309 6.98824
387 1 8.29897 1.91272 0.580619
388 1 2.80003 3.31255 0.827197
389 1 4.74762 1.92218 7.19233
390 1 0.782574 5.19494 4.39191
391 1 6.84264 8.17892 3.39958
392 1 1.98204 5.64846 0.76499
393 1 2.44804 0.190892 5.71795
394 1 2.76741 7.47099 5.5879
395 1 6.34671 1.68164 9.08968
396 1 2.13267 3.13305 8.48973
397 1 5.87352 6.03786 2.87583
398 1 7.14337 5.73523 1.14173
399 1 7.08534 3.15842 4.45977
400 1 8.66176 6.01254 4.97456
401 1 5.64059 6.03248 0.423228
402 1 7.82849 3.92915 5.40958
403 1 8.03505 2.52878 4.19371
404 1 0.792045 0.26534 0.945859
405 1 3.52621 5.87144 6.44808
406 1 5.93688 1.72784 1.36476
407 1 4.52456 7.79128 2.17388
408 1 1.15675 2.55126 1.63807
409 1 8.14303 7.62065 5.23134
410 1 6.34551 3.21522 0.378226
411 1 3.76473 4.21747 2.18533
412 1 3.17738 6.85324 4.66525
413 1 3.14119 9.12615 6.65859
414 1 6.47816 7.30615 0.496114
415 1 9.37954 8.84295 1.3615
416 1 7.2118 6.67957 1.37497
417 1 0.0207156 0.83872 0.11462
418 1 7.1007 2.54005 9.09236
419 1 1.63145 4.45858 4.38286
420 1 6.07856 6.71722 9.19546
421 1 0.196707 6.87336 8.32443
422 1 6.69583 1.38238 4.40317
423 1 7.59627 4.77157 2.59464
424 1 3.53735 3.28978 2.56369
425 1 8.80738 3.76229 2.70934
426 1 8.27579 2.34631 7.19553
427 1 7.00742 0.736329 2.15547
428 1 2.15102 7.53978 3.0251
429 1 4.07761 1.97535 8.06332
430 1 6.38352 9.15981 3.67862
431 1 0.34948 5.80157 7.637
432 1 0.123292 6.55811 3.43393
433 1 7.01284 3.9702 2.80817
434 1 1.06379 2.23466 4.84593
435 1 6.84143 8.48721 4.49662
436 1 1.87863 8.10278 7.31269
437 1 1.9351 4.04228 2.08723
438 1 1.54393 5.92955 1.6956
439 1 1.13718 3.5774 8.18821
440 1 2.63263 0.998747 1.04249
441 1 5.08199 2.11989 8.38231
442 1 3.45089 8.04988 6.50509
443 1 0.900094 3.69309 1.75385
444 1 7.75406 3.9897 7.00683
445 1 1.21819 8.97184 7.0619
446 1 8.37998 1.35913 8.20568
447 1 8.04477 2.83618 0.219599
448 1 1.1538 7.67878 2.93329
449 1 5.98407 0.584716 1.61269
450 1 2.21975 9.12494 9.06069
451 1 9.3773 3.71992 7.87908
452 1 0.0849095 7.53536 2.92501
453 1 4.24405 1.91761 0.532788
454 1 0.669947 8.09416 9.21321
455 1 4.18325 7.40862 4.60382
456 1 2.01868 3.7632 6.07569
457 1 6.78244 3.25131 5.47148
458 1 1.77559 7.99096 5.67393
459 1 6.71456 1.47442 6.37775
460 1 3.33629 4.60123 5.02166
461 1 1.59969 1.97157 6.28942
462 1 6.18076 6.78805 1.37011
463 1 1.74134 0.535528 0.516274
464 1 0.498635 8.8478 7.982
465 1 1.39919 0.0628231 6.13771
466 1 1.94105 0.37224 7.76432
467 1 6.20038 1.77367 8.09748
468 1 6.44072 7.24824 5.88929
469 1 1.96945 2.34498 4.20695
470 1 0.899813 8.88064 5.08244
471 1 8.69424 9.32851 9.2092
472 1 0.0451281 1.91099 5.00738
473 1 6.78262 2.61426 8.08381
474 1 1.28578 8.04584 4.64855
475 1 9.2097 2.45381 2.94019
476 1 2.01795 2.80826 6.77354
477 1 2.94836 9.03629 3.8699
478 1 3.64986 5.76331 0.855279
479 1 0.406522 4.61643 7.57671
480 1 1.65796 8.27182 8.98035
481 1 4.56383 2.94712 0.82699
482 1 5.03478 3.13847 4.5759
483 1 1.29123 6.02632 5.01884
484 1 1.66373 2.46198 0.696841
485 1 0.511736 8.76461 6.17006
486 1 7.26232 8.39848 1.18288
487 1 8.13248 6.6213 6.73113
488 1 9.14954 6.78086 6.63499
489 1 -0.00305639 2.12979 7.07912
490 1 4.75186 8.1879 3.99278
491 1 3.69392 8.3249 2.65522
492 1 3.3142 2.32866 2.62502
493 1 8.60861 3.15805 5.86003
494 1 5.17118 1.34667 4.07371
495 1 0.718712 8.00085 5.54053
496 1 3.18926 1.89971 5.7473
497 1 2.28957 4.7443 6.47699
498 1 2.58237 3.14339 3.85893
499 1 4.48071 7.41638 8.1598
500 1 7.39015 1.25245 8.69611
501 1 7.64333 4.50306 4.28411
502 1 1.0954 2.01322 7.17935
503 1 5.97771 0.762051 7.8989
504 1 7.45805 6.47064 7.65515
505 1 4.94377 5.25743 4.63518
506 1 7.71471 6.59032 2.36793
507 1 1.62311 0.599344 1.64731
508 1 4.41335 0.43475 1.68975
509 1 6.19351 0.38274 9.00949
510 1 9.03256 5.80155 1.08128
511 1 0.364167 0.710118 3.47601
512 1 8.05403 3.00766 1.28684
513 1 8.70285 2.78112 2.12432
514 1 8.4498 5.44335 7.71896
515 1 4.41752 9.10336 9.13528
516 1 2.93272 7.83165 2.16479
517 1 1.59257 2.67314 7.76548
518 1 3.17384 3.2084 8.84551
519 1 1.99209 5.01945 2.63646
520 1 2.14379 6.44573 0.23192
521 1 4.26315 0.272597 5.12729
522 1 0.208227 9.25002 7.10324
523 1 2.98341 5.73298 4.00852
524 1 1.54657 1.04039 6.96815
525 1 5.09729 1.14501 2.13944
526 1 4.55477 3.54512 9.157
527 1 2.72231 6.81487 2.2561
528 1 2.64955 1.50746 1.9184
529 1 2.71383 2.97291 5.82979
530 1 8.13195 8.37066 2.34217
531 1 2.22856 3.40177 5.07177
532 1 1.14672 4.74886 3.37439
533 1 3.71254 7.38455 7.41227
534 1 7.71725 9.07051 4.48579
535 1 2.97566 8.9451 4.85264
536 1 6.22301 2.46619 3.01895
537 1 4.45449 1.50193 8.99773
538 1 4.9456 1.92105 6.06332
539 1 8.59835 5.13471 3.96542
540 1 2.45434 5.23525 8.36545
541 1 2.61971 2.04864 0.914747
542 1 3.42154 4.68844 6.7186
543 1 1.1805 9.13027 0.0149732
544 1 3.91183 0.381504 8.12708
545 1 6.48498 6.1142 2.07994
546 1 6.02651 8.11921 7.92224
547 1 1.54989 7.37122 3.8668
548 1 9.25805 7.44701 3.94322
549 1 2.21119 1.85898 7.09849
550 1 0.860487 3.66136 5.81829
551 1 2.94389 5.74173 0.136071
552 1 0.107264 4.44044 1.94196
553 1 4.38834 5.33265 6.42636
554 1 6.01545 4.1253 5.554
555 1 1.5152 1.72526 3.30847
556 1 1.52555 6.16388 6.12987
557 1 4.38505 8.84317 8.08179
558 1 7.73218 1.42483 3.89777
559 1 3.64832 7.14067 3.7431
560 1 2.59984 4.20084 4.19317
561 1 3.00456 4.0107 3.02871
562 1 1.66963 7.04602 7.90627
563 1 3.48778 7.67324 0.40974
564 1 8.76841 3.2448 3.64722
565 1 2.33071 1.22508 5.72246
566 1 0.534443 4.31515 0.287728
567 1 8.54344 7.57795 6.42819
568 1 8.76369 1.31008 1.43833
569 1 2.47721 4.84323 9.39113
570 1 4.10862 6.32423 4.66868
571 1 9.15373 5.00183 6.23971
572 1 6.12334 5.59913 1.25635
573 1 1.11162 3.70042 2.89201
574 1 4.66044 3.39832 3.65552
575 1 1.77237 2.92429 3.20293
576 1 7.50496 3.28828 6.14693
577 1 4.13876 8.15824 8.86933
578 1 8.5434 9.2463 7.1534
579 1 5.47654 7.27135 1.94362
580 1 2.79518 8.54216 5.83188
581 1 5.28705 9.18978 3.43774
582 1 5.12036 5.01126 1.16403
583 1 8.92128 0.103709 3.47422
584 1 4.68536 4.86202 2.15784
585 1 8.22997 1.0155 9.20494
586 1 3.86794 8.6459 5.35789
587 1 8.00675 0.971353 2.93734
588 1 8.73071 9.17239 4.4439
589 1 1.71059 8.89745 1.45915
590 1 8.2637 4.97849 6.80087
591 1 2.69325 7.53303 3.92879
592 1 9.3082 9.0217 5.4229
593 1 8.9576 5.86201 6.89367
594 1 6.64999 3.42864 8.74118
595 1 8.17127 5.09313 1.11156
596 1 7.45651 5.17296 6.11007
597 1 0.295731 1.16821 7.39608
598 1 1.21783 3.58344 6.80884
599 1 0.861619 7.97264 1.90704
600 1 4.56237 8.81145 2.21263
601 1 8.93862 7.18176 4.90845
602 1 7.93365 3.4682 2.25999
603 1 2.99296 4.06103 5.9106
604 1 6.09641 8.66617 9.08474
605 1 3.77351 6.60713 8.15143
606 1 4.35801 3.75162 7.90254
607 1 2.86901 0.174122 8.32599
608 1 5.17895 8.39149 8.68656
609 1 0.896266 0.674338 2.39691
610 1 7.34212 3.65046 0.293439
611 1 3.84915 0.648059 9.37689
612 1 1.40069 4.05537 9.09301
613 1 4.35494 0.517706 2.72913
614 1 0.627551 1.9474 8.08774
615 1 3.36276 1.50337 3.74427
616 1 0.989681 2.5338 3.82965
617 1 8.6187 6.3828 4.01397
618 1 6.50651 4.37865 0.245785
619 1 6.62081 4.56221 7.13532
620 1 7.64601 5.50375 0.135497
621 1 8.53681 0.413235 5.37155
622 1 6.12991 8.69163 2.78163
623 1 7.33488 8.31734 5.53084
624 1 9.0837 1.68008 9.09666
625 1 0.917291 4.53902 1.22093
626 1 9.29131 5.12698 5.12141
627 1 1.02526 9.30771 3.11201
628 1 1.76822 2.07575 8.74243
629 1 4.75078 6.70132 3.8364
630 1 4.55825 7.95062 7.23071
631 1 3.98415 0.991376 0.918125
632 1 1.941 5.39544 5.63794
633 1 0.328386 8.57815 2.91696
634 1 5.63191 6.59777 5.83617
635 1 2.84286 4.68087 2.093
636 1 7.71049 8.71745 8.97792
637 1 1.41128 5.61644 8.12073
638 1 4.63303 6.85295 5.48421
639 1 2.13836 1.47843 0.223848
640 1 7.71866 3.18517 8.34363
641 1 3.86625 6.05597 9.26125
642 1 8.67314 3.01309 8.68831
643 1 8.34485 7.52963 3.37947
644 1 3.52944 0.0138392 1.12112
645 1 3.74743 3.61072 6.52683
646 1 5.20162 6.33331 4.65679
647 1 5.56588 1.19163 8.73419
648 1 6.8212 4.15545 4.89216
649 1 4.80783 7.22432 6.49118
650 1 3.728 2.97542 7.46932
651 1 5.9866 5.469 8.63267
652 1 4.85121 1.3059 5.21268
653 1 7.60957 1.5612 6.90614
654 1 5.65978 7.67533 9.37279
655 1 3.14256 6.68992 0.526792
656 1 7.27904 1.71099 0.234075
657 1 5.26191 8.6672 0.408093
658 1 0.718218 6.44995 2.22957
659 1 2.25703 2.21262 5.312
660 1 3.89441 5.29369 4.40739
661 1 5.70569 4.9633 0.317381
662 1 6.38923 2.74909 6.48968
663 1 3.30738 8.288 7.50002
664 1 0.878358 5.42717 5.64881
665 1 1.97702 0.268973 3.5204
666 1 2.25271 8.37768 4.25742
667 1 8.96601 9.09335 2.32744
668 1 5.38179 7.45575 4.58721
669 1 1.65517 3.48263 4.14387
670 1 7.46024 1.97685 4.82597
671 1 1.09678 4.64852 2.27854
672 1 6.58299 5.5564 0.163723
673 1 1.60142 1.52035 1.15152
674 1 2.65383 7.42152 7.54716
675 1 2.6973 0.64351 9.30181
676 1 9.38239 6.28931 0.207676
677 1 6.94109 8.59257 8.34223
678 1 7.6569 1.54231 5.75717
679 1 7.80313 2.9072 5.14853
680 1 1.12534 6.62592 3.13475
681 1 2.7281 8.84381 2.05252
682 1 4.52851 5.0933 3.65501
683 1 3.46718 1.19274 8.59973
684 1 8.05643 7.53434 9.18144
685 1 8.35262 5.72861 6.02384
686 1 2.32962 4.15209 8.47088
687 1 6.12523 4.84557 4.65056
688 1 7.46912 7.52945 2.91427
689 1 1.21406 7.97275 6.56057
690 1 4.20222 1.7832 2.30793
691 1 3.283 1.45603 0.339943
692 1 7.16897 9.24149 2.99321
693 1 8.23848 0.383828 8.37747
694 1 2.21574 7.55962 0.272164
695 1 6.11383 3.26228 7.38887
696 1 7.9248 4.15976 3.35581
697 1 4.75225 8.14042 5.08934
698 1 4.92115 3.83119 6.14907
699 1 1.26228 7.03373 5.42199
700 1 7.8169 8.96315 7.93518
701 1 3.86621 1.19669 7.41398
702 1 8.71379 2.56622 4.92916
703 1 6.62109 6.16859 5.7514
704 1 8.00771 4.54245 0.136727
705 1 5.73045 3.03104 5.60454
706 1 2.96654 2.55317 4.64956
707 1 6.19491 1.47041 3.4854
708 1 4.95205 9.12129 4.48692
709 1 3.04415 6.48238 7.20275
710 1 0.667919 6.18069 1.19461
711 1 2.47988 1.15705 8.28011
712 1 2.27504 4.97619 3.65284
713 1 0.192086 7.06152 5.74154
714 1 0.567077 4.16126 4.03982
715 1 6.80631 5.73982 4.74818
716 1 4.29437 8.85931 3.2265
717 1 4.95429 5.54621 7.31633
718 1 5.18962 4.18436 4.68862
719 1 7.96876 7.91855 8.16481
720 1 5.79946 6.70023 3.89231
721 1 1.8841 4.95987 1.6029
722 1 7.80793 1.39725 1.96713
723 1 7.64474 4.73385 7.77888
724 1 6.9909 1.10961 7.54779
725 1 5.23914 4.80318 8.80216
726 1 8.31742 8.76137 5.2746
727 1 3.27775 5.56152 7.64811
728 1 8.32609 8.86143 1.49643
729 1 1.70166 6.90911 2.27354
730 1 0.201356 3.22165 2.42216
731 1 8.98035 2.50019 1.15827
732 1 5.32384 0.8637 3.16586
733 1 3.97327 8.61562 0.555634
734 1 0.294543 4.2314 2.97245
735 1 8.08153 9.16258 6.18561
736 1 9.15965 8.36566 7.40443
737 1 0.934521 3.376 4.84794
738 1 1.7388 7.78217 1.18028
739 1 4.34747 4.29331 6.9499
740 1 8.35217 0.731362 6.51029
741 1 3.37194 0.484351 4.46945
742 1 8.01505 3.58128 4.35063
743 1 0.829579 7.90102 7.66454
744 1 0.794848 1.25401 4.91291
745 1 2.35618 3.72077 9.38472
746 1 8.87484 8.4705 3.4622
747 1 0.352409 0.133627 8.72951
748 1 5.61407 3.90017 9.35229
749 1 7.36855 7.1398 8.49197
750 1 8.70466 1.32575 5.69837
751 1 5.48734 7.17547 8.36846
752 1 4.71904 2.87127 7.50255
753 1 7.39762 7.46685 7.32711
754 1 4.75343 0.308147 7.31919
755 1 1.46471 2.86786 5.75984
756 1 2.88327 6.75428 6.23323
757 1 0.81864 2.16608 9.24717
758 1 3.87934 6.96625 6.50941
759 1 4.10018 4.27837 4.26213
760 1 3.65119 8.51567 1.62674
761 1 9.33227 1.2585 6.45394
762 1 5.11029 6.68685 1.07272
763 1 8.52393 4.08643 8.55818
764 1 2.12713 4.25117 0.930642
765 1 9.19727 8.07658 2.03567
766 1 7.0173 2.31442 5.7256
767 1 6.41324 2.39516 4.78192
768 1 3.29831 4.15199 1.23534
769 1 9.15339 7.97394 5.51648
770 1 2.91768 6.40774 8.77378
771 1 7.33011 9.12116 2.02472
772 1 4.36439 1.36862 3.32413
773 1 4.46097 8.15949 6.17349
774 1 3.79536 1.11295 5.47232
775 1 9.35725 5.87118 2.61077
776 1 3.60337 2.16878 9.0561
777 1 6.33507 7.81612 1.47972
778 1 8.35632 6.54188 9.37862
779 1 3.66277 9.32564 2.33311
780 1 7.10478 5.71527 2.72774
781 1 7.81577 1.07439 0.852244
782 1 8.99412 2.19334 8.1295
783 1 0.154884 7.75538 6.57795
784 1 2.81668 1.3169 2.85728
785 1 2.00762 6.03092 2.73698
786 1 2.71139 4.55666 7.49318
787 1 0.164859 9.06957 0.359421
788 1 7.33467 9.35138 5.41523
789 1 9.17447 0.415299 7.88738
790 1 5.78529 3.96093 8.17725
791 1 6.09606 3.76416 2.58377
792 1 8.07359 5.76441 3.29394
793 1 6.87276 0.0237829 7.51128
794 1 8.65481 5.42465 0.213607
795 1 6.80736 5.4513 7.62526
796 1 6.03146 3.44281 4.65377
797 1 7.89008 0.379458 3.75497
798 1 3.5453 2.63521 0.664316
799 1 6.14171 1.33054 2.37594
800 1 7.20368 7.95593 0.235613
801 2 2.48189 1.9258 6.28133
802 2 8.13742 6.96526 7.55726
803 2 4.01854 2.93134 9.37205
804 2 8.70301 1.16047 0.518442
805 2 6.14451 7.81506 2.31945
806 2 6.7639 4.68571 7.98634
807 2 2.1482 1.91939 7.9671
808 2 0.651504 7.25985 2.32682
809 2 2.90565 4.1521 0.520634
810 2 7.19349 2.25734 6.54641
811 2 0.0512869 5.4966 9.26771
812 2 2.9815 3.82459 2.11635
813 2 0.290636 3.01259 1.56346
814 2 0.769978 1.91508 1.14253
815 2 5.73063 7.26597 6.48625
816 2 1.38952 1.42567 9.17925
817 2 3.43613 9.17231 7.53057
818 2 2.0539 6.89601 6.09652
819 2 0.294626 0.037496 2.64643
820 2 0.721177 5.1588 8.22106
821 2 4.56849 0.720212 8.70897
822 2 5.57443 0.14968 7.41042
823 2 5.19048 7.87502 7.85726
824 2 0.0137326 6.68961 4.27799
825 2 5.89117 5.52203 7.05827
826 2 4.78897 2.48735 2.20862
827 2 7.04147 6.4599 5.02958
828 2 7.79174 0.532567 5.83059
829 2 6.46432 6.27764 0.709657
830 2 7.6175 5.63086 7.84159
831 2 8.26955 9.04488 3.78326
832 2 5.08462 0.541312 4.62456
833 2 0.730414 7.22645 3.75384
834 2 6.36207 4.34943 2.03737
835 2 7.38167 4.87609 6.93117
836 2 9.39383 1.27987 1.97709
837 2 4.37004 9.08708 1.4082
838 2 0.786867 0.245886 4.52851
839 2 0.101002 3.38824 6.2022
840 2 9.117 2.88499 7.75979
841 2 1.15491 2.6387 8.5362
842 2 4.99605 4.04215 8.46325
843 2 3.00958 0.711059 5.28613
844 2 6.92085 7.20108 3.52941
845 2 4.71947 8.97435 5.33271
846 2 7.16809 4.78076 9.32195
847 2 1.35269 7.31608 7.1285
848 2 8.30946 7.25923 4.19049
849 2 0.50179 4.6153 5.86405
850 2 3.82973 3.72588 8.55918
851 2 3.9035 2.16423 7.20759
852 2 8.18606 2.24779 1.68264
853 2 0.0744919 6.06248 1.79505
854 2 7.23063 6.04948 3.73523
855 2 5.25824 5.46199 8.12521
856 2 0.146685 8.688 8.76609
857 2 8.40593 2.84324 2.92982
858 2 4.62029 3.85741 0.527807
859 2 6.25957 4.82372 6.43443
860 2 4.66481 1.09661 0.349932
861 2 5.4726 6.35368 8.65704
862 2 4.00791 8.06408 7.85088
863 2 7.81632 4.38022 6.18606
864 2 0.015898 6.72202 2.5727
865 2 1.33877 8.61911 5.92913
866 2 7.83665 3.93967 7.93734
867 2 6.75107 3.66473 6.88926
868 2 8.29612 5.07573 4.79014
869 2 4.57472 1.09111 7.03124
870 2 2.80896 4.98838 4.47339
871 2 6.77609 1.6254 5.24909
872 2 3.66866 9.38596 8.78689
873 2 8.98954 5.88702 3.39833
874 2 8.53649 0.798662 4.3493
875 2 6.14289 1.39501 7.26194
876 2 2.04133 6.72563 3.25176
877 2 1.5367 3.92334 5.25275
878 2 2.66211 8.24695 6.94354
879 2 5.43737 1.59412 7.68168
880 2 2.36308 8.10476 5.10435
881 2 8.18382 2.07689 5.36238
882 2 2.99284 7.27923 9.16281
883 2 3.42616 8.96948 3.14058
884 2 7.24148 8.9377 3.80285
885 2 2.08982 3.11727 0.471711
886 2 5.18367 3.65451 5.32371
887 2 0.395301 6.21171 6.81158
888 2 3.80946 8.80805 6.18924
889 2 0.408728 2.67094 4.40022
890 2 7.10613 7.57513 1.15854
891 2 2.56773 8.2757 1.43281
892 2 0.94766 8.23309 8.41856
893 2 1.25532 9.25602 8.55246
894 2 8.53132 5.77709 2.53698
895 2 1.13866 8.52411 2.59765
896 2 8.24804 3.17188 6.74352
897 2 6.59528 0.981942 8.55096
898 2 8.28017 2.56695 8.05974
899 2 5.88262 4.19286 7.33607
900 2 3.09006 7.30637 6.86701
901 2 8.96193 0.742511 8.845
902 2 1.45837 6.40948 0.84578
903 2 4.24936 6.34123 6.14236
904 2 8.69403 8.96007 0.648409
905 2 4.48361 6.98505 7.26262
906 2 9.20257 5.07148 7.16357
907 2 2.31446 1.0376 7.36913
908 2 4.32969 6.61185 3.07236
909 2 3.97639 5.22532 7.33057
910 2 2.87985 6.74119 7.99744
911 2 4.66066 7.23777 1.40397
912 2 6.19402 2.59414 1.37817
913 2 0.148787 1.27603 5.54849
914 2 6.77419 3.86161 0.991702
915 2 5.32111 7.38676 3.67638
916 2 3.62588 1.18715 2.89652
917 2 7.56206 6.05492 6.12827
918 2 7.08973 2.61758 2.97193
919 2 9.27282 1.33594 8.20358
920 2 6.66227 6.33261 7.38859
921 2 2.24393 5.80722 3.57451
922 2 4.8783 8.77973 6.66474
923 2 5.95073 1.73961 4.34078
924 2 3.66761 3.91003 7.28976
925 2 0.253422 7.97665 1.33312
926 2 6.94952 5.06127 4.21234
927 2 7.795 0.21427 9.10179
928 2 8.20457 8.24406 6.03243
929 2 0.541019 6.80158 9.19281
930 2 7.25162 2.52115 0.540814
931 2 4.26158 5.32255 9.12063
932 2 1.03741 5.29848 7.41246
933 2 2.83018 1.62465 9.09469
934 2 4.0099 8.2582 4.56514
935 2 8.10505 6.93467 1.55703
936 2 8.04807 3.66061 9.17397
937 2 5.28852 5.13198 2.92967
938 2 9.25277 3.6497 8.74498
939 2 4.92576 4.26584 3.65618
940 2 2.84724 6.01414 1.10214
941 2 3.55688 3.24335 1.22492
942 2 1.6752 5.32921 6.47349
943 2 5.29307 3.20069 0.214754
944 2 7.61631 4.77985 1.70931
945 2 0.320992 5.08025 2.50198
946 2 1.26992 0.803865 3.26727
947 2 5.33859 9.16778 8.96969
948 2 0.635528 5.92582 3.60909
949 2 3.72484 2.00685 4.51268
950 2 2.78273 0.503426 3.77347
951 2 1.34684 1.73732 4.21421
952 2 4.43031 3.46126 6.97344
953 2 1.46866 3.21259 2.35337
954 2 4.27178 4.72845 5.0411
955 2 7.62045 8.12374 4.71734
956 2 1.50245 1.76159 5.45186
957 2 4.45755 6.47161 8.67125
958 2 2.9872 2.94903 3.14426
959 2 4.19273 5.81814 2.23492
960 2 0.983221 6.52382 8.02466
961 2 0.137566 0.884524 1.01632
962 2 3.4593 2.56829 8.16661
963 2 0.748737 6.34277 5.71975
964 2 5.93382 2.9169 2.27495
965 2 5.74261 6.9539 0.549388
966 2 1.62357 2.78785 4.86191
967 2 0.860584 1.48966 6.56713
968 2 6.15355 0.328449 5.13317
969 2 4.94196 7.5351 8.88884
970 2 5.95881 6.07383 4.41039
971 2 5.68188 8.46424 1.13548
972 2 8.40382 1.67142 6.55457
973 2 5.93672 3.0115 8.18805
974 2 8.60884 3.60153 5.17991
975 2 1.78687 7.78732 8.22608
976 2 4.57219 5.86347 4.12177
977 2 1.80541 4.71254 8.89671
978 2 1.39809 7.92085 0.378738
979 2 1.40519 4.90854 5.08974
980 2 7.35576 7.93164 8.83611
981 2 2.04817 2.15278 1.67075
982 2 0.0115093 4.85177 4.26464
983 2 1.20611 5.40226 1.11384
984 2 7.67106 9.25466 7.02878
985 2 7.04591 7.85521 7.99276
986 2 0.855203 0.547266 9.33534
987 2 6.57332 8.73979 5.30311
988 2 7.29474 3.78457 3.74703
989 2 2.79178 1.9675 4.14557
990 2 8.648 7.48194 0.377798
991 2 5.97681 6.82108 2.41274
992 2 8.7198 7.9975 2.76533
993 2 4.39795 1.27397 1.58261
994 2 8.67464 3.32374 0.776888
995 2 0.722143 3.84398 7.47371
996 2 2.82032 5.30825 6.91886
997 2 0.483299 8.41645 6.94141
998 2 3.07972 7.66596 3.19106