#bin. KALJ data file T=0.5

1000 atoms
2 atom types

0 9.4 xlo xhi
0 9.4 ylo yhi
0 9.4 zlo zhi

Masses

1 1.0
2 1.0

Atoms

1 1 4.57327 6.99016 3.19823
2 1 2.55583 5.49948 1.68482
3 1 2.32621 3.60935 6.38734
4 1 1.9033 6.757 0.344324
5 1 0.483527 0.488914 4.21254
6 1 4.71626 5.69656 4.56045
7 1 6.22206 5.21214 6.48955
8 1 8.20633 2.93132 6.47052
9 1 0.619837 7.57782 6.23705
10 1 0.157789 6.04029 9.16052
11 1 3.69663 0.874975 4.92478
12 1 7.7977 1.34602 7.88183
13 1 8.52683 9.06336 6.7517
14 1 3.04133 3.93172 8.06305
15 1 0.373076 8.97458 8.38298
16 1 8.79817 7.41531 9.03288
17 1 6.72838 0.504055 1.53853
18 1 5.69308 6.80028 5.69735
19 1 8.65796 6.50073 1.30113
20 1 7.26386 2.78822 0.474766
21 1 8.89349 2.35396 9.0634
22 1 7.38719 0.207575 0.539564
23 1 7.22866 0.470652 7.80152
24 1 1.60653 4.50278 8.86612
25 1 6.29352 8.35966 2.22296
26 1 5.29545 1.96153 4.01922
27 1 5.07567 1.85293 7.46547
28 1 6.59265 3.09782 3.31051
29 1 0.778366 5.16821 8.87856
30 1 9.22163 2.89637 2.8012
31 1 0.28519 1.478 1.30741
32 1 5.24432 5.84434 5.59752
33 1 6.64929 8.07218 0.325846
34 1 3.7101 7.65969 0.778089
35 1 3.67333 5.25817 3.99843
36 1 2.54645 0.0618834 2.77516
37 1 7.18755 4.63667 8.30005
38 1 8.94247 0.597635 1.67743
39 1 5.4578 7.42129 2.82948
40 1 5.20117 0.23289 0.039704
41 1 3.76334 9.25144 6.74788
42 1 1.62617 8.87657 2.73047
43 1 5.26015 1.07841 8.47473
44 1 1.87597 0.534481 5.36986
45 1 1.35416 7.49887 8.37184
46 1 1.00503 4.97415 2.29347
47 1 7.61536 9.26269 1.58055
48 1 3.13641 1.59467 4.40353
49 1 0.637254 2.79043 6.51027
50 1 8.41492 2.85453 4.23684
51 1 7.81195 7.42364 2.25288
52 1 4.9979 7.61773 1.62467
53 1 1.17087 8.52029 7.89053
54 1 6.19835 9.05977 6.13719
55 1 1.95686 4.93553 2.78868
56 1 1.21998 7.81308 5.35912
57 1 3.39626 4.92688 6.00251
58 1 5.3233 5.35736 0.936756
59 1 6.16638 7.05253 6.6058
60 1 2.22016 1.5038 5.61006
61 1 3.61199 6.79157 3.66449
62 1 6.07619 9.33909 2.21137
63 1 0.399204 4.36787 4.457
64 1 0.306433 8.31386 1.49429
65 1 6.87921 1.27931 3.3471
66 1 1.34049 1.73841 8.32517
67 1 0.48094 6.14997 7.09134
68 1 4.04166 7.11221 7.73152
69 1 8.861 7.14787 3.96587
70 1 8.61864 5.53142 2.61167
71 1 6.67778 8.68216 6.9898
72 1 2.81552 2.87274 0.0291039
73 1 4.3001 5.36014 1.88233
74 1 3.50248 0.670883 2.7788
75 1 5.11749 2.95323 1.94831
76 1 7.99772 6.45817 7.82901
77 1 1.09413 3.85232 5.06424
78 1 4.09067 7.09158 1.6331
79 1 6.65831 9.00898 8.08271
80 1 0.476479 1.70384 8.86487
81 1 3.04232 4.1177 6.92095
82 1 4.40838 9.05661 2.85563
83 1 4.32424 7.3552 5.35112
84 1 0.416851 3.84633 6.54886
85 1 5.42468 2.85438 8.15676
86 1 3.83652 4.51227 7.63392
87 1 2.38229 2.40508 3.69928
88 1 8.48927 1.1502 2.47183
89 1 6.62448 5.14498 2.63047
90 1 5.31815 6.23481 2.93098
91 1 0.810378 6.48032 2.80221
92 1 7.94 0.561376 8.98921
93 1 3.86657 0.503724 5.92106
94 1 2.00591 5.29805 5.09712
95 1 7.77425 7.95853 5.75351
96 1 5.36391 7.55198 7.2441
97 1 1.30243 5.04434 0.486924
98 1 6.21681 7.78091 1.31613
99 1 6.82435 8.14594 6.05695
100 1 6.2665 7.01251 0.402838
101 1 5.53279 4.86077 7.48155
102 1 2.98795 3.79069 2.79384
103 1 4.68907 8.34518 5.57978
104 1 5.97073 6.80782 4.72727
105 1 1.78483 8.51576 4.74154
106 1 8.68919 1.15712 5.45803
107 1 4.84514 5.33046 2.71754
108 1 8.14365 0.0736507 4.05953
109 1 5.03394 2.67773 9.11438
110 1 6.98435 6.19003 9.24404
111 1 5.81533 8.34546 8.99438
112 1 6.78649 3.58571 8.87351
113 1 3.44031 5.00418 0.264713
114 1 4.57373 3.71264 3.44553
115 1 4.97271 0.995795 3.75493
116 1 6.65524 2.07197 9.22711
117 1 8.08999 8.97759 7.66748
118 1 7.89688 3.58298 0.712247
119 1 3.09234 2.65275 6.31498
120 1 1.92851 8.54645 6.9241
121 1 3.98342 1.8451 5.26441
122 1 2.41861 7.62408 4.9909
123 1 4.56274 5.25134 9.38183
124 1 0.129292 9.11707 6.53093
125 1 5.21215 5.4387 6.54948
126 1 7.44203 4.63625 1.19762
127 1 3.69428 8.10995 4.99029
128 1 7.20171 6.06899 4.95966
129 1 0.453223 9.21119 9.36602
130 1 3.43609 2.03575 1.61965
131 1 7.92512 1.89091 2.01946
132 1 9.32707 7.31768 1.28781
133 1 6.06249 2.85288 4.20399
134 1 9.25159 6.78397 0.396425
135 1 8.16099 6.57798 4.60121
136 1 7.10051 0.38076 5.80269
137 1 2.32198 6.74789 7.26714
138 1 5.00862 7.56581 6.27279
139 1 1.72997 1.62436 7.36687
140 1 0.298328 4.31678 0.405371
141 1 1.95556 9.03863 3.70315
142 1 5.83353 9.15769 7.40576
143 1 5.27807 2.99302 0.798582
144 1 1.23595 2.26731 4.05879
145 1 8.62547 4.20448 8.60625
146 1 4.83692 0.910193 2.60915
147 1 7.07778 2.04228 7.34852
148 1 2.06772 7.88084 3.92025
149 1 2.67645 0.559408 3.65388
150 1 0.966747 7.85291 4.39268
151 1 6.98292 8.831 5.28749
152 1 5.56109 8.45588 6.66822
153 1 3.68437 6.60095 0.803416
154 1 3.40725 5.67846 1.15636
155 1 8.5439 8.36306 4.04934
156 1 6.6725 7.14468 5.61469
157 1 6.13115 4.52728 8.25496
158 1 2.75935 7.36099 8.87313
159 1 2.02505 7.16749 5.80388
160 1 6.56141 5.32431 7.6137
161 1 0.78688 2.1139 7.29969
162 1 0.690756 3.92881 1.70007
163 1 7.99132 8.72959 4.8415
164 1 2.20169 9.22366 6.09881
165 1 2.50467 7.02032 4.08487
166 1 5.62414 5.86867 7.99103
167 1 3.51379 9.14847 2.2144
168 1 6.36248 4.85272 0.886686
169 1 1.08592 6.02957 0.0517666
170 1 0.473342 3.17775 5.43541
171 1 3.68015 7.62542 9.11052
172 1 2.34083 4.93482 0.0326867
173 1 3.24249 4.65384 1.23084
174 1 4.50261 4.31871 9.02752
175 1 6.88297 3.65116 7.76671
176 1 3.44725 0.78071 7.16258
177 1 5.24649 5.82548 1.92355
178 1 6.98172 3.94511 0.448868
179 1 5.8558 3.82901 3.63042
180 1 2.00678 8.24568 5.85714
181 1 7.92667 5.65035 1.18657
182 1 1.77358 1.02315 6.43326
183 1 3.83715 4.13134 0.555827
184 1 5.05252 6.67005 7.67712
185 1 8.33891 8.19451 8.42626
186 1 0.347548 3.83137 2.67395
187 1 0.628911 2.11644 5.20766
188 1 0.671809 6.88213 1.9005
189 1 2.94596 5.53628 4.73968
190 1 5.9335 5.02934 1.81249
191 1 4.59889 2.55663 4.72824
192 1 2.80352 1.35234 9.14353
193 1 4.53308 1.98566 1.57793
194 1 0.847512 8.92818 4.51543
195 1 6.27795 9.00572 3.09803
196 1 0.631311 0.568293 1.48033
197 1 5.63564 3.70618 1.50537
198 1 8.36541 0.523569 7.30441
199 1 6.246 0.108883 4.96515
200 1 3.99986 0.158218 0.437683
201 1 4.68367 1.05013 5.13125
202 1 2.79875 6.76703 3.01432
203 1 5.53649 0.370756 6.49984
204 1 5.483 8.57918 1.51841
205 1 4.44738 0.703654 6.77954
206 1 4.23831 0.31725 7.77208
207 1 7.23533 3.34034 2.35527
208 1 9.34488 4.65017 2.35081
209 1 6.33394 7.99947 4.92885
210 1 1.62172 2.61769 7.79119
211 1 6.56405 8.79761 1.27606
212 1 5.34716 7.55159 3.94511
213 1 1.58813 7.00243 4.8294
214 1 7.59767 2.9254 3.42259
215 1 6.21278 5.84844 3.41927
216 1 6.46647 4.41585 7.14367
217 1 2.356 0.60795 8.45836
218 1 2.16722 3.201 2.72233
219 1 7.72485 4.3824 9.2513
220 1 0.9143 1.7907 0.515805
221 1 6.19169 8.14705 7.80571
222 1 4.44896 5.9799 1.05692
223 1 3.18099 1.26832 8.10035
224 1 6.35688 5.85241 4.4495
225 1 2.47753 3.03908 8.36766
226 1 2.97982 2.14213 5.32056
227 1 7.27847 5.04761 5.17465
228 1 8.88607 0.0588086 5.76143
229 1 8.73498 1.4934 7.62238
230 1 6.63798 1.46464 8.30099
231 1 5.66537 4.42276 6.48532
232 1 4.75829 4.25831 8.05344
233 1 0.352336 8.69468 2.56836
234 1 6.11187 8.05091 3.2811
235 1 7.54084 8.54412 0.812313
236 1 8.2554 4.75054 4.74425
237 1 7.45345 1.96149 3.92855
238 1 8.06786 2.0486 7.10569
239 1 6.37795 5.52834 5.46661
240 1 9.26573 1.48759 0.317197
241 1 3.02268 4.80663 3.21927
242 1 3.9605 3.57412 7.40162
243 1 6.55941 7.47031 4.00573
244 1 7.1874 4.64834 4.19529
245 1 6.53251 4.18976 1.60941
246 1 8.60341 1.7839 4.03878
247 1 6.80107 3.25035 1.29118
248 1 5.8662 7.87436 5.80348
249 1 5.50817 5.11596 4.9247
250 1 5.12897 4.42414 4.03874
251 1 7.37228 2.66516 4.63908
252 1 0.253735 5.3727 3.8529
253 1 2.42906 8.29155 2.09235
254 1 6.07051 2.97014 9.10179
255 1 4.96302 4.58353 1.94324
256 1 1.12963 3.62701 9.33909
257 1 7.22375 0.0945756 4.51262
258 1 3.63555 7.16468 2.65045
259 1 4.5732 3.86761 4.75618
260 1 3.69454 4.56954 2.28285
261 1 0.146519 6.87852 8.63292
262 1 6.84447 0.491226 8.84336
263 1 8.60351 5.43127 3.77028
264 1 7.08168 4.62155 6.30076
265 1 3.67913 2.91698 0.974982
266 1 7.9537 6.33904 8.88714
267 1 6.07663 3.21988 2.22984
268 1 7.10288 1.15316 0.137919
269 1 1.6942 6.40675 1.43733
270 1 0.814163 0.350117 2.49736
271 1 1.76148 7.81275 0.239071
272 1 1.91183 3.43121 0.775892
273 1 8.1083 6.41989 3.41453
274 1 4.43787 2.62821 7.70442
275 1 5.69309 0.230603 1.24857
276 1 8.05571 8.92037 0.0435907
277 1 6.22568 2.14628 3.47889
278 1 2.91902 2.86355 4.6367
279 1 9.3605 3.55094 8.96737
280 1 4.41129 0.448885 8.77569
281 1 5.30428 8.55307 2.61454
282 1 0.909065 9.07132 3.56023
283 1 0.759348 9.37917 7.40132
284 1 7.09251 6.50303 4.06039
285 1 0.318262 1.80914 6.21475
286 1 2.46435 0.800101 7.42157
287 1 4.38267 0.049836 5.12845
288 1 2.13668 7.43291 1.19155
289 1 8.12335 1.01235 0.47905
290 1 4.76645 4.11699 7.05304
291 1 7.61325 2.80386 7.75145
292 1 6.22552 3.06892 7.24846
293 1 8.47296 3.55859 3.382
294 1 9.11096 3.41342 7.17028
295 1 6.52813 3.73764 6.33973
296 1 8.11319 7.88134 0.233348
297 1 9.16839 6.14429 4.40961
298 1 0.840427 4.96622 5.38047
299 1 2.73792 0.809058 6.35154
300 1 0.140351 1.19813 2.42578
301 1 6.01016 9.36778 8.80224
302 1 8.88308 0.730792 4.45971
303 1 3.31636 3.84522 4.89991
304 1 1.24476 6.51355 8.61702
305 1 4.00871 7.98052 6.16917
306 1 1.74136 8.42744 1.17996
307 1 5.36822 0.262034 5.4415
308 1 2.10206 8.24365 8.7286
309 1 8.83185 6.01867 8.45045
310 1 8.82441 7.37998 2.84203
311 1 1.08612 7.60296 1.15082
312 1 5.42907 6.41483 0.980284
313 1 5.3216 6.43776 3.92712
314 1 6.90715 1.40201 2.0112
315 1 3.55292 5.48994 7.86461
316 1 9.25448 5.0162 8.3164
317 1 7.27259 7.11673 3.10864
318 1 0.0708739 3.64909 3.70997
319 1 3.56772 2.2077 2.66916
320 1 3.76484 8.27089 3.90796
321 1 0.404297 2.61176 0.104142
322 1 3.81919 8.7068 7.59993
323 1 9.27219 2.4144 1.02178
324 1 2.15816 6.73581 8.22596
325 1 8.1728 6.82032 0.41894
326 1 5.13673 3.19185 4.10189
327 1 3.0126 2.89362 2.14811
328 1 7.97219 3.83875 4.31491
329 1 9.01746 0.378605 0.0996342
330 1 4.62377 3.63709 1.36018
331 1 1.00005 0.236983 6.35321
332 1 1.99831 2.76012 6.83922
333 1 0.712308 3.16306 0.904172
334 1 2.65656 5.63432 5.80855
335 1 8.02802 5.27786 8.85723
336 1 7.48238 5.17882 3.25125
337 1 8.0149 8.63918 2.33707
338 1 6.69991 1.1865 6.27034
339 1 7.22203 6.43598 0.852458
340 1 3.37295 7.46258 6.97628
341 1 5.47821 7.46647 8.44101
342 1 9.12345 2.42842 6.82807
343 1 4.67814 8.19547 3.45996
344 1 1.51699 4.36128 7.89602
345 1 8.15844 6.79865 5.71014
346 1 9.09996 3.32844 0.613015
347 1 7.38037 5.7049 8.08794
348 1 6.85898 1.08275 4.3803
349 1 4.03951 2.84923 1.98576
350 1 1.3812 3.40103 6.02961
351 1 6.39333 0.427101 0.466524
352 1 6.08772 6.11919 7.06081
353 1 9.16351 6.62242 6.36577
354 1 1.44459 6.16442 7.59964
355 1 0.207512 8.26171 3.71878
356 1 7.34494 2.18501 6.26306
357 1 1.50267 5.21757 6.20912
358 1 4.45621 1.49503 6.08069
359 1 0.457372 5.86295 8.08472
360 1 5.56399 2.03646 1.4167
361 1 8.08997 0.316696 5.13872
362 1 2.77757 9.27185 6.99515
363 1 0.189175 5.81298 0.759787
364 1 9.30924 2.67512 3.84309
365 1 4.61876 5.93535 8.4433
366 1 3.1406 0.912847 1.71223
367 1 8.94824 4.43427 6.37728
368 1 3.79482 6.21995 4.51753
369 1 8.72555 7.93672 1.97084
370 1 1.3914 1.39166 2.37017
371 1 1.25987 1.44639 4.69808
372 1 5.19571 4.40083 5.52227
373 1 7.4735 1.12806 6.98247
374 1 7.51952 0.734199 2.4674
375 1 2.90164 7.1662 0.4429
376 1 4.89601 4.14627 0.551298
377 1 4.38773 7.9166 7.12212
378 1 3.21931 6.19196 2.12098
379 1 8.21348 6.52002 2.36853
380 1 8.47416 5.34527 6.7201
381 1 3.52941 3.00077 8.11502
382 1 4.67206 9.24796 6.17146
383 1 2.69922 9.25311 1.65193
384 1 3.51995 9.1938 4.56074
385 1 4.52212 6.3023 0.101751
386 1 5.44281 8.74092 3.8438
387 1 0.218359 3.00541 1.89841
388 1 2.83101 9.21815 0.633631
389 1 5.90426 1.25422 6.97802
390 1 2.12498 5.22611 3.89946
391 1 8.03326 7.93975 3.14322
392 1 2.9597 5.90106 0.267981
393 1 5.17809 0.210074 4.3713
394 1 3.78717 4.13898 3.95242
395 1 5.714 2.19845 2.42665
396 1 3.36904 1.90943 0.52453
397 1 6.15887 4.83426 4.02654
398 1 8.72251 4.37998 7.4336
399 1 7.23492 0.315008 3.45596
400 1 9.33814 5.20804 4.89678
401 1 5.4157 5.82302 9.32371
402 1 1.91656 4.31886 4.55872
403 1 8.76516 3.83059 2.36327
404 1 2.38356 1.0071 2.64513
405 1 1.74766 4.37089 5.58342
406 1 4.93694 0.93269 1.49276
407 1 7.0938 8.09404 2.76074
408 1 2.45583 1.72003 1.77952
409 1 9.19042 6.28903 5.40809
410 1 5.47472 3.8397 8.70282
411 1 5.35999 3.79971 2.64884
412 1 2.70518 5.64708 2.74263
413 1 0.96722 8.28045 8.99729
414 1 7.26762 8.15854 1.74106
415 1 7.43413 8.14051 8.88804
416 1 8.80072 8.33701 0.867487
417 1 8.67763 3.20754 1.48102
418 1 6.15693 0.676395 7.99325
419 1 1.46941 2.27153 3.05256
420 1 8.37083 5.36962 7.78077
421 1 3.12556 8.22678 8.33308
422 1 5.65666 1.18557 4.70221
423 1 7.41738 4.42469 2.39657
424 1 3.85732 3.10834 2.99993
425 1 7.42073 3.93955 3.4005
426 1 9.23884 2.43643 7.81985
427 1 7.69616 2.8177 1.53912
428 1 2.01909 7.63017 2.83355
429 1 6.03901 2.20952 7.61402
430 1 7.94591 1.02833 3.42118
431 1 0.5554 4.87292 6.43924
432 1 1.36193 7.9726 2.1363
433 1 6.78612 2.29257 5.44281
434 1 8.1544 2.8838 2.49187
435 1 8.20504 7.63024 4.85564
436 1 0.277949 7.83369 8.21995
437 1 2.67337 4.59418 2.17324
438 1 2.67075 7.15093 2.05535
439 1 4.43035 2.32973 6.72258
440 1 2.29601 0.751291 1.13937
441 1 5.7823 2.02118 8.67067
442 1 3.23739 0.114205 7.9408
443 1 1.21776 4.12467 0.884083
444 1 7.54242 4.58421 7.38763
445 1 0.281124 8.40704 7.3772
446 1 8.35083 2.21786 8.26169
447 1 9.11366 4.17995 1.35062
448 1 1.15309 8.01167 3.26713
449 1 5.73689 1.29338 3.09159
450 1 1.85734 8.83968 0.178493
451 1 8.70459 3.27134 8.16815
452 1 9.27204 6.34776 2.36396
453 1 4.75732 1.21013 0.0203909
454 1 2.74368 6.54468 1.2714
455 1 1.29962 8.89994 5.60098
456 1 2.16325 5.82674 6.83106
457 1 7.36324 4.06071 5.11198
458 1 2.74467 8.75951 5.32913
459 1 8.15666 1.96881 4.99147
460 1 2.14012 2.00479 4.61052
461 1 8.42402 4.00845 5.40479
462 1 7.17066 6.51776 2.06114
463 1 1.5686 2.58291 0.362885
464 1 0.158499 7.80593 0.491454
465 1 8.94179 6.07954 7.32002
466 1 1.38592 0.69371 8.00228
467 1 4.62225 1.96673 8.50457
468 1 7.35727 7.1707 6.343
469 1 9.13161 3.49169 4.69954
470 1 9.10086 7.30294 5.62157
471 1 0.0829009 9.23766 1.00971
472 1 7.34502 3.22808 5.75159
473 1 4.96389 3.52627 6.22777
474 1 3.01851 8.41783 6.31273
475 1 8.79356 8.96936 1.71994
476 1 2.22064 4.84003 7.31841
477 1 0.495389 0.0689129 5.3513
478 1 4.71468 7.09324 0.798534
479 1 0.572219 4.24948 7.57484
480 1 0.766971 6.65551 0.921649
481 1 5.44923 2.87938 3.21077
482 1 4.40239 3.79754 2.43141
483 1 3.16935 5.19166 6.94482
484 1 1.95517 1.41505 3.55223
485 1 7.84731 7.32112 8.52338
486 1 6.55384 7.56646 8.58602
487 1 7.62789 8.38772 6.75223
488 1 8.05156 6.34167 6.75272
489 1 8.62384 1.31971 8.94188
490 1 5.0998 0.0633509 2.14456
491 1 4.47818 8.61523 1.88035
492 1 3.0071 1.47565 3.34566
493 1 0.170069 4.22255 5.55987
494 1 5.47268 1.28479 5.7842
495 1 2.46509 2.16076 2.68367
496 1 2.94134 2.99246 7.23824
497 1 2.15597 3.65476 7.44003
498 1 0.726348 2.97635 3.27885
499 1 3.77838 8.99532 8.65517
500 1 6.66158 2.59753 8.24888
501 1 5.3447 5.44008 3.68595
502 1 9.37822 0.733135 7.12516
503 1 6.54685 0.412702 6.95302
504 1 7.1165 6.44837 7.22285
505 1 4.4823 5.14599 5.82546
506 1 9.19311 6.30097 3.40373
507 1 8.93346 2.15991 2.06833
508 1 5.9316 1.06675 1.93757
509 1 5.19976 0.0160309 8.10703
510 1 1.66311 6.89596 2.28004
511 1 8.17809 0.0596022 2.98125
512 1 8.32816 4.80083 1.88126
513 1 9.17972 5.57774 1.71273
514 1 0.0527325 5.17921 7.30637
515 1 4.82161 8.81528 8.83723
516 1 2.4072 9.38546 4.63558
517 1 0.445029 1.29843 7.85579
518 1 4.44868 2.12282 0.490097
519 1 1.71415 5.78279 2.33908
520 1 2.49794 4.6926 8.46962
521 1 5.55614 8.74599 4.9358
522 1 2.90432 8.38324 7.37512
523 1 2.00292 3.236 4.18274
524 1 0.583699 0.526155 8.70847
525 1 6.64697 2.34218 1.71845
526 1 3.45953 3.61262 9.05096
527 1 2.85588 8.37546 4.34768
528 1 3.9795 3.15589 4.18359
529 1 2.5368 2.15873 7.64644
530 1 7.95789 0.818117 1.53099
531 1 8.39049 2.93572 5.40492
532 1 1.30426 4.03993 2.81758
533 1 3.06132 6.35437 8.3631
534 1 6.46635 7.34912 2.38237
535 1 4.35088 9.20849 3.85776
536 1 4.11095 1.50589 3.20553
537 1 5.47414 1.98851 0.315441
538 1 5.36324 2.08718 6.35389
539 1 8.30106 4.55902 2.99454
540 1 2.47662 5.67218 7.86416
541 1 2.46037 2.35758 0.871016
542 1 2.4482 4.69623 6.28597
543 1 2.658 9.15231 8.91823
544 1 2.05516 7.85356 7.69554
545 1 6.75428 5.66771 1.56757
546 1 4.1777 7.9917 8.27179
547 1 0.375023 8.42731 5.44921
548 1 8.75629 8.30687 5.51095
549 1 3.08395 2.20051 8.52727
550 1 3.18011 3.88983 5.94865
551 1 3.53102 6.63023 9.1763
552 1 9.01122 5.16212 9.29788
553 1 2.29172 3.47049 5.27533
554 1 4.75222 2.58599 5.74181
555 1 0.618437 2.18289 2.48023
556 1 2.33781 6.34597 5.08485
557 1 2.93392 7.32275 7.88859
558 1 5.65945 2.23691 5.19954
559 1 3.73054 5.43061 2.87649
560 1 1.2038 3.86285 3.98543
561 1 2.89819 3.41369 3.71561
562 1 8.63591 8.1222 7.30691
563 1 3.48838 8.02214 1.91751
564 1 3.63735 0.698207 3.85794
565 1 0.850046 1.11715 6.87459
566 1 0.704568 4.15486 8.55931
567 1 6.86275 7.65478 7.1017
568 1 1.38539 0.0919202 0.920676
569 1 1.51202 3.49643 8.38934
570 1 4.28225 6.28639 2.44787
571 1 0.860134 5.99351 4.92779
572 1 5.66993 4.6844 3.02282
573 1 2.50587 3.72863 1.70211
574 1 3.7569 2.94788 5.21467
575 1 1.25832 3.17494 2.22281
576 1 6.2986 4.47538 5.65698
577 1 4.81413 9.17061 0.873423
578 1 9.10626 9.21079 7.64573
579 1 6.11542 0.395469 3.72546
580 1 1.75007 0.180512 7.11515
581 1 6.50279 1.31325 5.28301
582 1 6.32828 6.75034 1.45048
583 1 0.737805 3.13852 4.46996
584 1 4.41802 3.31892 0.273564
585 1 0.965392 8.51906 6.58161
586 1 4.97178 6.60073 4.92194
587 1 9.25201 1.98275 3.14022
588 1 7.50157 1.37647 5.59873
589 1 1.78087 0.411526 2.00275
590 1 8.31199 5.77418 5.09647
591 1 4.36121 7.42194 4.23217
592 1 9.17264 9.33238 3.62571
593 1 8.01277 4.8829 5.84918
594 1 7.265 5.24014 0.4108
595 1 8.16623 7.43823 1.26704
596 1 7.91337 7.32588 7.34675
597 1 1.15354 7.69891 7.15305
598 1 1.36673 4.27498 6.72909
599 1 1.0292 9.03533 1.7795
600 1 7.56406 8.73105 3.51726
601 1 0.456473 7.23591 3.43278
602 1 8.92855 4.48478 3.93327
603 1 2.75861 4.58604 5.22107
604 1 5.14062 8.29102 7.99914
605 1 3.5499 4.65001 8.72648
606 1 2.16873 2.58658 5.845
607 1 3.15803 0.752685 0.580605
608 1 5.59021 7.76053 0.507758
609 1 0.88899 2.27436 1.36316
610 1 7.70404 3.75179 8.4048
611 1 6.54137 1.42341 1.0293
612 1 1.61454 5.31397 8.23867
613 1 6.46536 0.630955 2.74881
614 1 2.15409 9.0222 7.85098
615 1 0.817024 1.36481 3.27899
616 1 1.18355 5.17781 4.38087
617 1 0.740128 5.88432 1.76998
618 1 5.92097 3.69737 0.470473
619 1 4.17585 4.96639 6.71832
620 1 8.79019 5.06642 0.887195
621 1 0.344452 1.64576 4.24962
622 1 7.20803 9.11488 2.52236
623 1 4.77885 8.98183 7.23009
624 1 8.32406 2.55309 0.601508
625 1 0.482869 4.95934 1.21964
626 1 1.92366 6.17635 3.26769
627 1 9.10951 0.254314 2.60016
628 1 1.14965 2.61276 8.78714
629 1 2.84584 5.92251 3.75204
630 1 3.21985 6.32247 7.29261
631 1 5.28987 7.6422 4.96321
632 1 3.44572 7.22867 4.54838
633 1 0.379848 7.67953 2.48894
634 1 4.31639 4.83643 3.41442
635 1 3.54652 3.69142 1.74229
636 1 8.77758 7.25993 8.00084
637 1 2.22182 5.9522 8.8418
638 1 5.18409 6.55282 6.56016
639 1 1.3258 1.05447 9.14678
640 1 8.43022 3.27815 9.25036
641 1 2.66283 6.61011 6.34317
642 1 7.78691 1.86622 9.25616
643 1 7.28408 8.08699 4.42182
644 1 4.14684 0.289146 1.49226
645 1 3.42438 1.93047 7.27104
646 1 4.27557 6.13231 5.491
647 1 5.58573 1.05591 0.730309
648 1 5.94634 4.06912 4.7414
649 1 4.14531 6.91622 6.29934
650 1 5.23256 2.90113 7.12407
651 1 6.35792 5.83755 0.619409
652 1 3.74808 8.88891 5.64154
653 1 7.49286 0.0174569 6.78065
654 1 4.45172 6.92549 8.62294
655 1 4.44992 7.79354 2.53202
656 1 6.10332 1.10632 9.1541
657 1 5.83816 8.86213 0.461807
658 1 3.06766 7.63746 3.52665
659 1 8.00499 3.66682 7.40653
660 1 6.1559 6.11575 2.36905
661 1 5.60158 4.77476 0.0729887
662 1 7.37423 5.49608 6.86849
663 1 2.98069 8.29982 0.0865488
664 1 0.0801109 7.32123 7.12705
665 1 4.00984 1.16924 2.09894
666 1 1.436 1.99849 6.31837
667 1 8.66759 1.4706 1.2283
668 1 6.17561 6.87821 3.3452
669 1 1.71235 4.28641 1.91937
670 1 6.47802 1.99357 4.5084
671 1 1.56854 5.27682 1.42971
672 1 5.19594 5.11828 8.55761
673 1 1.96627 1.54582 0.433858
674 1 0.738498 6.87881 7.78169
675 1 4.01214 8.50895 0.132566
676 1 6.08453 6.62904 8.71582
677 1 7.22886 7.17822 9.3971
678 1 7.9409 3.95857 6.36738
679 1 8.03495 0.659513 6.16643
680 1 0.822137 6.2409 3.8074
681 1 3.61521 8.32038 2.83868
682 1 2.8821 4.55428 4.1993
683 1 3.83155 1.5665 8.97818
684 1 7.55877 9.09965 8.57023
685 1 7.70564 5.89437 5.89984
686 1 1.42895 6.81391 6.61524
687 1 5.35822 3.26845 5.15236
688 1 7.84424 7.34316 3.96521
689 1 9.21647 7.81894 4.70048
690 1 2.18199 1.02898 4.53951
691 1 3.98199 1.23042 1.04606
692 1 8.872 8.49913 2.96784
693 1 8.76013 1.36769 6.56318
694 1 2.82668 8.26413 1.14456
695 1 4.23542 1.32807 7.72975
696 1 7.61627 5.52121 2.20259
697 1 4.16846 4.18339 5.83419
698 1 4.0259 3.24472 6.27327
699 1 0.38552 6.99727 4.56296
700 1 8.99466 9.04241 4.67167
701 1 5.22006 0.808203 7.48476
702 1 0.783996 6.78801 5.60424
703 1 6.69606 6.27383 6.14257
704 1 6.64082 4.70256 9.18123
705 1 6.4158 2.23633 6.58239
706 1 2.53269 1.79457 6.63987
707 1 6.96007 2.22496 2.81502
708 1 4.621 8.45426 4.61064
709 1 2.2893 7.61231 6.719
710 1 1.99088 5.78103 0.608691
711 1 2.07277 2.19296 8.73949
712 1 2.09099 4.08917 3.58914
713 1 0.542738 5.83737 6.09742
714 1 1.48912 2.77528 5.06827
715 1 3.83144 4.87495 4.95048
716 1 4.23736 1.61367 4.2659
717 1 4.27078 6.15563 7.1317
718 1 5.86506 2.96966 6.10933
719 1 9.00565 5.27252 5.82377
720 1 7.1224 6.12891 3.0284
721 1 2.25464 4.49698 1.07335
722 1 7.95052 3.87078 1.70744
723 1 0.529399 3.24463 8.05801
724 1 0.108444 0.761277 6.1495
725 1 4.66985 8.15652 0.822178
726 1 9.1128 1.06595 3.42353
727 1 3.34547 6.51821 5.44762
728 1 7.5708 1.84403 0.893427
729 1 1.45443 0.344974 4.36908
730 1 8.65376 4.23857 0.326757
731 1 2.05233 2.6809 1.73913
732 1 6.48314 8.8127 4.1844
733 1 2.58159 8.47615 3.18963
734 1 1.14806 5.40065 3.26148
735 1 7.9158 1.12613 4.48917
736 1 5.36533 6.83748 0.0197634
737 1 0.499716 4.52707 3.39898
738 1 3.76457 8.73234 1.09586
739 1 3.78452 5.69621 8.8901
740 1 7.90233 8.98591 5.85764
741 1 3.44833 9.18456 3.33564
742 1 6.80624 3.60883 4.24034
743 1 8.97353 0.675349 8.30205
744 1 3.4866 2.3224 3.68367
745 1 2.93052 3.74574 0.717904
746 1 1.56191 0.554266 3.16787
747 1 1.35651 1.27433 1.34309
748 1 4.57596 5.22612 7.67756
749 1 7.27974 7.5456 0.891711
750 1 8.44653 2.11894 5.95465
751 1 6.22124 7.07144 7.70294
752 1 4.46261 3.39241 8.61237
753 1 7.07232 6.72006 8.30086
754 1 3.3712 0.514669 8.95351
755 1 1.63307 6.10747 5.86303
756 1 3.64901 5.86954 6.25455
757 1 0.60123 0.771521 0.396549
758 1 4.77122 7.69486 9.22258
759 1 4.38591 6.00299 3.48607
760 1 4.60209 2.18209 2.5763
761 1 1.04014 1.12512 5.73666
762 1 6.7956 8.9739 9.3433
763 1 7.46265 2.7397 8.84748
764 1 2.22718 3.74387 9.23549
765 1 1.45488 9.22579 8.5966
766 1 7.19037 3.07476 6.81442
767 1 6.46509 3.30417 5.23722
768 1 4.32675 4.96713 0.952964
769 1 9.29071 8.16774 6.45212
770 1 0.914779 7.25161 9.38678
771 1 6.21665 2.57426 0.73553
772 1 5.23082 0.141509 3.2326
773 1 3.05969 7.41394 5.92974
774 1 9.05491 3.33315 6.07524
775 1 0.281867 5.56567 2.77731
776 1 3.85022 2.63023 9.14276
777 1 5.50949 6.81572 2.00401
778 1 8.5853 5.9503 0.347008
779 1 0.314788 1.07416 5.06683
780 1 7.65571 5.57543 4.18866
781 1 8.33413 0.0526805 0.895541
782 1 2.06818 0.449646 0.141461
783 1 8.42882 7.46119 6.45509
784 1 2.9528 0.370925 5.44508
785 1 1.45849 7.07948 3.64859
786 1 1.12952 5.14422 7.3285
787 1 0.895901 8.56768 0.586834
788 1 7.24315 7.14257 4.82142
789 1 8.63814 9.16341 8.58535
790 1 5.6751 3.86943 7.64901
791 1 8.1842 2.02336 3.1179
792 1 1.80114 6.17967 4.31891
793 1 7.3427 8.25618 7.81621
794 1 6.44405 5.51649 8.58803
795 1 1.15096 3.3397 7.23517
796 1 6.47716 4.04896 2.78172
797 1 9.17618 2.46091 5.01664
798 1 3.38548 1.62403 6.15179
799 1 4.54602 2.54334 3.50349
800 1 9.11452 8.43051 9.04598
801 2 4.47508 3.40669 5.4899
802 2 0.400603 7.58664 5.21025
803 2 3.2139 1.44252 2.50207
804 2 9.10569 1.77577 8.42184
805 2 6.21992 1.35207 3.89611
806 2 7.76695 6.0624 0.280369
807 2 3.64839 2.38395 4.58891
808 2 3.53862 6.29132 2.95359
809 2 5.26153 3.43757 -0.00282134
810 2 9.28563 5.66326 6.60154
811 2 7.20286 3.89866 6.85507
812 2 3.88895 4.14402 3.05304
813 2 0.122214 1.65946 6.99234
814 2 1.83094 3.00891 9.08869
815 2 5.72912 3.81679 5.8167
816 2 3.35276 9.09821 9.38224
817 2 2.91839 7.69317 2.67366
818 2 5.94411 8.11398 4.18003
819 2 8.84383 0.433418 6.48834
820 2 0.0922086 2.77305 8.65801
821 2 4.03642 1.50194 6.83032
822 2 8.32941 8.31465 6.29464
823 2 7.84728 6.75422 1.60928
824 2 3.57046 7.08033 8.43637
825 2 5.67959 5.09323 5.80322
826 2 4.43631 2.78126 1.19301
827 2 6.5047 4.78461 4.85836
828 2 6.76068 1.14818 7.43742
829 2 7.57414 3.50429 9.30414
830 2 8.12526 5.05279 0.301776
831 2 6.30254 1.62231 2.62906
832 2 7.08485 8.98177 6.11412
833 2 2.36431 1.54766 8.34954
834 2 4.27664 5.00137 8.50936
835 2 4.4668 5.86065 6.27941
836 2 5.92002 7.43485 9.16765
837 2 4.24868 0.299568 2.31606
838 2 7.22544 0.730503 5.05692
839 2 0.319871 2.84824 7.25475
840 2 7.99204 4.62047 8.19731
841 2 0.10342 4.57626 8.96894
842 2 3.43645 5.29801 2.03919
843 2 3.121 9.40912 6.18921
844 2 6.88162 5.47653 3.817
845 2 3.53972 7.864 7.69673
846 2 2.59479 2.07726 0.0888426
847 2 0.732255 4.97819 8.06323
848 2 9.09337 5.0714 3.22642
849 2 1.11054 7.30362 2.79947
850 2 2.80986 9.12754 3.79218
851 2 4.80773 4.49759 6.27835
852 2 9.31496 2.48086 5.91512
853 2 2.67488 5.14637 0.844994
854 2 7.39987 1.18828 8.69845
855 2 2.93156 5.32729 8.92562
856 2 6.78858 4.63127 3.41098
857 2 8.40173 5.89133 1.85115
858 2 3.94893 3.94034 8.27547
859 2 6.08123 0.577193 5.76208
860 2 4.79133 7.49407 7.80389
861 2 6.44027 6.24765 7.93437
862 2 1.50552 7.06141 7.5386
863 2 9.07219 4.41657 4.86772
864 2 8.57249 6.07511 6.06852
865 2 9.02649 8.46632 8.07929
866 2 8.25227 4.39214 1.04104
867 2 5.04493 8.63092 0.258935
868 2 8.01436 4.54601 3.77246
869 2 2.98529 1.31244 5.21581
870 2 2.92778 3.03734 5.54846
871 2 6.68571 2.90535 6.13622
872 2 8.93994 6.92524 4.84961
873 2 5.22455 1.58066 2.1666
874 2 7.00053 7.28693 1.68463
875 2 5.83138 6.01736 6.24905
876 2 7.22255 7.9057 3.58061
877 2 1.04232 2.51669 5.80883
878 2 8.64993 6.93442 7.11996
879 2 3.97902 4.05761 6.68032
880 2 4.53546 6.63875 4.21025
881 2 7.30518 1.77208 4.84365
882 2 4.75411 6.57653 1.6137
883 2 5.64882 0.618188 2.62497
884 2 7.83795 3.36561 5.02731
885 2 4.91833 1.58426 0.951121
886 2 4.3431 0.605222 3.23357
887 2 3.64017 8.35375 6.84949
888 2 4.60198 6.95887 7.02378
889 2 1.44173 3.10616 1.39416
890 2 8.79986 7.08571 1.90827
891 2 3.85943 2.03028 8.04027
892 2 5.69451 7.2112 1.05201
893 2 3.76829 2.79601 7.06309
894 2 2.39807 6.28842 2.05006
895 2 0.215455 9.3759 1.8855
896 2 3.99472 4.30054 1.43817
897 2 5.80467 8.79407 8.21229
898 2 4.81935 3.43227 7.84349
899 2 4.71227 8.43314 6.58945
900 2 1.64677 2.02236 5.35128
901 2 6.17149 7.87537 6.73351
902 2 1.06154 5.86426 0.951128
903 2 3.00306 4.71251 7.76497
904 2 1.59144 5.4026 9.15791
905 2 3.96171 6.33286 8.07601
906 2 9.36581 3.94015 8.15673
907 2 2.80776 3.07199 1.26597
908 2 3.22963 7.28185 1.36883
909 2 3.53064 5.61346 5.43077
910 2 0.0633301 6.34041 1.53288
911 2 6.62773 8.43602 8.70408
912 2 5.89608 4.36232 2.27933
913 2 0.62329 2.19563 3.4534
914 2 5.07156 5.92525 7.26125
915 2 5.55597 3.64445 6.79898
916 2 2.99582 2.83992 2.98719
917 2 7.23292 7.47445 7.91039
918 2 4.83026 4.50885 2.77608
919 2 8.23679 0.286156 2.08808
920 2 5.2567 6.57024 8.50659
921 2 1.35152 4.62417 3.67475
922 2 5.19049 1.20595 6.58054
923 2 4.87375 1.868 5.26015
924 2 2.21006 3.93753 8.24825
925 2 5.6643 7.77847 2.139
926 2 3.95782 2.30316 6.02901
927 2 7.92923 1.54835 6.37958
928 2 7.34114 6.60597 5.63774
929 2 2.63061 6.5621 9.2548
930 2 0.742674 2.31249 8.15468
931 2 5.12243 1.96349 3.22335
932 2 1.39933 1.90916 9.17586
933 2 8.51774 1.76664 0.425352
934 2 5.47672 4.4544 1.03087
935 2 7.95515 3.70967 2.72122
936 2 3.95783 1.08032 0.242884
937 2 5.66653 5.48583 2.69206
938 2 4.74666 0.683113 5.92804
939 2 5.51114 5.98498 4.77559
940 2 3.86481 5.76164 0.406998
941 2 2.71357 1.43054 0.978489
942 2 0.548423 6.74735 6.44358
943 2 5.90739 2.86336 1.47503
944 2 7.19305 5.39561 8.93525
945 2 8.45435 2.75091 7.43681
946 2 9.05324 4.14324 3.14138
947 2 5.37523 8.86361 5.8028
948 2 1.2589 1.11146 3.93609
949 2 7.02879 7.89456 5.32839
950 2 7.27955 0.938168 0.982202
951 2 1.68331 2.12374 1.16607
952 2 1.97182 7.14078 8.96344
953 2 2.93966 4.26881 9.21448
954 2 4.31952 0.650879 4.30677
955 2 7.2618 9.1387 7.49261
956 2 8.56295 2.76093 3.37216
957 2 4.81095 6.803 5.80123
958 2 3.02709 0.610242 4.48896
959 2 4.1881 7.92688 1.45405
960 2 9.31981 6.5817 7.8809
961 2 1.91021 8.90734 1.87348
962 2 4.67256 3.04203 2.74189
963 2 1.2142 5.9342 6.70377
964 2 3.89253 6.26386 1.65423
965 2 0.503408 0.502285 3.2883
966 2 7.39268 1.50599 2.74938
967 2 8.1847 0.375126 8.11628
968 2 9.07658 1.66675 4.78501
969 2 4.15634 7.0849 0.172014
970 2 5.96679 5.93497 1.43418
971 2 4.71292 0.640616 0.611985
972 2 6.10823 3.50697 8.27626
973 2 5.74819 1.44042 7.85525
974 2 7.66681 2.46095 5.48344
975 2 8.80271 6.55424 9.08666
976 2 2.97389 6.41116 4.4765
977 2 1.7602 4.37209 0.295245
978 2 8.98428 8.92119 0.328856
979 2 2.205 4.12205 2.65618
980 2 8.17268 4.6213 6.80966
981 2 3.36635 0.146306 1.21605
982 2 0.968046 4.1577 5.97412
983 2 9.32811 0.68091 0.92616
984 2 4.46985 8.94242 8.08377
985 2 6.94436 4.90481 1.86626
986 2 7.40521 2.08206 8.23269
987 2 6.49548 6.37468 5.34592
988 2 6.80835 2.53386 3.97448
989 2 1.46222 2.21929 2.12368
990 2 8.08899 8.43939 1.46522
991 2 4.72019 7.0332 2.39571
992 2 8.78547 7.43964 0.64972
993 2 8.45155 2.35277 1.42326
994 2 1.28223 0.169109 9.29604
995 2 2.62358 3.77337 4.45349
996 2 1.44592 7.85476 6.367
997 2 1.49681 0.855901 0.627063
998 2 6.18529 1.8473 5.86532
999 2 1.57849 3.26429 3.31434