#bin. KALJ data file T=0.5

1000 atoms
2 atom types

0 9.4 xlo xhi
0 9.4 ylo yhi
0 9.4 zlo zhi

Masses

1 1.0
2 1.0

Atoms

1 1 6.74757 7.64674 4.24274
2 1 1.82159 3.92053 1.23135
3 1 4.21028 2.41799 4.11356
4 1 0.386454 5.74126 0.507596
5 1 1.95692 0.313307 6.16385
6 1 5.59674 8.2302 5.68067
7 1 5.66666 7.50837 4.84475
8 1 3.11452 1.05486 7.24628
9 1 1.53181 5.66816 4.85357
10 1 0.817377 4.20387 9.17559
11 1 4.74481 9.23479 6.2451
12 1 7.32031 1.7948 1.37057
13 1 8.05043 9.3045 5.50639
14 1 4.73449 4.53119 7.578
15 1 0.519841 9.15194 8.41407
16 1 1.14887 9.24469 6.63502
17 1 7.46658 3.78472 1.75479
18 1 5.78868 6.50373 7.79273
19 1 4.70908 6.26761 7.35318
20 1 7.93782 4.09384 7.49712
21 1 8.51703 5.04871 7.39375
22 1 0.454486 3.23049 7.33863
23 1 5.89101 0.226456 9.1737
24 1 8.11389 7.43476 5.8845
25 1 8.12082 1.57925 2.9522
26 1 5.24879 2.81369 3.90251
27 1 0.7589 0.32846 2.36503
28 1 3.98201 1.7226 2.5059
29 1 0.354625 2.0925 3.4891
30 1 7.72225 3.96253 4.43341
31 1 2.0373 2.22035 1.85246
32 1 2.32988 4.14539 6.85442
33 1 5.59841 8.88361 0.417911
34 1 4.93588 -0.0256579 2.09829
35 1 3.38561 3.00265 4.67164
36 1 3.71607 2.57855 3.14858
37 1 5.14207 5.45585 7.8846
38 1 0.263188 1.56541 0.81304
39 1 6.52459 8.00498 0.711004
40 1 1.57319 7.76513 9.01663
41 1 5.74585 1.90828 8.99711
42 1 0.766521 0.57136 3.65713
43 1 3.12776 8.63816 7.13728
44 1 2.87508 0.105721 5.71695
45 1 1.85813 8.20008 3.84456
46 1 0.188833 6.08438 2.41651
47 1 1.44999 1.29951 2.19924
48 1 4.97367 7.39434 4.04591
49 1 3.105 4.10766 4.36697
50 1 8.81791 3.88096 4.30013
51 1 8.30331 5.62976 3.17187
52 1 7.35886 0.884804 3.06302
53 1 2.29946 0.464578 3.68967
54 1 9.14417 6.32608 8.20365
55 1 0.694591 3.84309 4.43223
56 1 1.24342 6.47881 4.23345
57 1 2.30042 7.07647 6.16278
58 1 6.26354 6.27111 3.15723
59 1 5.75001 9.10694 6.2577
60 1 1.98014 8.58311 4.75692
61 1 2.07871 8.83546 1.1731
62 1 7.63689 0.102618 0.113017
63 1 6.37043 3.00134 6.80964
64 1 1.09674 7.18305 1.20049
65 1 6.08132 0.347415 3.73608
66 1 3.41223 1.8414 0.430092
67 1 6.89438 7.72121 9.23627
68 1 5.25363 7.43853 8.07179
69 1 7.07013 6.14078 0.60478
70 1 6.54958 3.54136 2.27266
71 1 9.16121 2.33789 0.418919
72 1 5.04209 1.55192 2.54538
73 1 4.00275 7.50449 5.97992
74 1 4.36324 0.840983 1.79312
75 1 6.61823 3.44557 1.24949
76 1 0.0529784 -0.0218953 1.64044
77 1 0.657023 0.188084 4.65321
78 1 2.68962 7.49715 2.06413
79 1 7.23904 0.956717 8.80014
80 1 1.01011 0.339681 9.1244
81 1 2.30343 7.82269 6.94929
82 1 7.17939 1.63769 2.36032
83 1 4.69855 5.713 5.42247
84 1 0.901279 4.1512 5.5218
85 1 3.06981 1.78693 7.94396
86 1 3.30042 2.59718 8.66008
87 1 2.85295 4.46461 2.49532
88 1 8.85919 1.66191 8.62102
89 1 5.21181 3.98206 4.99418
90 1 5.37475 7.44028 1.78191
91 1 9.13447 5.91383 5.15483
92 1 8.37503 8.44336 0.345288
93 1 3.77971 0.09455 6.6914
94 1 0.97961 6.52013 6.18401
95 1 8.58014 8.29732 5.20646
96 1 6.74019 6.99375 8.03027
97 1 1.66936 5.19798 2.10471
98 1 5.08484 9.07688 3.08511
99 1 5.30263 9.08098 7.18062
100 1 0.838111 8.04989 8.38199
101 1 4.77171 5.91483 6.42272
102 1 2.81559 2.05986 4.36193
103 1 4.13196 8.45034 6.55839
104 1 3.35692 6.14583 3.03498
105 1 0.42207 1.35446 4.2523
106 1 7.92586 1.65573 6.19677
107 1 7.28277 6.61089 2.3592
108 1 8.13065 0.658976 3.79416
109 1 7.31071 0.335717 2.22485
110 1 0.263097 4.21882 7.64641
111 1 9.26805 2.51941 7.94946
112 1 5.49634 1.79248 1.48625
113 1 2.74661 4.54405 1.47873
114 1 1.91405 4.23227 2.21666
115 1 5.01386 8.29392 4.68196
116 1 6.76012 1.99409 8.77292
117 1 7.46106 8.62418 9.11061
118 1 7.66413 1.87415 7.25231
119 1 3.69695 1.78116 6.98772
120 1 1.94961 7.89805 7.89663
121 1 3.80248 9.12377 5.49596
122 1 1.82939 7.94508 1.58666
123 1 3.35158 5.00118 5.13143
124 1 1.66542 1.13672 5.70669
125 1 5.49925 5.01763 5.1248
126 1 7.36802 5.0388 3.60465
127 1 4.53669 7.97195 3.2873
128 1 6.93516 5.98475 8.30369
129 1 1.36929 6.98443 8.23314
130 1 2.92764 2.30308 5.38478
131 1 8.68216 2.92574 2.52804
132 1 9.17486 0.471297 4.23529
133 1 5.4219 1.15682 3.65812
134 1 1.17993 6.19085 1.94334
135 1 7.65955 4.75026 5.27899
136 1 8.05049 7.98195 6.88689
137 1 2.2601 3.67719 8.08416
138 1 4.35484 2.07585 1.1742
139 1 0.241933 1.55924 7.29811
140 1 6.29561 3.89478 3.28875
141 1 2.62296 0.220333 1.67319
142 1 4.52715 7.47946 0.522988
143 1 4.91029 4.54505 8.62613
144 1 1.73891 2.18748 4.04971
145 1 8.49567 4.94063 9.34019
146 1 4.88811 1.09539 0.907741
147 1 4.74229 2.92639 7.52958
148 1 3.00137 6.20156 7.35783
149 1 2.8053 8.89977 3.91411
150 1 8.9081 6.43503 3.19916
151 1 8.96832 8.98697 5.96694
152 1 8.86646 9.35574 8.41793
153 1 2.34516 5.48856 8.45069
154 1 4.5151 6.97709 1.54204
155 1 9.37606 5.40511 3.28051
156 1 7.91243 7.52574 4.86835
157 1 7.04021 5.97688 7.13625
158 1 2.35838 7.23902 8.63415
159 1 1.24116 6.68027 7.17536
160 1 2.82508 4.44842 8.53881
161 1 1.33732 1.8125 6.54147
162 1 0.116601 3.51909 8.48185
163 1 9.04305 2.8595 3.53359
164 1 3.40604 0.727074 0.0442445
165 1 4.51325 5.97949 1.04517
166 1 6.12101 6.0727 1.09106
167 1 2.48298 6.86212 2.78561
168 1 6.64345 5.09588 1.05763
169 1 1.38138 6.06283 8.6158
170 1 0.174454 3.80788 3.56669
171 1 5.50112 5.97347 0.222299
172 1 2.35147 3.17384 6.31786
173 1 5.88959 4.32686 0.960735
174 1 3.74655 4.54372 7.85373
175 1 6.14854 5.43719 7.67411
176 1 2.87908 1.72744 6.39895
177 1 4.53011 7.93691 2.20323
178 1 6.53039 4.41761 1.79582
179 1 5.29546 0.618222 5.72169
180 1 0.860284 8.00693 3.03599
181 1 8.47353 7.19926 2.64761
182 1 0.763164 2.45171 4.39173
183 1 2.84636 2.74978 0.328223
184 1 6.08766 7.53774 8.62839
185 1 1.34924 7.68505 6.14987
186 1 1.17638 3.74028 3.05751
187 1 0.827853 1.04703 5.09522
188 1 1.65856 7.04016 2.17035
189 1 4.83874 7.10672 2.7506
190 1 5.47307 8.22052 3.67527
191 1 4.34785 4.83036 6.44106
192 1 0.337593 0.387781 0.506569
193 1 3.67148 9.03346 0.213262
194 1 7.81388 9.09412 2.90177
195 1 8.22953 9.17966 4.51936
196 1 0.0354927 0.292788 3.07545
197 1 6.27522 6.39426 5.29654
198 1 8.71705 1.31832 0.355269
199 1 6.37031 0.361853 5.66873
200 1 3.53287 1.5873 8.85036
201 1 4.81427 1.3374 4.47258
202 1 0.168779 6.59301 4.31078
203 1 6.35221 8.79097 6.99098
204 1 6.12324 2.19934 0.760255
205 1 5.24394 0.77256 7.26836
206 1 1.38518 8.5919 5.67972
207 1 4.41861 1.47476 3.48416
208 1 8.97356 4.53597 2.99964
209 1 8.08472 9.0466 6.66714
210 1 1.2344 2.14892 8.62257
211 1 8.9667 7.66517 0.106734
212 1 6.9699 7.24397 3.29379
213 1 1.15135 4.71748 4.47718
214 1 9.01773 0.735202 1.16055
215 1 4.70452 5.25635 4.4034
216 1 5.86727 8.05647 7.64541
217 1 3.49633 0.939642 6.11965
218 1 2.57183 2.50036 3.41575
219 1 8.04965 5.68429 0.521273
220 1 1.22807 1.13814 7.44157
221 1 8.88943 7.41368 7.06828
222 1 5.30052 5.38113 1.12025
223 1 0.516628 0.409892 7.40145
224 1 7.33915 5.85683 5.35118
225 1 7.08564 4.78793 7.38094
226 1 2.90138 8.64434 5.20299
227 1 6.75412 5.75951 4.5314
228 1 8.89812 0.184478 7.04422
229 1 3.42875 1.86533 1.54192
230 1 5.05954 8.5229 8.10351
231 1 5.66396 6.77288 6.19963
232 1 5.015 4.33082 1.49563
233 1 7.30934 8.26109 3.29079
234 1 6.28747 8.93805 1.20059
235 1 8.86141 6.7693 6.21421
236 1 8.66477 4.44691 5.86682
237 1 8.03409 1.18195 1.94791
238 1 7.14838 3.77 6.86664
239 1 4.93193 8.04026 7.15003
240 1 2.00094 2.27724 5.94733
241 1 4.5187 5.33998 1.83345
242 1 5.79254 5.31763 8.69792
243 1 1.16472 6.56826 0.272327
244 1 5.24289 6.52029 5.31608
245 1 5.66652 2.99302 2.73702
246 1 7.49806 2.95237 3.9731
247 1 3.66645 3.87619 2.65263
248 1 4.50126 8.34285 5.59806
249 1 4.97581 3.11219 5.78438
250 1 6.29082 6.62329 4.18455
251 1 6.17035 0.56066 6.64845
252 1 0.037905 4.74631 4.18031
253 1 2.91581 6.15329 0.59892
254 1 6.08675 1.41809 2.24914
255 1 7.23964 5.92095 1.58381
256 1 9.22261 3.48784 0.740257
257 1 5.58965 0.692244 4.6049
258 1 2.01709 8.92874 3.13183
259 1 3.29071 6.6597 5.80776
260 1 2.86723 3.11342 2.60441
261 1 8.80338 7.42567 8.31322
262 1 1.2981 1.80685 1.16697
263 1 7.83359 4.66944 2.82315
264 1 9.23263 8.37486 7.97054
265 1 5.61783 2.98432 4.89937
266 1 8.98214 5.20141 0.826111
267 1 7.72593 3.08735 0.988335
268 1 5.31008 1.02295 9.29874
269 1 0.810408 8.3554 1.38991
270 1 1.86757 7.86639 2.72019
271 1 4.32372 6.16572 2.58206
272 1 1.46048 4.60695 0.519085
273 1 5.60581 4.0272 2.33544
274 1 4.58939 6.49098 0.0955776
275 1 6.12414 7.12081 2.43623
276 1 9.12615 8.35291 1.52108
277 1 3.51438 9.31149 4.50197
278 1 1.11649 2.24055 5.47364
279 1 0.319006 5.43743 1.55445
280 1 3.29421 0.944746 3.07813
281 1 7.22324 7.1484 0.613135
282 1 0.975316 3.59494 2.03292
283 1 8.49549 8.22438 4.22241
284 1 6.66779 6.90292 1.4914
285 1 6.65781 9.26934 2.99344
286 1 2.0934 2.38506 6.93587
287 1 4.2202 8.38759 8.76534
288 1 0.667556 8.51552 3.98205
289 1 5.42283 0.789845 1.74824
290 1 4.1764 7.85289 7.91279
291 1 6.06732 2.69878 8.46249
292 1 2.29711 6.27394 5.46757
293 1 8.40011 2.8242 4.4167
294 1 0.576495 3.69643 6.44311
295 1 6.67631 4.53465 4.18671
296 1 7.18354 7.57691 2.33362
297 1 6.311 7.37784 5.76543
298 1 2.87961 4.85902 6.15203
299 1 3.56761 8.25888 3.76369
300 1 9.1211 4.06797 9.22988
301 1 3.47945 0.178599 7.6648
302 1 6.36487 0.090657 4.72192
303 1 0.483078 1.22616 2.82627
304 1 8.46197 5.8715 6.78968
305 1 1.96745 0.45856 8.74399
306 1 2.70214 7.73917 1.08305
307 1 5.42893 9.16048 4.14352
308 1 2.07091 1.18905 6.78798
309 1 7.87883 5.75429 7.83355
310 1 7.36855 3.97221 3.49642
311 1 8.09587 6.67553 0.221273
312 1 6.24291 6.90678 0.446586
313 1 6.68289 4.75588 2.78707
314 1 6.02628 3.65841 4.23408
315 1 3.41263 4.35223 6.88026
316 1 9.11504 3.10639 6.28132
317 1 8.01449 9.00549 1.79088
318 1 8.35913 3.60334 3.48133
319 1 3.34138 0.917722 1.98492
320 1 3.72544 6.08854 5.05657
321 1 0.53865 2.61566 1.29198
322 1 1.16954 7.93067 4.83083
323 1 2.82112 4.66931 3.5161
324 1 1.78163 5.86478 7.69243
325 1 6.27953 7.95409 1.81408
326 1 4.89531 2.04544 6.03663
327 1 5.45875 2.92103 9.21166
328 1 7.24096 6.0556 3.68658
329 1 9.30555 8.4904 8.97085
330 1 3.4785 5.26335 1.13417
331 1 1.34123 1.4055 3.49255
332 1 2.77439 1.09223 4.4399
333 1 0.919386 4.55811 1.60794
334 1 1.956 8.8475 7.32787
335 1 2.46099 5.51461 1.26115
336 1 6.99538 7.90203 5.21154
337 1 8.23338 0.933971 5.03981
338 1 6.30028 2.03937 6.75701
339 1 2.0938 4.22586 5.82826
340 1 4.38096 8.85447 4.02283
341 1 5.65755 5.98141 6.86533
342 1 8.09697 2.15489 0.786363
343 1 8.76247 7.02278 1.68063
344 1 0.394698 1.61358 8.3162
345 1 0.155351 5.23379 7.11262
346 1 0.836468 1.42726 9.38448
347 1 7.21153 6.79172 9.00854
348 1 6.76755 0.44704 7.53937
349 1 3.47909 2.78661 1.06685
350 1 2.20483 4.81197 4.90425
351 1 5.45628 7.93099 2.64719
352 1 4.23517 7.31755 6.97318
353 1 7.44386 5.43049 6.29168
354 1 1.13957 7.89072 7.21464
355 1 7.89121 6.63276 3.26533
356 1 5.36171 2.73547 6.70512
357 1 9.13112 4.51827 1.66154
358 1 5.68966 5.6625 5.91818
359 1 3.60167 6.59707 9.00606
360 1 5.09451 1.46357 8.10226
361 1 7.37087 0.790273 5.75284
362 1 1.62294 0.276347 1.67358
363 1 7.65352 3.28449 2.59298
364 1 1.99734 1.69187 4.89948
365 1 2.85346 6.3546 8.36868
366 1 5.86992 0.484783 0.751949
367 1 1.81501 4.41652 8.83644
368 1 0.665507 6.13754 3.41393
369 1 8.10062 7.56405 0.965968
370 1 2.32224 6.30803 9.2499
371 1 9.19924 1.31946 5.12343
372 1 5.58 2.20276 7.59279
373 1 6.36933 4.61228 0.084606
374 1 8.15337 1.95553 5.01797
375 1 3.74972 7.65432 1.42268
376 1 4.17492 3.77878 1.03397
377 1 3.03805 7.75261 7.78796
378 1 5.91162 7.30384 3.47413
379 1 6.136 4.11922 6.93986
380 1 7.32869 2.59208 6.63451
381 1 5.5667 1.5578 5.38304
382 1 4.96875 7.48169 6.13499
383 1 0.607193 7.7538 0.0857602
384 1 4.3267 0.532819 2.72908
385 1 4.96018 6.50546 8.39955
386 1 8.7342 5.2632 2.31926
387 1 0.418486 8.72835 2.31886
388 1 4.42028 0.952716 8.59477
389 1 6.68576 1.19867 4.9815
390 1 1.91972 5.33882 3.96117
391 1 8.30635 8.15567 3.0526
392 1 5.31726 6.72704 0.990694
393 1 8.48498 6.83956 4.34799
394 1 5.53652 4.51898 4.09058
395 1 7.86458 0.451 1.2571
396 1 4.70937 2.42962 2.07299
397 1 6.13859 3.62858 5.5761
398 1 6.76135 4.98074 8.61981
399 1 8.3256 0.564615 2.76398
400 1 0.344809 3.09486 2.76601
401 1 6.47322 5.64227 -0.0142881
402 1 1.15049 2.6682 3.18167
403 1 1.50019 2.93683 1.19843
404 1 4.23044 8.82816 2.73509
405 1 1.97047 5.29026 5.80793
406 1 5.07599 2.07065 0.436638
407 1 6.90255 0.381733 0.839777
408 1 4.17193 1.87906 8.01414
409 1 2.61828 3.32117 5.32765
410 1 8.73472 2.77744 1.40025
411 1 5.61947 2.04827 3.25741
412 1 2.90447 6.80285 4.62735
413 1 1.10653 9.18811 0.777894
414 1 6.34281 1.25138 1.22383
415 1 6.77433 9.38291 8.49174
416 1 0.024354 8.79006 0.646288
417 1 6.3578 1.29975 3.28454
418 1 4.54759 1.26454 5.4753
419 1 9.34864 3.47424 1.88999
420 1 9.31011 3.10714 4.6445
421 1 0.438635 7.27061 6.64667
422 1 7.12973 1.97929 4.47525
423 1 7.23263 2.12701 5.60819
424 1 5.24177 6.37933 3.59239
425 1 9.03248 0.286118 5.24403
426 1 1.0789 0.810391 6.51853
427 1 6.96223 3.90706 5.11118
428 1 2.86463 0.026627 0.693432
429 1 6.12636 1.33413 7.43907
430 1 6.40439 2.31976 2.61014
431 1 8.39192 4.77565 3.84268
432 1 0.773836 7.39858 3.9248
433 1 2.77259 7.89031 4.29492
434 1 5.95225 4.63213 5.93136
435 1 8.61387 5.48049 8.39138
436 1 8.27322 6.64042 7.49676
437 1 3.57811 5.10015 2.93779
438 1 1.66863 6.11264 2.9373
439 1 4.24119 8.68486 1.49674
440 1 3.80752 6.67242 0.760497
441 1 7.30828 4.06439 9.02177
442 1 1.65485 5.59138 0.241123
443 1 2.47147 3.15623 1.29862
444 1 6.54793 5.02031 5.17036
445 1 7.64579 3.0207 5.10439
446 1 7.86172 1.74009 9.07941
447 1 8.8481 4.322 8.2618
448 1 0.832689 9.06665 3.1569
449 1 5.82512 7.8898 6.63663
450 1 2.97621 0.743982 8.41094
451 1 5.72694 4.45405 7.92519
452 1 7.73547 7.59771 8.03187
453 1 1.86071 2.73507 4.93756
454 1 3.00046 7.06793 0.217561
455 1 8.39972 5.47105 5.86152
456 1 8.89244 6.01772 9.29522
457 1 7.97376 7.58112 9.22861
458 1 2.213 7.85018 5.56626
459 1 8.65412 3.43688 5.41312
460 1 4.35907 3.28414 3.68617
461 1 7.8963 4.52917 6.56085
462 1 5.18528 8.08506 9.1069
463 1 2.53968 8.26089 8.65408
464 1 8.08889 1.85298 3.99661
465 1 0.409716 7.32577 7.75605
466 1 2.37719 0.91867 0.210294
467 1 6.47799 1.43238 5.93944
468 1 6.88343 7.85038 7.36767
469 1 7.07851 8.95523 5.25843
470 1 7.7344 3.00538 7.4998
471 1 2.42326 0.119298 4.71628
472 1 0.913956 3.7276 0.721869
473 1 3.03738 3.36747 7.02459
474 1 1.9904 9.21184 0.118552
475 1 0.840993 8.71899 9.29334
476 1 8.13977 1.18906 8.02907
477 1 7.29064 9.31248 3.84473
478 1 4.97566 9.16223 8.98162
479 1 1.14726 3.16675 8.94358
480 1 2.06576 1.10231 1.34027
481 1 3.42031 1.73285 3.69515
482 1 6.75258 2.38755 7.6754
483 1 3.12728 7.114 6.82587
484 1 1.57003 0.469199 2.83057
485 1 6.12878 6.41449 8.79164
486 1 6.04979 8.6503 8.63432
487 1 7.36399 6.68847 4.51769
488 1 7.40703 7.04495 7.17151
489 1 0.0352426 0.783485 8.94031
490 1 3.61497 9.3136 1.99814
491 1 8.21798 7.98978 1.94621
492 1 4.34945 2.7606 6.55366
493 1 9.14688 0.865028 2.14304
494 1 4.44187 3.20015 4.80547
495 1 4.72218 0.368992 3.70687
496 1 3.82928 3.14071 0.0306145
497 1 1.22665 1.08582 8.44387
498 1 0.710107 0.784943 1.48206
499 1 3.71237 7.066 2.46601
500 1 6.0322 3.47199 7.70611
501 1 6.56862 8.44219 6.03713
502 1 0.399812 3.29652 5.49932
503 1 6.94642 8.14986 8.32758
504 1 5.26594 4.90168 0.110799
505 1 4.62237 4.78132 3.41098
506 1 0.569601 9.36574 5.72522
507 1 8.91906 1.79402 1.62895
508 1 7.04009 2.67787 1.83722
509 1 2.2579 8.69114 6.26882
510 1 0.108295 7.8071 4.55389
511 1 7.43386 8.36402 4.35804
512 1 4.42281 4.20074 4.3713
513 1 1.84693 6.32506 1.10982
514 1 0.337664 8.34889 5.42584
515 1 7.67103 6.43283 6.38315
516 1 3.79148 7.42677 4.33045
517 1 8.24035 2.47591 8.26384
518 1 5.07972 3.2765 1.61851
519 1 1.69765 4.79159 3.13813
520 1 6.38656 3.65347 8.84849
521 1 8.37981 0.637915 6.17772
522 1 4.44514 7.36119 8.7841
523 1 3.24129 3.41752 3.52953
524 1 1.44339 0.169642 7.88683
525 1 5.75267 3.11395 0.756839
526 1 3.83855 4.15288 8.80504
527 1 4.20868 6.872 3.54276
528 1 5.20201 3.80634 3.41659
529 1 4.11455 3.79727 6.24485
530 1 8.57499 9.20709 1.01014
531 1 7.81027 4.83553 8.35129
532 1 3.20675 8.63178 1.2336
533 1 0.413343 6.98235 8.76783
534 1 6.94217 8.71445 2.10568
535 1 6.36245 8.13175 2.88111
536 1 2.40808 1.44285 3.45619
537 1 2.85397 5.06032 7.61859
538 1 4.75205 0.247986 8.0181
539 1 3.70877 3.92724 5.1724
540 1 2.64276 5.2978 0.039832
541 1 1.86462 3.12472 2.46651
542 1 1.85425 4.69046 7.80274
543 1 4.39489 0.44168 0.164782
544 1 0.0442455 0.797695 6.34857
545 1 8.4089 3.9597 2.36011
546 1 3.64814 6.911 7.92776
547 1 7.68167 8.4275 5.88754
548 1 7.25402 6.89268 5.55368
549 1 3.81749 0.102871 8.73183
550 1 0.295466 4.68162 6.21572
551 1 2.85767 3.57365 9.04153
552 1 8.19122 5.59685 1.51666
553 1 4.52606 0.915259 6.47469
554 1 4.71404 1.79309 7.0411
555 1 3.21389 5.54571 2.05538
556 1 2.65348 2.72448 7.75119
557 1 1.82462 6.09375 6.52118
558 1 6.00187 2.49064 5.86505
559 1 4.30986 5.79951 3.58381
560 1 2.43281 3.21827 4.19676
561 1 3.04317 3.86101 6.07571
562 1 8.1719 6.60333 8.55304
563 1 2.85194 9.37036 2.74212
564 1 3.86074 0.895172 4.14262
565 1 8.91298 1.99893 6.37303
566 1 0.162852 6.81452 0.415928
567 1 6.43231 5.16765 6.65782
568 1 2.43478 0.949175 2.44883
569 1 8.77068 3.06915 9.07653
570 1 2.85297 6.7673 1.36267
571 1 1.20918 5.20742 7.16936
572 1 3.75319 4.29636 3.56625
573 1 1.11834 2.48585 2.11765
574 1 3.65333 1.72443 4.80296
575 1 3.81133 5.74162 0.24866
576 1 6.95173 3.99438 8.04054
577 1 5.88603 8.89534 2.29205
578 1 4.06481 3.71783 7.2901
579 1 9.09427 1.96495 2.6812
580 1 2.16056 0.876129 7.77895
581 1 7.17011 1.11763 6.72263
582 1 6.59176 8.91504 0.152971
583 1 1.87914 2.00837 2.81128
584 1 2.56402 2.01042 0.942162
585 1 0.545313 7.32599 5.54869
586 1 6.15477 8.411 4.77816
587 1 1.75544 1.92327 0.241939
588 1 8.63016 1.32367 7.09599
589 1 8.04589 2.57945 3.22165
590 1 2.09087 4.16362 4.07927
591 1 3.14483 7.13827 3.59235
592 1 8.92092 5.68948 4.08282
593 1 0.191056 5.19473 8.09937
594 1 6.84007 3.04382 3.1361
595 1 7.28365 8.01076 1.41556
596 1 9.10859 0.841376 7.89403
597 1 0.55249 8.33811 6.49638
598 1 1.32556 4.55531 6.41145
599 1 1.46953 8.83382 2.24125
600 1 5.84497 0.46444 2.74917
601 1 0.637411 7.26049 2.09732
602 1 6.66188 6.27581 6.22313
603 1 4.1398 3.10746 8.36943
604 1 7.14306 9.30313 6.33488
605 1 4.12451 5.98658 8.17454
606 1 1.46965 0.115174 5.19187
607 1 4.30789 1.45222 0.155473
608 1 0.445523 6.05364 8.98867
609 1 3.31393 3.53989 8.02006
610 1 4.97858 2.49118 8.40638
611 1 0.224012 2.39988 8.88332
612 1 1.04842 5.11737 8.67285
613 1 6.4082 0.416983 1.79227
614 1 2.8263 9.16535 9.00748
615 1 0.0979611 5.01745 9.1237
616 1 0.30843 4.1646 2.53136
617 1 3.77139 4.63139 1.89025
618 1 6.24286 5.31604 3.64038
619 1 3.50081 4.67289 0.215243
620 1 0.590841 5.59075 4.24976
621 1 7.79382 0.49936 7.23694
622 1 6.99568 0.97242 3.96389
623 1 5.40258 9.16161 5.18649
624 1 7.7735 2.74147 9.3209
625 1 2.55552 5.52424 2.86597
626 1 0.757333 4.67034 3.3902
627 1 8.72042 9.19735 3.57742
628 1 1.57629 2.97594 7.96957
629 1 3.80329 6.26916 1.67152
630 1 2.51556 9.28053 8.00008
631 1 3.2132 7.59524 5.21224
632 1 9.18756 7.71397 6.00079
633 1 9.26776 7.90405 2.4678
634 1 5.9674 2.75553 1.74517
635 1 2.96639 2.0128 2.52462
636 1 7.82533 3.80561 5.77031
637 1 4.71188 4.53947 2.43581
638 1 2.14034 6.86924 7.5153
639 1 1.8398 1.91221 7.84318
640 1 8.02978 4.71824 0.976049
641 1 2.6984 0.181925 6.8995
642 1 0.916756 2.65806 0.379462
643 1 1.59076 0.800779 4.35083
644 1 2.54801 8.56229 2.13257
645 1 4.57261 4.07882 0.105386
646 1 3.72759 5.55584 6.01927
647 1 3.40622 8.64519 8.1543
648 1 5.39968 5.00989 6.83773
649 1 1.4966 6.89726 5.29426
650 1 5.67936 4.73024 3.05428
651 1 5.68254 5.06128 2.02566
652 1 4.65512 7.42696 5.05521
653 1 8.36341 8.3317 8.51568
654 1 4.91935 0.0493048 1.09636
655 1 5.3415 8.50511 1.5088
656 1 4.27134 2.35027 9.01697
657 1 5.84345 0.128865 7.98696
658 1 1.93059 7.20013 4.30544
659 1 8.98845 4.17795 6.8478
660 1 5.16953 3.82281 7.06869
661 1 2.19556 2.77412 8.82531
662 1 5.40867 7.10075 9.26636
663 1 3.38138 7.64944 8.73611
664 1 7.37585 0.436006 4.74726
665 1 4.22878 8.83926 7.52021
666 1 0.43183 1.59357 5.91114
667 1 8.9519 1.20016 3.41339
668 1 4.42452 4.83391 0.844108
669 1 0.362864 7.07869 3.03217
670 1 3.84596 1.9292 5.87898
671 1 1.35877 5.35215 1.18086
672 1 4.33429 4.76941 5.33104
673 1 4.17024 0.961413 7.44437
674 1 0.650961 6.08818 7.78778
675 1 4.58673 8.57864 0.516998
676 1 7.72733 5.73469 8.89451
677 1 9.01516 7.12687 5.13768
678 1 9.33665 4.2641 5.14872
679 1 1.38235 3.97577 7.26149
680 1 0.0409849 5.83156 6.20447
681 1 6.50536 8.67566 3.85328
682 1 5.61021 5.82254 4.4804
683 1 3.37478 3.65434 1.73335
684 1 7.11343 7.58348 6.37216
685 1 5.24601 7.10122 7.08351
686 1 9.34078 6.38099 7.06811
687 1 5.08746 4.10711 6.05054
688 1 9.18654 2.36272 5.4422
689 1 2.83508 7.99822 3.14895
690 1 1.3054 0.803533 0.678145
691 1 6.20363 1.07935 8.49593
692 1 8.83878 9.02877 2.52873
693 1 1.75983 3.81348 4.96797
694 1 2.35984 6.37106 3.68893
695 1 1.35442 3.0458 6.92761
696 1 7.44196 4.92062 1.85013
697 1 8.1656 3.76787 0.277068
698 1 0.972043 2.28033 7.47613
699 1 0.699638 6.22474 5.146
700 1 9.27927 8.42894 3.31676
701 1 8.80622 9.36283 9.40492
702 1 8.21086 6.42252 5.29497
703 1 9.29773 8.81959 4.63221
704 1 5.20887 6.14257 1.87976
705 1 5.5744 1.40197 6.43189
706 1 1.39631 3.19946 5.74757
707 1 6.98477 3.23112 5.94061
708 1 4.5947 6.47416 4.47338
709 1 2.01536 7.18251 0.431441
710 1 2.41812 4.31721 0.404249
711 1 3.73458 2.66806 7.50174
712 1 2.70906 5.75339 4.64451
713 1 2.7913 5.9347 6.37367
714 1 2.71879 1.2794 5.48476
715 1 6.27825 6.01676 2.13596
716 1 4.89601 2.28074 4.98377
717 1 3.81479 6.40942 6.72197
718 1 8.17788 3.61504 8.46322
719 1 0.603663 2.55921 6.35134
720 1 8.31182 6.25952 2.27169
721 1 3.49631 6.26662 4.04896
722 1 7.37014 5.02269 0.0854402
723 1 7.66583 1.04166 0.42401
724 1 2.30935 3.75156 3.12909
725 1 1.52871 7.10885 3.26488
726 1 1.479 9.15192 4.00308
727 1 7.11427 5.65766 2.65924
728 1 8.56182 2.53486 7.21465
729 1 7.14102 1.94908 3.37173
730 1 7.11793 4.23211 0.812533
731 1 3.19259 3.73071 0.690874
732 1 7.79946 7.50036 3.86512
733 1 2.24021 6.20671 2.00823
734 1 1.37539 3.32829 4.01681
735 1 8.34324 8.81745 7.64261
736 1 5.41719 7.86707 0.680742
737 1 0.544625 5.06315 5.13202
738 1 3.82985 0.260827 1.02666
739 1 2.17414 5.14143 6.84067
740 1 9.10465 7.45789 3.66142
741 1 4.59867 0.365745 4.83333
742 1 8.20955 2.58718 5.89903
743 1 7.0192 1.38192 7.96838
744 1 3.72519 2.7385 2.03442
745 1 3.51494 5.26264 8.73295
746 1 3.62418 0.73498 5.12922
747 1 3.06329 0.993317 1.0241
748 1 3.64464 7.99221 0.464215
749 1 7.7873 9.36961 8.38041
750 1 8.25855 0.717919 8.91806
751 1 3.13646 7.97818 6.25101
752 1 7.14995 2.92689 8.51773
753 1 3.91092 5.43321 7.34863
754 1 6.65934 2.95109 0.21542
755 1 4.34523 6.60018 5.7987
756 1 4.69452 5.61292 8.91139
757 1 0.581834 8.82736 7.49438
758 1 3.46647 8.16986 2.36644
759 1 6.38197 2.56891 3.89759
760 1 5.60633 3.88021 0.0357335
761 1 2.75659 8.44634 0.350956
762 1 7.4412 8.89323 0.849026
763 1 5.19437 3.56998 8.42723
764 1 2.33661 1.61334 8.68736
765 1 1.71669 8.74478 8.50916
766 1 8.76031 3.42205 7.60938
767 1 6.63737 2.85238 4.94338
768 1 4.54664 3.33861 2.55931
769 1 7.84239 5.54205 4.40026
770 1 0.317751 4.58584 0.689064
771 1 7.98353 2.26167 2.03574
772 1 9.09812 2.04215 4.31931
773 1 3.85445 8.28702 4.79192
774 1 6.95577 4.44721 6.05924
775 1 3.70626 5.20397 4.22322
776 1 4.65309 3.03244 0.544454
777 1 6.40241 6.90354 7.00728
778 1 8.42777 3.77136 1.31363
779 1 5.85704 1.84936 4.41118
780 1 7.91429 6.64176 1.31574
781 1 1.95705 3.38745 0.277237
782 1 0.147273 7.58991 1.01471
783 1 8.64824 4.9907 4.88331
784 1 3.69143 0.0766095 3.47219
785 1 0.923163 5.4016 2.68343
786 1 1.1042 3.88649 8.18844
787 1 0.260363 6.52505 1.40497
788 1 8.9505 8.48176 6.83845
789 1 7.29285 8.83872 7.56149
790 1 8.19085 3.4919 6.66116
791 1 7.12075 1.98149 0.341721
792 1 0.93084 5.49264 6.07958
793 1 6.39563 1.10852 0.19088
794 1 8.79903 6.24714 0.933201
795 1 3.91113 3.00546 5.69183
796 1 5.19718 5.65488 2.86377
797 1 0.510669 1.69071 1.9156
798 1 3.27116 2.66577 6.35662
799 1 4.69744 2.44002 3.10511
800 1 1.52132 8.13117 0.650642
801 2 0.195193 4.99731 2.29843
802 2 8.23974 6.20539 3.9107
803 2 1.24923 1.59593 4.46608
804 2 8.35561 0.47362 0.512694
805 2 7.22893 5.01208 4.62173
806 2 8.51799 7.90762 7.66264
807 2 1.98904 7.19102 1.35899
808 2 0.938315 4.71814 7.92746
809 2 8.18753 9.02941 8.97282
810 2 0.692174 5.83816 6.86371
811 2 5.71748 3.55187 6.42533
812 2 3.07989 5.49003 3.58613
813 2 8.59868 1.58688 5.71868
814 2 0.668191 3.0109 8.21342
815 2 6.3431 2.03426 5.16067
816 2 8.33754 1.39586 1.17351
817 2 4.42253 5.33216 2.67283
818 2 4.29377 0.443439 5.62654
819 2 7.09005 1.85562 6.36245
820 2 8.71996 1.8053 7.76984
821 2 6.982 2.59807 0.973187
822 2 0.232785 9.31639 9.2204
823 2 4.89318 1.75905 8.87963
824 2 8.79522 6.92963 9.12902
825 2 5.07669 5.00078 5.87591
826 2 4.30176 4.89051 9.18981
827 2 6.12881 5.13995 4.47057
828 2 8.47821 8.21059 6.18068
829 2 8.86401 5.13846 6.51718
830 2 6.63392 5.22802 2.0488
831 2 6.06073 5.4473 2.76951
832 2 6.25039 1.80177 8.07128
833 2 2.0607 2.63784 0.627462
834 2 5.68691 9.37371 1.62401
835 2 0.18333 8.00725 7.23141
836 2 8.49704 2.27769 9.14531
837 2 0.354517 4.42001 8.54865
838 2 8.76412 1.29544 4.34795
839 2 3.64211 4.51106 5.98737
840 2 7.67687 5.3449 7.0736
841 2 8.80495 4.30569 0.614957
842 2 4.37668 3.93571 8.12024
843 2 0.273117 9.26613 6.73588
844 2 7.0341 9.30675 1.53582
845 2 5.19024 0.209751 0.268272
846 2 2.19503 3.23268 7.2773
847 2 3.67247 8.25088 5.64117
848 2 7.50732 6.49778 7.89333
849 2 4.31557 2.96533 1.3747
850 2 8.7355 7.0351 0.69793
851 2 4.33094 5.17104 8.17563
852 2 0.681141 4.50971 6.94234
853 2 4.34416 3.93566 1.89548
854 2 6.62121 0.811479 2.61669
855 2 3.76724 6.98329 5.02715
856 2 8.11902 3.18373 1.7957
857 2 8.74511 1.99706 3.51703
858 2 3.3224 5.71741 7.98195
859 2 5.54368 6.4904 2.67647
860 2 6.42382 8.95209 7.82363
861 2 8.16858 7.03679 6.6472
862 2 2.46374 3.76795 1.86238
863 2 5.99121 3.19932 3.53026
864 2 7.47148 2.08792 8.21659
865 2 2.82215 2.57494 1.90482
866 2 8.0545 8.40814 1.2144
867 2 5.07223 8.40767 6.42569
868 2 9.23427 6.81841 2.38029
869 2 1.8533 0.30665 7.05985
870 2 4.70343 5.39451 7.08927
871 2 9.29299 9.28001 7.71389
872 2 1.85824 3.00327 3.3953
873 2 5.10774 3.61034 4.24427
874 2 5.86474 6.65447 1.75755
875 2 6.05051 4.24702 4.86415
876 2 6.86334 3.29025 7.51586
877 2 0.927862 6.19335 1.02991
878 2 5.95668 4.44837 8.69657
879 2 9.31666 3.87094 5.96238
880 2 4.50385 8.90639 4.95312
881 2 2.17153 9.12884 5.56211
882 2 5.35676 5.42686 3.76978
883 2 8.21972 4.30557 8.90914
884 2 7.48534 0.660371 8.00776
885 2 3.32997 2.6137 3.91358
886 2 1.08851 8.06961 2.17442
887 2 7.47674 1.41838 5.10922
888 2 6.75352 0.380124 9.23808
889 2 1.04555 4.48759 2.58529
890 2 2.46859 5.11411 2.09777
891 2 3.33588 8.82778 6.2559
892 2 2.56294 8.50102 7.71315
893 2 4.67525 3.28495 9.09048
894 2 1.90036 3.56612 8.86587
895 2 0.452812 1.94733 5.04204
896 2 0.283225 4.00152 1.26528
897 2 6.09504 7.97163 9.35308
898 2 3.03969 2.31596 7.07113
899 2 7.96894 8.77085 3.67074
900 2 1.05882 3.21955 4.85579
901 2 6.57222 7.19621 4.92099
902 2 0.981413 6.65558 2.65745
903 2 2.0723 0.797403 5.07694
904 2 2.91661 4.20156 7.58044
905 2 2.15452 9.26988 2.30279
906 2 6.45709 1.96745 1.70559
907 2 6.37635 3.8303 0.443061
908 2 5.9818 5.24335 0.586421
909 2 5.4829 6.72499 4.48138
910 2 8.92703 5.72042 7.62932
911 2 8.61495 0.29571 1.81214
912 2 3.11328 5.94085 9.1447
913 2 3.69631 7.71564 3.04617
914 2 6.64399 5.52523 5.83833
915 2 5.72274 1.33048 0.640867
916 2 2.64315 1.58979 1.82197
917 2 0.033797 1.61186 9.30154
918 2 5.5108 2.16658 2.25562
919 2 2.26871 7.48034 3.55681
920 2 4.5252 7.05164 7.80515
921 2 1.08094 5.40353 3.55285
922 2 5.36606 0.706034 8.4732
923 2 4.7234 1.59401 1.76287
924 2 4.07646 2.38265 0.430448
925 2 4.74067 7.83515 1.28409
926 2 2.60662 2.03768 9.34464
927 2 5.32771 0.452886 6.49722
928 2 1.95661 4.75513 1.20786
929 2 1.96743 6.4015 4.62511
930 2 0.513996 0.599651 8.24465
931 2 3.73754 1.18577 8.16941
932 2 5.86591 3.70231 1.54409
933 2 8.5529 2.94474 0.546884
934 2 5.21477 2.56632 1.13196
935 2 2.77567 4.2282 5.225
936 2 3.80168 3.62617 4.25551
937 2 1.62651 6.90583 9.05461
938 2 4.60339 0.233388 7.01663
939 2 9.24228 5.03617 5.56504
940 2 3.5744 7.87718 7.07994
941 2 1.6208 8.41815 6.70004
942 2 2.49051 1.62488 7.35926
943 2 1.07531 8.79669 4.73564
944 2 0.869984 5.0506 0.09105
945 2 9.00242 5.97801 1.75779
946 2 8.99968 3.70155 2.87594
947 2 2.33275 7.0797 5.16885
948 2 7.90719 5.51382 2.37478
949 2 7.1145 0.944133 1.57722
950 2 0.446207 3.00556 3.70501
951 2 3.98692 1.21376 1.10177
952 2 4.75542 5.50309 0.359626
953 2 1.2521 4.15411 3.84475
954 2 2.89696 4.99476 4.30667
955 2 8.40547 0.359097 7.82253
956 2 7.39935 5.32714 0.943152
957 2 4.75429 6.74699 6.50352
958 2 7.89158 7.21465 2.0291
959 2 7.78325 8.62321 5.028
960 2 0.277611 3.23726 0.0640659
961 2 1.4314 4.73088 5.35477
962 2 7.71602 7.54129 3.02874
963 2 1.49813 6.0134 5.67169
964 2 3.36628 8.74273 3.08158
965 2 3.82832 7.27592 0.0821342
966 2 6.81345 3.45959 4.3663
967 2 1.05246 1.87056 2.78867
968 2 0.186127 6.59128 5.72901
969 2 7.36672 2.51834 2.62039
970 2 3.56483 4.38281 1.10313
971 2 2.45445 7.73546 9.29092
972 2 3.13881 5.39513 6.91108
973 2 3.29502 8.44607 9.05662
974 2 4.46458 4.01687 3.10977
975 2 0.103736 7.73211 8.64762
976 2 0.809715 7.10025 4.74338
977 2 3.07145 6.44089 2.23214
978 2 4.41077 7.97243 4.15239
979 2 5.09853 0.781602 2.97534
980 2 2.06697 6.47828 8.32328
981 2 1.30428 8.48492 7.84912
982 2 8.2584 4.65335 1.83006
983 2 0.87251 9.19542 1.61993
984 2 5.16764 3.7764 0.854986
985 2 0.257116 9.17602 3.73311
986 2 0.0723396 2.62617 2.09946
987 2 4.97821 2.00887 3.87652
988 2 6.23984 8.97109 5.38766
989 2 5.04079 8.61763 2.41784
990 2 5.88925 8.85893 3.15381
991 2 7.41904 8.16132 0.425527
992 2 5.97229 7.37627 1.15819
993 2 7.62066 8.3458 2.44727
994 2 8.31232 4.20606 5.06129
995 2 2.76591 5.49639 5.51369
996 2 1.60226 3.69713 6.44179
997 2 2.67848 0.778275 6.20226
998 2 0.023515 2.39759 7.08662