#bin. KALJ data file T=0.5

1000 atoms
2 atom types

0 9.4 xlo xhi
0 9.4 ylo yhi
0 9.4 zlo zhi

Masses

1 1.0
2 1.0

Atoms

1 1 6.16145 8.69622 3.3407
2 1 2.38559 5.17012 1.09788
3 1 3.70579 1.35383 4.54784
4 1 1.30604 4.43788 1.97987
5 1 0.840936 8.36812 5.16031
6 1 5.31036 8.0101 6.69643
7 1 3.01759 6.57686 4.53846
8 1 2.97071 0.997682 6.31377
9 1 1.32969 6.10112 3.84967
10 1 2.14705 3.45995 0.777139
11 1 5.7655 0.349492 5.84439
12 1 6.87694 1.02618 1.20659
13 1 0.804654 0.946114 4.2693
14 1 4.20774 4.49872 5.71535
15 1 0.0780592 8.88885 8.32769
16 1 0.494166 8.72263 7.40328
17 1 7.89217 3.48018 1.52464
18 1 4.55054 6.30735 8.25262
19 1 3.7952 6.03123 7.41861
20 1 8.98061 3.86412 8.04604
21 1 9.3463 4.80425 9.31281
22 1 0.0956488 2.98306 7.57341
23 1 5.39054 1.15206 0.132424
24 1 1.31875 6.49412 6.32689
25 1 8.84692 1.09328 1.80485
26 1 6.82241 2.77444 6.64722
27 1 0.383184 9.05812 1.29934
28 1 4.69571 1.42115 2.09526
29 1 2.57751 3.89915 4.10257
30 1 7.08308 2.97228 4.52897
31 1 2.88837 1.10049 0.618494
32 1 0.986473 1.9955 9.10597
33 1 5.1627 0.460001 1.59473
34 1 5.43673 9.32695 2.55722
35 1 2.78135 1.96155 4.40356
36 1 3.8676 2.6466 3.06353
37 1 6.16877 6.13349 7.59949
38 1 1.31657 1.31617 1.4389
39 1 6.51828 8.00162 8.492
40 1 8.88997 7.66225 0.291304
41 1 6.7882 2.08445 7.446
42 1 1.80771 0.601362 3.49469
43 1 2.28807 8.66586 6.74061
44 1 3.25927 0.589071 5.35746
45 1 8.37341 9.00213 3.44608
46 1 8.4101 6.54226 1.24301
47 1 1.15326 1.98107 2.1934
48 1 4.10551 8.38498 1.46049
49 1 4.655 2.96545 5.60018
50 1 1.53754 2.0575 5.12472
51 1 1.43152 4.00802 3.86412
52 1 7.44161 8.6454 3.1691
53 1 2.69195 9.02214 4.06507
54 1 8.71559 5.80735 8.90773
55 1 1.37313 4.60977 5.65693
56 1 1.01862 5.10212 3.8685
57 1 1.14924 5.51282 6.68662
58 1 5.69119 7.56125 3.17508
59 1 5.26558 8.85153 7.65716
60 1 1.984 8.64146 3.47041
61 1 1.59917 0.15221 1.46897
62 1 6.04259 8.89006 0.732702
63 1 8.48553 3.22443 5.92434
64 1 0.486949 6.35992 9.03901
65 1 7.64598 1.23908 2.69399
66 1 3.46993 0.829433 7.1845
67 1 7.46524 7.49899 8.17837
68 1 3.72457 7.86582 8.03314
69 1 6.12947 4.99269 1.07559
70 1 7.28404 3.3578 3.47244
71 1 8.48189 2.97031 0.796211
72 1 6.00457 2.39264 3.17187
73 1 2.6193 7.81124 6.11613
74 1 3.17622 8.56391 1.9376
75 1 8.06643 2.05947 0.323901
76 1 8.96782 8.52486 1.16578
77 1 1.66058 1.54292 4.27433
78 1 1.97075 7.16077 2.15596
79 1 6.04394 2.37262 8.12776
80 1 1.16298 0.0223731 8.17611
81 1 1.50199 8.28836 7.41749
82 1 6.73082 1.81665 2.61561
83 1 4.0872 6.70938 4.62802
84 1 0.665643 4.61881 6.33858
85 1 0.332019 2.67823 0.273589
86 1 4.66645 2.81069 1.3424
87 1 3.76658 3.96586 3.36547
88 1 7.80748 2.07575 7.11084
89 1 6.18734 5.61583 5.66413
90 1 5.62919 6.14333 1.03489
91 1 8.09661 8.00785 4.60475
92 1 6.86015 9.37775 8.29809
93 1 4.15014 0.294039 4.84077
94 1 1.11267 5.74474 5.69098
95 1 0.457638 7.79039 4.42041
96 1 5.97909 7.14682 6.88569
97 1 1.88054 6.00038 1.78055
98 1 5.32147 8.76499 1.5978
99 1 2.9337 9.36908 6.36476
100 1 8.00582 7.88351 7.28274
101 1 5.18413 5.82313 6.28104
102 1 2.98871 0.25518 3.25186
103 1 3.23472 8.09776 7.08959
104 1 3.31418 6.91448 2.57499
105 1 0.465133 0.723101 5.29111
106 1 7.31739 1.16479 7.01582
107 1 6.61283 6.58083 1.38554
108 1 9.27671 1.09347 3.78676
109 1 6.84402 0.759797 2.37334
110 1 0.315483 4.5939 8.00577
111 1 8.47104 2.98163 8.14569
112 1 5.8178 0.153825 9.35599
113 1 4.2801 4.79055 1.22911
114 1 1.20753 2.51521 3.15791
115 1 5.75036 8.57134 5.9269
116 1 7.45572 2.84909 7.81658
117 1 8.46373 7.17197 8.0058
118 1 8.10507 1.40773 6.33395
119 1 3.25709 2.3906 8.03357
120 1 0.420516 7.65121 9.01672
121 1 4.90692 9.28828 6.19868
122 1 1.80392 6.89029 1.22717
123 1 2.19816 5.90002 5.52662
124 1 4.60955 2.02125 6.01977
125 1 5.24293 5.85909 5.26743
126 1 5.78589 4.62008 3.8252
127 1 3.40011 8.41092 4.47304
128 1 5.85457 5.33818 8.3495
129 1 1.31166 5.56623 8.51085
130 1 4.40463 1.10809 7.65397
131 1 8.95368 2.1925 3.98789
132 1 9.29392 1.46626 4.7816
133 1 7.60463 0.249152 4.1529
134 1 0.603477 5.67113 3.18171
135 1 6.96369 5.95021 2.93273
136 1 8.93867 8.40842 7.16162
137 1 0.845982 5.22588 0.164048
138 1 5.60687 3.14722 8.88699
139 1 0.21008 0.980707 6.91315
140 1 4.89551 3.87639 5.17699
141 1 2.73613 7.06294 0.605799
142 1 5.00941 7.69311 0.172183
143 1 4.42781 4.66336 8.59834
144 1 1.46975 0.83845 5.07081
145 1 7.73 5.56861 8.819
146 1 4.56238 0.962852 0.915181
147 1 6.0725 3.47064 6.80729
148 1 1.89774 4.62535 8.21944
149 1 3.0846 8.20159 3.49814
150 1 7.94286 5.87975 3.30278
151 1 8.64226 8.78001 6.10332
152 1 6.75308 7.84524 0.0794023
153 1 2.17257 5.96829 8.97423
154 1 3.54908 6.57464 0.803745
155 1 0.691411 5.62905 4.67925
156 1 6.26301 7.95062 4.09608
157 1 6.5651 5.13421 6.75861
158 1 1.71533 5.43491 7.50657
159 1 0.616641 6.41585 7.28554
160 1 2.58803 3.17963 8.18844
161 1 1.91955 3.24505 5.22192
162 1 8.64281 2.78018 9.14753
163 1 1.24638 2.66344 4.4017
164 1 3.67908 0.327009 0.783761
165 1 4.50498 5.52536 2.16284
166 1 5.80942 6.36102 2.09223
167 1 2.37624 5.99001 3.89511
168 1 7.21484 5.52642 0.971448
169 1 3.09838 6.43249 9.2471
170 1 0.978786 3.55704 4.84637
171 1 5.1034 5.03692 0.690307
172 1 1.71134 3.04596 7.65542
173 1 7.78794 3.72263 0.399673
174 1 2.11246 4.00283 5.9712
175 1 6.85681 6.01548 8.3658
176 1 1.90424 0.236654 6.43624
177 1 3.42971 8.66421 0.840758
178 1 8.03786 4.50116 1.75354
179 1 5.6299 1.18456 6.81878
180 1 0.372699 8.85661 3.19032
181 1 8.90509 5.57638 3.09882
182 1 2.59452 2.83956 7.09736
183 1 3.17244 3.31436 0.69385
184 1 2.79393 8.21459 8.30348
185 1 2.31593 7.56413 6.98284
186 1 3.61274 3.80528 4.41943
187 1 2.43647 0.0509916 5.02515
188 1 2.06933 7.78062 0.597841
189 1 3.92487 6.64923 3.56211
190 1 4.8223 8.29472 2.81294
191 1 5.61295 5.27218 7.23082
192 1 9.35054 2.14217 8.52589
193 1 2.28507 8.46156 9.30102
194 1 8.29668 7.53583 1.21335
195 1 9.23908 0.0846153 3.82209
196 1 0.253839 0.977097 2.44637
197 1 5.83795 6.67799 5.80505
198 1 0.632686 1.63353 0.694144
199 1 8.96858 9.3754 5.27194
200 1 2.89243 1.73441 7.28574
201 1 4.48505 1.72337 3.1113
202 1 8.24916 7.14098 4.01019
203 1 5.88445 7.90819 7.54763
204 1 5.20051 1.47684 8.55822
205 1 4.13199 8.74018 7.69507
206 1 0.374399 9.15952 4.65488
207 1 6.2758 1.61472 1.71391
208 1 9.2868 3.98615 4.96768
209 1 7.0632 9.32295 6.96508
210 1 1.1664 1.02306 9.35126
211 1 8.58191 0.344089 0.0425236
212 1 6.29238 7.48094 2.07707
213 1 2.05888 2.27777 3.66778
214 1 7.61852 1.6845 1.12231
215 1 3.4113 5.77221 3.88162
216 1 6.38108 7.67212 5.96213
217 1 3.9254 0.379398 6.35642
218 1 2.69166 2.05648 1.94546
219 1 6.80116 5.9808 9.40276
220 1 0.669749 1.14789 8.48283
221 1 8.07157 8.96759 6.93509
222 1 5.42146 5.48113 1.70746
223 1 0.174238 0.417244 7.91697
224 1 7.2371 6.52127 5.30316
225 1 7.907 6.3132 6.21543
226 1 3.19011 7.5976 5.10242
227 1 7.02207 7.0853 4.46672
228 1 8.48929 8.93342 8.70849
229 1 4.60052 2.59339 2.38622
230 1 2.86082 6.20235 8.12641
231 1 5.1958 6.24893 7.25587
232 1 5.39449 4.05429 2.58225
233 1 8.3561 7.88667 3.35083
234 1 6.50536 8.83831 9.16007
235 1 8.3103 7.24345 6.502
236 1 9.08097 5.06805 6.44686
237 1 5.43006 1.79745 2.65663
238 1 6.79198 5.15408 7.75239
239 1 3.95081 8.81489 6.66296
240 1 3.76692 2.4983 5.99413
241 1 2.84078 5.26008 3.03106
242 1 5.90797 3.99445 0.396062
243 1 2.53883 6.06313 0.731674
244 1 4.92193 6.90361 6.54058
245 1 5.65053 3.38964 3.38227
246 1 7.42331 6.831 3.33205
247 1 4.71494 2.77316 3.61045
248 1 4.69277 8.41982 5.85221
249 1 4.70041 3.74674 6.21734
250 1 5.98627 6.90121 4.00347
251 1 6.357 8.80866 7.6501
252 1 9.27102 4.02489 6.01164
253 1 1.08663 4.6152 2.93502
254 1 6.05773 1.85411 0.769015
255 1 6.57598 5.58063 1.90866
256 1 8.93793 3.9322 1.68423
257 1 6.40344 0.931684 4.23818
258 1 1.81759 8.5958 2.00986
259 1 2.70126 6.46637 7.14695
260 1 3.74373 3.86822 1.39953
261 1 9.35835 6.36885 8.17355
262 1 2.17103 1.75366 1.04195
263 1 7.42337 5.43937 4.06594
264 1 7.4577 7.76907 6.35797
265 1 5.40415 3.45278 4.37623
266 1 7.82497 5.37071 2.39348
267 1 7.4984 2.75616 0.987131
268 1 3.68464 0.330487 8.02971
269 1 1.48372 5.79578 0.783616
270 1 0.779054 8.34865 2.35429
271 1 4.96148 7.84376 1.30643
272 1 0.0789238 5.20353 2.29009
273 1 6.80103 2.94504 2.66194
274 1 2.97488 7.18788 7.75193
275 1 5.17083 7.4247 2.28279
276 1 0.649366 7.71669 3.3718
277 1 5.01292 0.0756795 4.09623
278 1 1.02279 3.61906 5.93307
279 1 9.1658 5.81029 1.40047
280 1 4.01217 0.777854 2.7027
281 1 7.20611 7.64511 1.25466
282 1 0.39307 4.12865 2.32181
283 1 9.20708 7.86319 2.67665
284 1 8.2297 8.3692 2.47179
285 1 6.92214 8.71965 4.05693
286 1 1.44742 1.96588 7.87656
287 1 1.81498 8.6072 8.29015
288 1 1.62167 7.38239 5.98035
289 1 6.11886 1.2077 3.20394
290 1 2.80712 7.44359 9.01351
291 1 7.03109 4.29111 8.3353
292 1 1.41792 6.50323 5.09024
293 1 8.77352 1.43655 2.79221
294 1 9.22829 5.74471 7.21494
295 1 0.286174 3.78186 3.91036
296 1 7.16164 8.6371 0.671237
297 1 5.21692 6.90601 4.84159
298 1 2.48206 4.90977 5.51492
299 1 5.14834 9.13747 5.13605
300 1 8.74222 4.03772 0.681583
301 1 2.9393 8.60065 5.38632
302 1 8.58434 0.601347 4.4749
303 1 1.34523 0.845772 2.46696
304 1 7.8335 5.69259 5.18296
305 1 1.69671 9.35275 9.19224
306 1 2.61355 8.73203 2.71369
307 1 5.13891 0.906669 3.06733
308 1 8.59357 0.485984 6.06566
309 1 8.74248 5.9036 5.67552
310 1 6.03082 4.66008 2.0846
311 1 7.94571 6.86904 8.99202
312 1 4.58775 6.8962 0.992038
313 1 6.90551 4.44097 1.62825
314 1 6.44827 3.7641 4.1748
315 1 4.32694 5.5214 5.87055
316 1 0.168705 3.12351 5.51377
317 1 7.76761 0.792062 1.70787
318 1 8.72592 3.25136 3.6736
319 1 3.7801 1.34855 0.275481
320 1 3.69234 5.85496 5.03798
321 1 0.933778 3.3694 1.86716
322 1 2.31483 7.02875 5.18406
323 1 1.75497 5.44216 3.08524
324 1 1.14239 3.48649 6.96324
325 1 6.40547 8.4668 1.61645
326 1 6.26689 1.92544 6.28225
327 1 5.01508 2.45347 7.91774
328 1 9.02757 7.05527 1.98552
329 1 9.384 8.93762 0.174564
330 1 3.57039 5.55192 0.890025
331 1 3.55995 1.47143 3.44992
332 1 4.38763 0.831519 3.76852
333 1 1.02907 3.5605 2.92179
334 1 0.840023 7.9929 6.17367
335 1 2.71687 3.27271 1.7181
336 1 7.25161 7.68622 5.34355
337 1 8.36787 0.719887 7.08634
338 1 6.84304 3.59369 7.47686
339 1 1.84706 3.09335 6.2491
340 1 4.44328 9.01682 2.15267
341 1 5.68176 4.34817 6.56543
342 1 7.62931 2.53599 8.90403
343 1 8.56112 6.72133 3.1037
344 1 0.941996 2.59302 6.10555
345 1 8.4985 5.69635 7.93266
346 1 0.363085 0.237243 8.91393
347 1 7.17623 6.04962 7.04345
348 1 7.53026 1.65982 8.01653
349 1 3.60122 4.51127 0.546428
350 1 2.79033 3.79731 5.1113
351 1 5.25729 8.39129 3.79073
352 1 5.47442 7.05913 8.01992
353 1 8.78378 4.78636 7.46276
354 1 0.409177 7.04015 6.43036
355 1 0.600374 7.22295 2.30514
356 1 5.83866 2.32546 7.10208
357 1 8.0434 3.82247 3.12656
358 1 4.49553 6.53069 5.55474
359 1 3.68285 6.81963 8.475
360 1 4.53287 2.82152 8.86458
361 1 7.70464 2.18409 5.13074
362 1 0.825963 0.0984482 0.456331
363 1 7.8585 2.91588 2.45155
364 1 2.44715 1.16591 4.94296
365 1 1.65592 4.04886 0.0630406
366 1 5.83535 0.842645 0.940579
367 1 1.47693 2.46721 0.476607
368 1 2.11518 4.25805 3.05744
369 1 7.81619 7.7832 0.284325
370 1 1.38561 6.62387 8.64992
371 1 3.3779 2.77955 4.99257
372 1 4.72215 9.29271 8.35981
373 1 6.33955 3.66955 2.04982
374 1 9.32836 1.33892 5.97594
375 1 3.80268 6.20906 1.81764
376 1 4.6085 3.79992 0.796188
377 1 1.85776 7.40171 7.99832
378 1 5.36296 6.60194 2.97521
379 1 7.92999 3.83055 7.65218
380 1 7.56858 3.56996 6.49055
381 1 5.08202 2.40612 4.59153
382 1 5.24617 7.58744 5.66615
383 1 9.16008 7.91435 8.11351
384 1 3.33217 1.23187 1.6058
385 1 4.54032 7.42181 8.55065
386 1 7.3936 3.88741 2.36059
387 1 0.310018 7.89836 1.60475
388 1 4.3268 8.40855 8.70666
389 1 6.11052 2.64967 4.14915
390 1 2.75251 5.47206 4.66951
391 1 9.28097 8.75297 2.11358
392 1 4.8421 6.46091 2.00512
393 1 7.18538 7.04554 2.32106
394 1 6.89901 5.14157 5.0066
395 1 9.1088 1.86736 0.276047
396 1 4.08565 1.82249 1.2981
397 1 6.20936 4.43833 7.53129
398 1 6.79393 5.06887 8.9298
399 1 8.33682 9.30447 1.88186
400 1 1.87521 3.63474 2.29303
401 1 5.8698 5.52757 0.187853
402 1 3.18412 2.0624 0.804845
403 1 2.27518 4.28037 1.54486
404 1 2.66503 7.71146 2.63787
405 1 3.70699 5.2156 6.68262
406 1 4.55832 1.84516 9.19825
407 1 6.69246 0.212813 0.568639
408 1 3.15045 1.83764 9.03646
409 1 4.1882 2.14414 5.05042
410 1 8.2965 0.723387 8.53391
411 1 5.8449 0.270163 3.59439
412 1 2.48989 6.75663 6.2142
413 1 0.122699 0.84352 0.4252
414 1 7.59273 1.04446 0.191121
415 1 5.75675 9.25713 8.42917
416 1 8.36217 8.73185 0.399041
417 1 7.27916 1.23073 3.72333
418 1 3.80165 2.29965 4.03022
419 1 8.74473 2.5212 2.86693
420 1 2.49111 2.9337 4.45087
421 1 7.64476 8.72481 6.02079
422 1 7.198 4.3625 3.76397
423 1 8.62119 3.21228 4.86107
424 1 4.90885 6.63209 3.9129
425 1 9.28152 9.34736 6.79778
426 1 2.04489 1.32741 5.97369
427 1 6.9791 4.08556 4.94513
428 1 2.65805 0.639547 7.9604
429 1 7.20385 1.43532 5.91775
430 1 7.01321 2.28529 3.5098
431 1 0.241828 2.88164 3.39402
432 1 1.83933 7.09707 3.27968
433 1 1.88264 8.67995 4.69212
434 1 4.79471 4.80064 6.75939
435 1 7.73166 6.46813 7.98248
436 1 8.99174 7.0915 5.6441
437 1 4.12697 4.44591 2.25501
438 1 2.40292 6.32979 2.66028
439 1 3.8562 7.98091 2.52133
440 1 3.76444 5.72712 8.62962
441 1 6.22111 2.94243 0.419592
442 1 0.0892027 4.58839 3.2265
443 1 3.65723 3.43661 2.31233
444 1 7.85048 6.36211 4.40587
445 1 6.20878 3.23149 5.06475
446 1 7.47096 4.3795 5.87445
447 1 8.79345 5.38108 0.50747
448 1 2.7505 0.319151 1.2928
449 1 4.31582 7.78152 6.78617
450 1 2.98981 9.06596 7.39878
451 1 5.12731 3.79398 7.13995
452 1 5.8137 7.40804 8.99521
453 1 3.28717 1.62807 5.39094
454 1 2.80407 6.75728 1.57491
455 1 7.7874 4.73861 4.69013
456 1 0.667659 5.23301 1.2485
457 1 6.73138 6.96327 8.7801
458 1 1.79436 8.37588 5.72661
459 1 8.23702 5.05902 5.84475
460 1 5.23013 5.0283 4.64417
461 1 8.77185 4.19942 4.17036
462 1 4.77725 0.264853 0.137928
463 1 2.82962 9.34257 0.259818
464 1 8.24343 0.716246 3.52196
465 1 0.727624 5.47437 7.64583
466 1 2.17749 1.06147 7.04288
467 1 5.3606 1.752 3.71665
468 1 7.39537 8.68913 5.00893
469 1 7.90997 0.301788 5.23988
470 1 7.73001 3.53091 8.65847
471 1 4.1323 1.15599 5.61212
472 1 0.442268 4.16258 1.24271
473 1 1.97912 2.05977 6.94926
474 1 0.549727 8.10531 0.594071
475 1 9.12812 1.09431 8.89619
476 1 8.65597 9.34492 7.75882
477 1 7.72728 0.212061 2.72507
478 1 4.83205 7.85644 7.68499
479 1 1.09846 3.37133 0.833527
480 1 2.97057 1.1441 2.57235
481 1 3.71841 1.85465 2.31727
482 1 6.85654 3.7165 9.30493
483 1 3.66041 7.94757 6.00311
484 1 3.72288 8.97781 2.87047
485 1 5.91093 6.34694 8.71839
486 1 5.9357 7.87088 0.674653
487 1 7.26409 8.04273 2.25281
488 1 7.44678 7.04721 7.1419
489 1 0.444676 1.73669 7.64338
490 1 2.82639 6.99339 3.57245
491 1 7.80045 8.45504 1.42779
492 1 4.35642 3.09718 7.29009
493 1 8.44836 1.14677 0.742471
494 1 5.73548 2.44255 5.5236
495 1 5.84077 0.867585 2.21375
496 1 3.45983 2.92625 8.82232
497 1 1.67729 0.904528 7.87502
498 1 7.11292 9.39085 1.55454
499 1 4.46531 7.36199 3.07853
500 1 5.84306 3.457 7.82855
501 1 5.29774 0.669907 7.80649
502 1 0.814455 4.54286 4.65654
503 1 5.40581 6.77631 0.26729
504 1 5.27068 4.3535 1.39138
505 1 6.50747 5.18824 3.50453
506 1 0.328251 8.9741 5.88152
507 1 8.11761 1.99167 2.10848
508 1 7.21142 2.3437 1.85132
509 1 1.21569 7.35283 7.02642
510 1 9.24908 7.21009 3.77189
511 1 6.37159 8.38954 5.12998
512 1 4.50515 5.67606 4.30328
513 1 1.27811 6.36308 2.64609
514 1 8.99596 7.44068 4.74101
515 1 7.4388 7.84598 3.8297
516 1 4.09607 8.23278 3.6331
517 1 8.38226 1.77059 8.62578
518 1 5.54589 3.36887 1.23103
519 1 2.76524 3.40087 2.7862
520 1 6.04553 4.12441 8.6256
521 1 6.692 9.17472 5.96349
522 1 4.19758 5.28331 0.0620518
523 1 4.36429 3.09927 4.65159
524 1 1.20912 1.40526 6.93105
525 1 6.32306 2.7484 1.54739
526 1 3.46274 3.33805 7.54298
527 1 4.61387 7.5192 4.1886
528 1 6.13312 5.4167 4.42262
529 1 5.25348 2.83872 6.43318
530 1 7.55653 0.149075 9.2332
531 1 7.88602 4.84577 7.97453
532 1 3.18668 0.202928 2.17554
533 1 8.9927 7.03555 8.90302
534 1 9.36117 7.03929 1.01048
535 1 6.74563 0.12302 4.82968
536 1 2.89842 2.10997 3.04675
537 1 1.80536 2.57149 8.73099
538 1 3.81979 8.98475 5.68274
539 1 5.21099 4.81728 5.76358
540 1 2.13739 3.85374 7.04341
541 1 1.77988 2.83267 1.5508
542 1 0.33305 3.90582 0.206411
543 1 0.952346 0.259663 7.14555
544 1 2.4808 2.43319 5.35377
545 1 6.96669 4.81137 2.5661
546 1 1.58391 6.51481 7.54683
547 1 9.1397 7.88025 6.18157
548 1 6.66565 7.84218 3.04308
549 1 0.96402 0.455253 6.14869
550 1 0.0290656 6.03248 4.00437
551 1 2.67846 5.20213 8.36589
552 1 8.16808 4.86535 3.5282
553 1 4.70646 0.913372 6.46457
554 1 3.83195 1.53158 6.514
555 1 3.2006 4.75963 1.66853
556 1 2.80065 4.19281 8.05536
557 1 1.18452 4.56124 7.35347
558 1 7.6871 2.53436 6.11994
559 1 3.96163 4.98658 3.17304
560 1 3.15588 3.06339 3.65031
561 1 3.1014 4.32747 6.04812
562 1 8.28489 6.31973 7.12331
563 1 3.54841 7.62695 1.03324
564 1 6.01497 9.01477 4.35225
565 1 8.23043 1.2649 5.287
566 1 1.40994 4.49191 0.953407
567 1 8.00023 5.32478 6.96154
568 1 2.20943 1.03738 1.8669
569 1 0.284985 1.67667 1.72025
570 1 2.94864 5.70214 1.96998
571 1 8.7668 4.84596 8.52963
572 1 4.336 4.5394 4.4626
573 1 0.296947 2.66577 2.3369
574 1 3.07421 0.564122 4.28417
575 1 5.39217 4.71932 9.16699
576 1 6.73914 3.17706 8.42928
577 1 6.7657 9.01894 2.50113
578 1 4.74682 3.54394 8.10496
579 1 0.308689 1.82193 3.02586
580 1 0.951874 1.48771 5.76741
581 1 6.40671 1.11521 5.37317
582 1 5.23516 8.75791 9.2904
583 1 2.04172 1.62933 2.7344
584 1 2.55741 2.6228 0.169027
585 1 8.8542 6.39294 4.82748
586 1 6.50347 0.806835 6.41402
587 1 1.91846 0.73334 0.645311
588 1 8.96874 1.2494 7.85028
589 1 0.569501 1.91441 4.04452
590 1 1.80265 4.22746 4.80457
591 1 2.50444 7.75469 4.34677
592 1 8.51894 5.54476 4.23406
593 1 0.942711 4.41938 8.86937
594 1 6.41485 3.98512 3.02544
595 1 5.58959 7.06973 1.3586
596 1 8.7751 2.18297 7.50422
597 1 0.324864 7.75701 7.17303
598 1 0.265334 5.04203 5.477
599 1 1.46061 9.20318 2.86515
600 1 6.86731 0.230562 3.42173
601 1 0.770206 6.37879 1.59854
602 1 6.14479 6.06107 6.63784
603 1 4.51877 2.0637 7.12817
604 1 5.83588 9.26812 6.78915
605 1 4.24574 6.37132 9.36281
606 1 1.45201 7.76716 3.93261
607 1 2.80784 9.16865 8.58087
608 1 1.03627 7.1715 0.461475
609 1 4.18121 1.99574 8.24446
610 1 6.20677 0.798818 8.54577
611 1 0.0681516 3.22177 1.09404
612 1 1.91008 6.71486 0.176192
613 1 6.11728 0.0524916 1.66821
614 1 0.851376 8.69148 9.09077
615 1 8.14755 5.48301 1.38791
616 1 8.7266 4.49571 2.59509
617 1 4.65441 3.63694 1.90612
618 1 6.78099 6.31892 3.8773
619 1 3.36566 4.4957 8.9662
620 1 0.545131 6.7539 4.40258
621 1 6.36813 0.474585 7.48749
622 1 8.1668 1.63463 4.3328
623 1 4.64051 0.170267 7.21317
624 1 6.99911 4.59336 0.517997
625 1 2.21441 5.04061 2.27595
626 1 9.20855 3.48635 2.75375
627 1 1.48854 0.0911328 4.26864
628 1 0.842753 3.71181 8.02435
629 1 4.09537 7.20997 1.85574
630 1 1.98924 9.31619 7.48233
631 1 4.31734 7.57554 5.25013
632 1 9.16162 8.33935 5.16461
633 1 9.17021 8.32002 3.89507
634 1 6.92541 2.11088 0.294305
635 1 3.46598 2.63783 1.55914
636 1 7.81778 3.67763 4.3824
637 1 5.4275 5.6017 3.69425
638 1 2.10129 5.847 6.57039
639 1 0.854542 2.67263 8.28923
640 1 6.55641 7.09555 7.79799
641 1 1.2652 8.83419 6.57812
642 1 0.816828 2.46864 1.33899
643 1 2.57731 1.25405 3.62043
644 1 1.60116 7.94577 2.76591
645 1 3.94679 3.58504 0.0514034
646 1 4.03012 6.29193 6.46732
647 1 3.388 1.37402 8.12167
648 1 7.21719 5.55004 6.09867
649 1 0.592578 7.3305 5.33635
650 1 5.94592 4.31317 4.89007
651 1 5.98018 5.56145 2.73188
652 1 5.3234 8.16688 4.83902
653 1 8.33329 7.89049 8.78603
654 1 4.08779 0.488721 1.73532
655 1 5.79782 8.36007 2.41271
656 1 4.04334 2.57581 0.450094
657 1 5.4919 8.23017 8.4516
658 1 0.294081 6.36896 5.44024
659 1 8.39344 3.10455 7.04999
660 1 4.68044 5.38528 7.74318
661 1 2.03 1.73262 9.30013
662 1 4.29135 8.38592 0.387957
663 1 1.49949 7.65517 9.12511
664 1 7.33113 1.11081 4.77499
665 1 3.3592 8.29396 9.19253
666 1 8.0404 2.62172 4.11652
667 1 0.700957 0.523686 3.22877
668 1 4.55676 5.8231 1.15745
669 1 8.4911 6.08033 2.24528
670 1 5.7582 1.57106 4.70569
671 1 1.02887 5.46368 2.24441
672 1 6.7326 3.60756 5.89397
673 1 3.51999 2.46054 7.00842
674 1 1.75972 3.61683 8.5419
675 1 2.54275 7.78765 1.49061
676 1 7.30546 4.46231 7.07753
677 1 6.89642 6.82404 6.26806
678 1 0.176888 2.91998 4.40113
679 1 2.75351 2.16454 6.2779
680 1 0.255749 5.43158 8.61089
681 1 4.60878 9.3697 3.20085
682 1 6.25166 6.34997 4.88413
683 1 5.45644 2.2189 1.70397
684 1 6.37052 8.35247 6.68759
685 1 4.38077 6.95198 7.424
686 1 0.678173 7.13939 8.05617
687 1 4.25304 4.33009 7.52087
688 1 8.34791 4.19157 6.59922
689 1 1.5418 7.64049 4.9334
690 1 0.510165 0.680272 1.48526
691 1 3.79872 9.27375 9.16812
692 1 7.85112 0.158181 0.857114
693 1 3.50927 4.72484 4.94619
694 1 2.11937 4.92609 3.9073
695 1 0.953761 2.51128 7.12741
696 1 7.50109 6.15526 1.69007
697 1 7.74125 4.5356 9.10389
698 1 8.71785 2.22319 6.16045
699 1 0.177787 5.96631 6.33781
700 1 0.672952 9.36549 2.2498
701 1 7.5884 0.463077 7.78656
702 1 8.25101 7.97833 5.64099
703 1 0.939835 8.62818 3.99556
704 1 4.57902 5.89201 3.13686
705 1 5.9806 1.45462 7.75641
706 1 9.34984 3.04301 6.54722
707 1 7.61567 3.2446 5.35941
708 1 3.58807 7.41974 4.13924
709 1 3.05499 5.38572 9.37813
710 1 3.59014 4.9833 7.93908
711 1 2.62902 3.58845 9.13893
712 1 1.96591 6.84754 4.25153
713 1 3.17517 5.76539 6.04679
714 1 5.51992 1.37826 5.80409
715 1 6.37795 6.86361 3.05944
716 1 3.79788 3.46097 6.53247
717 1 2.73149 5.43917 7.39705
718 1 8.67267 2.062 1.23699
719 1 0.175089 2.06578 6.68631
720 1 7.40789 6.75434 0.7528
721 1 3.62961 5.95696 2.77503
722 1 6.45996 6.90519 0.393988
723 1 6.6098 1.76709 8.73589
724 1 3.19769 4.76576 3.8805
725 1 9.37376 5.06181 4.14318
726 1 1.28515 9.21454 5.45949
727 1 6.85223 3.55924 1.02206
728 1 8.71114 2.2122 5.14767
729 1 7.97882 1.95516 3.37215
730 1 8.01851 4.75392 0.698422
731 1 1.97764 5.00683 9.15646
732 1 8.13279 7.27917 2.29302
733 1 1.9972 3.28251 3.42413
734 1 2.09502 2.63444 2.55514
735 1 7.54205 8.66436 7.85947
736 1 4.59811 9.19419 1.00033
737 1 1.67172 5.42853 4.74185
738 1 3.19317 0.714885 8.96134
739 1 2.89241 3.1628 5.95802
740 1 0.564998 6.65077 3.30144
741 1 5.66391 0.53737 4.86929
742 1 8.2914 4.11152 5.33376
743 1 7.59049 0.425019 6.25338
744 1 4.46509 3.46585 2.91051
745 1 1.97203 4.8339 6.52844
746 1 4.83201 1.16779 4.74719
747 1 2.13606 0.802341 8.8815
748 1 4.01398 7.39923 0.0998268
749 1 7.1662 0.924217 8.63687
750 1 8.93991 0.239473 1.1603
751 1 3.47358 7.15936 6.75692
752 1 5.60679 2.18475 9.29381
753 1 3.8159 3.75642 8.38102
754 1 4.93439 1.89663 0.770559
755 1 3.50415 6.77552 5.62585
756 1 5.01463 5.6942 8.90104
757 1 9.16168 6.87087 7.28178
758 1 3.67712 9.18472 3.9392
759 1 6.6754 1.93646 4.71639
760 1 4.90519 3.8253 9.18834
761 1 2.42694 8.81633 1.09623
762 1 7.45687 8.52376 8.92736
763 1 5.33822 4.52708 8.01098
764 1 2.28672 1.68537 8.32387
765 1 0.851978 8.13024 8.17548
766 1 8.72963 3.9252 9.1186
767 1 6.75384 2.40505 5.56311
768 1 4.87003 4.17318 3.55916
769 1 8.08002 7.02262 5.11865
770 1 8.95684 4.82235 1.31946
771 1 8.99316 0.189327 2.79806
772 1 0.502859 2.23874 5.07893
773 1 4.43178 8.68995 4.61199
774 1 6.46871 4.65351 5.86367
775 1 3.21733 4.44681 2.66637
776 1 5.03149 2.9724 0.367508
777 1 6.07115 7.42068 4.9811
778 1 8.80677 2.96809 1.89504
779 1 5.73006 3.6865 5.79972
780 1 7.92347 6.02882 0.290005
781 1 2.53457 4.38989 0.427046
782 1 8.90598 6.41279 0.349609
783 1 8.82343 4.91183 4.9742
784 1 2.2234 0.313356 2.54738
785 1 0.0922718 6.22777 2.44672
786 1 1.01554 3.27598 9.18598
787 1 1.29764 7.88753 1.54091
788 1 8.34854 9.03166 4.45706
789 1 6.89615 7.98516 7.5013
790 1 0.105796 3.18047 8.66987
791 1 6.55175 1.13246 0.174428
792 1 0.0496955 3.99118 7.07124
793 1 4.3923 0.908513 8.69831
794 1 0.514374 6.17436 0.656925
795 1 3.81248 3.57122 5.52408
796 1 5.02709 4.97984 2.97122
797 1 1.22214 1.50483 3.36494
798 1 3.20504 4.40481 7.15027
799 1 5.55085 2.99806 2.36135
800 1 1.40627 8.60877 0.642143
801 2 8.02822 2.89131 3.2717
802 2 9.36183 7.04991 2.86799
803 2 2.04027 0.545171 5.64576
804 2 3.33211 7.601 1.91447
805 2 8.92687 8.52414 3.01113
806 2 7.39194 7.57819 9.00617
807 2 2.51566 9.15583 1.87872
808 2 0.258576 4.93046 7.15658
809 2 7.39395 5.32148 0.116555
810 2 1.90003 6.89145 6.77775
811 2 5.7865 5.1585 6.37144
812 2 0.978555 3.24479 3.73178
813 2 0.897296 1.49034 4.8677
814 2 0.00259917 2.342 0.978703
815 2 7.17356 2.02937 6.60358
816 2 0.149867 3.42453 1.97812
817 2 5.87982 4.72285 3.00986
818 2 2.95992 3.63134 6.70778
819 2 6.23354 2.96219 6.01444
820 2 8.19882 1.4327 7.54009
821 2 6.94106 1.05489 7.76606
822 2 6.68845 0.283172 9.09136
823 2 2.0178 0.0791978 8.38049
824 2 8.52222 6.44551 8.42997
825 2 6.5761 4.66013 4.35601
826 2 1.97697 6.01076 8.13336
827 2 6.78228 7.27381 3.69864
828 2 8.98373 0.850872 5.28521
829 2 8.45784 6.2499 3.79326
830 2 5.01649 5.90652 0.36952
831 2 6.68166 6.37229 2.2514
832 2 7.35955 8.47849 6.91414
833 2 1.49347 1.60309 0.59861
834 2 5.42037 0.0987234 0.756731
835 2 1.61409 3.93315 7.75203
836 2 7.06005 3.00336 0.254061
837 2 0.0507643 5.7531 0.0775155
838 2 0.144752 2.20211 5.8665
839 2 5.21061 7.27745 7.26699
840 2 6.62922 7.03352 5.461
841 2 7.50296 4.17779 1.12026
842 2 6.2246 4.69268 0.00531362
843 2 0.266708 8.46446 6.56414
844 2 0.394385 1.42876 9.32634
845 2 3.72811 9.16107 1.52533
846 2 0.812158 0.968977 7.59548
847 2 7.02156 8.06232 4.60106
848 2 8.5478 5.78596 6.55201
849 2 5.65305 2.5565 1.00972
850 2 0.207859 7.01236 0.164253
851 2 5.31003 5.95648 8.00349
852 2 0.0705885 4.14055 8.74265
853 2 5.32118 3.1201 5.15067
854 2 7.43915 2.26876 2.77638
855 2 4.1906 7.14357 6.0994
856 2 7.14834 1.45929 1.90321
857 2 0.0678227 0.610624 4.5126
858 2 2.24156 2.41379 7.85664
859 2 6.0702 6.16703 3.43181
860 2 2.31009 9.0526 5.92339
861 2 3.72782 0.0561175 7.19771
862 2 2.91013 4.06923 1.08169
863 2 6.44257 3.17254 3.489
864 2 7.05605 2.31861 8.30535
865 2 3.63632 5.13599 5.71423
866 2 1.14682 8.78681 1.47607
867 2 6.78072 7.55505 6.76063
868 2 8.76128 7.97623 1.86718
869 2 1.68614 8.06261 6.56711
870 2 5.52234 6.12276 4.35594
871 2 1.11132 2.83414 5.23575
872 2 2.87825 4.03032 3.3603
873 2 4.02644 3.26023 3.71673
874 2 5.71143 7.90753 1.62008
875 2 4.23632 6.63496 2.60003
876 2 6.44932 1.47655 7.0308
877 2 0.75528 7.22863 1.32187
878 2 7.61252 5.66268 7.8496
879 2 9.25008 5.65841 4.89227
880 2 5.08286 1.84563 5.23539
881 2 2.3305 7.87253 5.2831
882 2 2.92108 6.15759 5.35426
883 2 8.24165 4.21024 8.39587
884 2 7.49318 1.70456 8.876
885 2 5.19735 2.55664 2.96423
886 2 0.707192 0.0950396 3.93201
887 2 7.38944 2.06093 4.1791
888 2 6.2962 2.54207 8.96474
889 2 2.91556 4.02679 2.0482
890 2 4.48349 5.12577 5.11328
891 2 3.3425 9.17702 4.82229
892 2 5.03601 6.83922 8.82679
893 2 5.22785 2.94818 7.31215
894 2 5.1919 1.37119 1.43297
895 2 0.594231 4.15958 5.46634
896 2 8.63883 5.1378 2.05543
897 2 5.95917 8.17729 9.23053
898 2 2.20699 4.68931 7.39615
899 2 9.28759 0.324275 2.05073
900 2 8.91343 1.51551 6.92357
901 2 7.04377 0.566925 5.66746
902 2 2.94205 6.18085 3.23317
903 2 0.0361011 0.491584 6.09604
904 2 9.09892 3.31895 0.218784
905 2 1.90836 1.8652 1.87283
906 2 7.06638 3.19942 1.87771
907 2 8.31839 5.12116 9.23887
908 2 6.41983 5.82154 0.881084
909 2 5.49102 7.56861 4.21742
910 2 2.65735 2.51842 8.76425
911 2 7.61638 7.64604 3.01495
912 2 3.62517 5.20074 2.24071
913 2 3.83594 8.28398 5.24281
914 2 9.2221 5.30005 7.94613
915 2 4.00709 3.20892 0.97343
916 2 3.8673 2.21433 8.9399
917 2 8.36447 1.2163 9.28963
918 2 8.38529 0.721426 2.38454
919 2 5.41298 0.91196 4.03334
920 2 3.8977 4.40471 6.6005
921 2 2.34421 7.75856 3.56963
922 2 7.76823 9.24756 8.44001
923 2 6.13127 2.27071 2.28229
924 2 3.95192 2.87491 8.13153
925 2 7.73017 7.03818 1.54542
926 2 3.73714 1.71444 7.42467
927 2 5.15119 1.50443 7.5538
928 2 1.67493 3.75789 1.3934
929 2 2.53463 4.43408 8.86909
930 2 8.97678 0.241969 8.57295
931 2 3.57068 8.83189 8.4593
932 2 6.44252 1.6996 3.9039
933 2 8.09763 2.66034 1.53581
934 2 6.15477 4.02211 1.29556
935 2 1.42238 4.24277 6.47105
936 2 1.14786 2.81015 2.36273
937 2 1.24839 5.99228 9.27334
938 2 4.80122 8.64619 6.98428
939 2 1.06919 7.0322 3.84492
940 2 2.40723 8.2807 7.46972
941 2 8.36962 8.44341 7.81772
942 2 1.46916 1.46802 8.55667
943 2 2.65083 2.69159 1.01935
944 2 1.61265 5.23374 1.5897
945 2 7.85574 4.58357 2.70605
946 2 8.30578 3.73267 2.2985
947 2 3.10318 8.52072 6.28175
948 2 5.24869 5.87662 2.47179
949 2 6.80401 1.94997 1.20505
950 2 1.78662 3.36987 4.31572
951 2 2.65267 0.404758 7.14608
952 2 6.4528 2.84746 7.51807
953 2 5.22498 4.24312 4.36266
954 2 2.2147 6.1664 4.67705
955 2 8.2328 8.09103 6.4786
956 2 7.46553 5.12061 1.66377
957 2 7.11136 5.9226 4.65659
958 2 1.17655 8.45505 3.21338
959 2 6.90682 8.29481 5.89276
960 2 2.62198 4.55785 4.69931
961 2 8.95123 6.55407 6.4437
962 2 6.18641 0.198375 2.77394
963 2 2.72547 5.07321 6.46788
964 2 3.65794 7.53677 3.24137
965 2 2.37807 6.8038 8.51555
966 2 7.32954 5.17956 3.25124
967 2 8.99621 2.02172 2.16899
968 2 8.87527 3.99187 3.30993
969 2 7.73712 6.42673 2.54902
970 2 5.18818 4.7399 2.20165
971 2 2.86297 8.04142 0.729354
972 2 4.46042 5.71236 6.90701
973 2 4.72981 8.13192 2.04727
974 2 4.74639 4.9975 3.85454
975 2 0.798322 6.24095 8.17296
976 2 7.65854 7.15608 5.84606
977 2 5.16396 8.52895 0.764323
978 2 4.89934 0.668322 5.60093
979 2 4.41273 2.73026 6.49314
980 2 1.89929 3.19389 9.38066
981 2 9.0941 8.35398 8.98399
982 2 8.21044 6.98829 0.394402
983 2 1.02607 0.852237 0.769361
984 2 4.55849 4.51967 0.172128
985 2 8.23409 8.84485 5.29631
986 2 9.23624 1.40051 1.02158
987 2 4.73887 0.502731 2.33022
988 2 7.78091 8.61706 3.94494
989 2 6.09617 9.15797 5.28791
990 2 4.51826 1.82859 4.057
991 2 8.791 7.55371 7.06662
992 2 6.41726 7.36231 1.17254
993 2 7.58214 8.85585 2.23454
994 2 6.52157 4.16482 6.66755
995 2 3.84227 5.19041 4.27387
996 2 1.85256 2.14956 6.06687
997 2 5.29545 0.543716 8.77232
998 2 0.109043 4.73008 0.686256
999 2 3.13971 2.72963 2.32606
1000 2 5.29217 1.914 6.55982

Velocities
