#bin. KALJ data file T=0.5

1000 atoms
2 atom types

0 9.4 xlo xhi
0 9.4 ylo yhi
0 9.4 zlo zhi

Masses

1 1.0
2 1.0

Atoms

1 1 3.39637 6.1588 2.61301
2 1 3.59567 4.64533 3.7071
3 1 3.32258 2.68957 4.01401
4 1 3.31421 4.11643 9.15161
5 1 2.38483 9.31628 3.39271
6 1 3.57357 6.77866 5.05191
7 1 6.7453 5.41833 6.91604
8 1 8.66817 1.43411 7.39646
9 1 0.722186 7.01487 6.8056
10 1 0.19332 5.42763 0.622801
11 1 1.52049 0.406436 5.33754
12 1 9.05434 1.50009 8.49113
13 1 9.24963 7.30575 7.41367
14 1 2.67335 3.56398 6.87882
15 1 9.46262 8.08249 0.595743
16 1 8.3499 7.04077 8.12713
17 1 6.57084 0.252086 0.616722
18 1 6.37144 7.57715 4.11784
19 1 8.35781 7.03612 1.62373
20 1 7.16714 5.25518 8.74416
21 1 8.65268 3.84278 0.640145
22 1 7.23117 8.84855 0.53683
23 1 6.36569 0.097238 8.17318
24 1 1.92041 5.54461 9.1966
25 1 2.97696 7.40118 1.38383
26 1 5.56594 0.524076 2.71904
27 1 7.40259 3.69582 7.78458
28 1 5.97647 3.75193 2.29327
29 1 9.14876 4.34662 7.57633
30 1 0.0596535 1.42175 4.12637
31 1 0.339922 1.32613 3.01202
32 1 5.90773 5.37292 6.20779
33 1 8.56921 7.98355 1.45672
34 1 2.7718 8.37173 0.772253
35 1 4.90024 5.73437 5.8048
36 1 3.63343 8.42874 3.77279
37 1 8.88294 6.00838 8.47503
38 1 0.63844 9.22374 1.9194
39 1 4.99948 7.40746 3.58722
40 1 5.32691 0.187477 8.25415
41 1 2.10677 8.42854 5.80228
42 1 2.43475 0.561714 4.40975
43 1 4.83571 1.09983 7.92571
44 1 3.77348 2.03385 3.14118
45 1 1.23397 7.84795 8.57408
46 1 0.719865 4.39875 5.0765
47 1 5.75117 8.48783 1.89182
48 1 5.15504 1.073 5.26498
49 1 2.35138 4.38466 5.37838
50 1 5.19494 1.42214 3.20382
51 1 5.4781 6.27733 1.85892
52 1 4.66948 7.52345 0.504113
53 1 8.22562 0.102837 0.976038
54 1 7.41953 0.501326 6.3912
55 1 0.59731 5.26665 3.3937
56 1 2.58019 7.0339 4.8602
57 1 3.20681 4.94827 5.76682
58 1 4.13859 5.40091 3.01686
59 1 5.13854 6.31865 6.63577
60 1 3.76 3.62437 4.17797
61 1 4.51922 4.02654 3.56451
62 1 4.13781 7.48038 1.39894
63 1 9.31648 3.62846 4.75738
64 1 1.80934 8.67815 2.71062
65 1 6.64023 9.11419 1.58359
66 1 1.83236 0.428483 8.63212
67 1 0.820633 5.43744 6.35126
68 1 5.31045 7.38829 6.21745
69 1 8.52032 6.69308 2.6485
70 1 8.56128 4.45582 4.74301
71 1 7.39947 8.34068 7.3028
72 1 2.37208 2.50191 0.295226
73 1 3.87225 5.37441 2.02914
74 1 6.99967 0.856342 3.43395
75 1 6.53266 2.68523 2.27664
76 1 7.07544 6.79898 6.71467
77 1 3.0962 3.0768 5.05077
78 1 4.16894 6.64131 0.704871
79 1 8.26564 8.57758 6.72284
80 1 0.104647 1.72803 0.891485
81 1 2.92687 3.47966 7.95007
82 1 4.42199 9.33107 0.575081
83 1 7.08178 7.41745 4.86312
84 1 1.2552 5.94551 7.06304
85 1 8.40202 3.53992 7.5076
86 1 6.11302 4.95192 7.99694
87 1 0.677074 2.07319 5.94772
88 1 7.95456 1.37139 3.44993
89 1 4.8082 7.24112 2.22008
90 1 5.4417 5.63162 4.20337
91 1 0.817899 6.88751 2.69481
92 1 8.48336 0.659609 1.82772
93 1 3.24005 0.938079 4.99779
94 1 2.31368 5.10078 4.63011
95 1 6.8871 6.6759 4.06689
96 1 5.65235 8.07046 7.02105
97 1 9.2548 2.56519 8.62092
98 1 4.93956 8.63509 1.29112
99 1 6.4867 9.3255 6.144
100 1 4.28886 4.48998 8.65514
101 1 6.49126 4.54029 8.86406
102 1 2.06404 3.71072 3.35577
103 1 5.40894 6.79687 2.88954
104 1 6.46138 8.31286 6.25813
105 1 8.85331 6.56704 3.67163
106 1 9.25534 8.59452 4.88692
107 1 5.27332 4.63359 3.97141
108 1 7.92167 9.24077 2.49679
109 1 7.68033 5.94287 6.8803
110 1 8.58674 6.45103 7.25256
111 1 5.5279 9.34691 0.594016
112 1 7.4911 2.11577 0.923642
113 1 3.64265 4.56312 7.91505
114 1 5.61204 3.9704 3.2934
115 1 5.48803 2.14291 2.35123
116 1 5.9733 2.52197 9.09392
117 1 8.43087 8.42286 0.483569
118 1 6.97051 2.88369 1.31278
119 1 4.09452 1.56258 5.40771
120 1 1.69 8.85053 8.30972
121 1 4.00179 2.59566 4.84183
122 1 3.57681 7.76519 4.5519
123 1 5.19269 5.81429 8.78631
124 1 0.633265 0.983822 4.95286
125 1 3.89105 4.26979 5.95899
126 1 5.98197 3.65907 1.21367
127 1 5.50378 8.38566 5.92517
128 1 7.60287 7.09019 5.65631
129 1 8.40604 7.40155 0.584325
130 1 4.2888 3.73243 1.55129
131 1 6.82403 2.494 3.31239
132 1 7.06239 8.53275 2.41983
133 1 4.67075 2.51549 2.93575
134 1 0.414155 9.00494 0.327671
135 1 7.94904 6.75015 4.46232
136 1 6.70095 1.87011 7.32855
137 1 2.32066 4.71008 6.39978
138 1 6.17861 7.82604 5.31655
139 1 4.87922 2.02501 4.73575
140 1 0.519407 3.19602 9.29804
141 1 3.25581 7.53385 3.39279
142 1 5.54989 9.38153 5.58737
143 1 5.2741 1.68147 0.23799
144 1 4.30207 0.904937 4.67332
145 1 0.811187 2.63452 0.824483
146 1 1.06321 2.81722 2.45003
147 1 7.75754 1.97582 7.70577
148 1 1.28506 5.87262 3.78236
149 1 3.69041 0.857879 2.04215
150 1 0.943489 6.71553 4.29728
151 1 7.45269 7.77043 6.47767
152 1 5.34476 0.291664 4.62139
153 1 1.50604 7.18543 9.36918
154 1 3.85818 4.86151 0.266742
155 1 0.963807 8.63766 4.55179
156 1 5.68744 2.55673 7.60727
157 1 7.01329 6.47456 0.0653634
158 1 2.37736 8.66352 7.40822
159 1 2.24658 6.25124 7.90734
160 1 6.16109 6.28728 6.79693
161 1 2.44973 2.66313 7.42815
162 1 0.124441 3.18777 3.23242
163 1 5.80277 1.73911 6.84511
164 1 2.88459 0.298892 7.22053
165 1 0.132711 5.9357 5.70026
166 1 6.63758 7.73012 7.07011
167 1 3.49536 8.96848 0.145739
168 1 7.66761 5.27462 1.8147
169 1 1.655 4.79718 0.629929
170 1 6.59008 3.43183 3.03602
171 1 7.32671 8.8716 6.41255
172 1 3.38872 7.45463 8.44973
173 1 2.67606 4.93194 1.0988
174 1 5.24136 3.10732 8.58687
175 1 7.79579 3.56393 1.17216
176 1 2.82502 1.50915 3.04236
177 1 4.45913 5.9665 1.41349
178 1 7.2762 1.7267 2.70184
179 1 6.23944 3.09268 3.93761
180 1 1.58289 1.24879 7.95855
181 1 8.59815 4.86338 2.01164
182 1 2.72451 8.36791 3.27207
183 1 4.84732 4.66327 0.152353
184 1 6.43789 6.9189 7.61783
185 1 0.459799 7.66264 4.59737
186 1 0.101264 2.29607 2.54627
187 1 2.14365 1.82747 4.18751
188 1 1.19192 6.17352 0.043227
189 1 4.27872 5.00192 5.23394
190 1 3.43931 3.40668 2.04528
191 1 4.85327 4.6709 6.13338
192 1 3.8379 0.342492 6.81946
193 1 4.84405 2.11783 1.42597
194 1 2.04738 8.9088 4.81227
195 1 5.67423 8.18596 3.71528
196 1 1.37723 0.157378 3.01908
197 1 5.27387 3.02738 1.64501
198 1 7.09265 0.785275 9.15193
199 1 3.79471 9.19099 5.99807
200 1 0.914831 0.482021 8.04106
201 1 4.35252 1.66097 3.92348
202 1 3.32744 5.6853 3.67797
203 1 4.3854 2.70551 6.7145
204 1 4.95134 6.6012 9.42642
205 1 4.03233 1.71847 6.48559
206 1 5.64055 9.18694 6.74672
207 1 6.01705 4.94017 3.32476
208 1 0.804801 5.87526 2.36319
209 1 6.50076 0.704062 6.94125
210 1 1.67093 4.47923 8.21928
211 1 7.05961 1.15104 0.758373
212 1 4.57635 6.25752 2.44731
213 1 2.78603 6.06406 4.46787
214 1 7.5394 2.92732 2.68039
215 1 6.70201 6.59667 2.94887
216 1 7.2035 2.81415 7.17569
217 1 2.07383 9.39009 6.47816
218 1 2.10168 2.31316 2.18777
219 1 7.50686 4.31545 8.6403
220 1 7.45261 0.241568 8.34104
221 1 5.38343 8.76994 7.71701
222 1 4.55402 4.86599 1.10611
223 1 2.99732 0.394703 0.57639
224 1 6.71161 4.20157 3.68723
225 1 1.59039 2.93366 9.19264
226 1 3.14485 1.91003 7.73611
227 1 7.89983 6.12237 5.29399
228 1 6.83324 9.18814 9.08385
229 1 8.98945 2.31871 5.9696
230 1 7.39492 0.398711 1.58967
231 1 8.80174 4.09381 6.64922
232 1 6.85501 4.5677 7.44111
233 1 0.35247 0.0709095 2.88276
234 1 5.43533 8.02253 2.69852
235 1 5.59583 7.88549 0.919249
236 1 8.96086 3.99023 3.82684
237 1 7.95118 2.33277 5.7331
238 1 8.02538 0.605829 7.5197
239 1 5.77986 4.7009 6.92551
240 1 0.981998 1.18051 8.93046
241 1 3.1523 5.02865 2.84296
242 1 4.30777 5.51517 8.19659
243 1 4.77512 0.641499 3.73163
244 1 7.0415 5.17318 3.53542
245 1 6.56383 4.43703 1.52627
246 1 8.40324 1.85208 4.36653
247 1 4.66042 2.60722 9.33533
248 1 5.71847 8.50874 4.71312
249 1 6.64615 4.92198 5.34418
250 1 4.95021 4.66211 2.80437
251 1 7.6636 5.02287 5.02884
252 1 0.153898 6.77548 5.09505
253 1 2.35381 6.61263 1.25349
254 1 5.48336 2.60493 0.680612
255 1 4.8255 3.4691 2.4366
256 1 0.0888407 5.48846 1.63125
257 1 0.0565619 0.268475 4.49706
258 1 3.41468 6.49168 1.54378
259 1 5.89916 2.10431 5.54229
260 1 4.22751 2.7446 1.92639
261 1 0.276207 8.04793 8.31218
262 1 8.11763 2.25628 8.68086
263 1 6.80742 3.90041 5.63496
264 1 6.89837 0.725718 5.47245
265 1 3.67402 1.7931 1.50326
266 1 0.74958 7.05393 0.651813
267 1 5.96358 4.75524 2.27314
268 1 4.99029 0.972181 1.01015
269 1 3.49784 3.50754 0.555198
270 1 7.68658 7.79035 1.85682
271 1 1.68339 7.39905 1.04479
272 1 1.6626 3.06486 1.60548
273 1 8.97906 4.96438 3.04111
274 1 4.13962 3.02251 8.554
275 1 4.96949 0.53788 9.37921
276 1 9.00248 8.78231 8.59848
277 1 7.38361 4.61606 0.966323
278 1 3.7761 2.50477 5.81088
279 1 0.311928 3.57286 1.0788
280 1 3.04287 1.39234 6.90066
281 1 3.62068 7.34538 2.33891
282 1 1.81989 8.42885 3.79122
283 1 2.15291 6.21189 6.38551
284 1 6.28584 6.79513 4.98759
285 1 0.55789 0.371843 7.01646
286 1 0.563885 2.87465 6.57017
287 1 4.74465 9.18834 6.33875
288 1 0.0535189 6.50245 1.98226
289 1 8.73214 1.19642 2.66586
290 1 4.79592 4.7154 7.76495
291 1 9.21546 4.18146 5.58584
292 1 5.4502 2.73557 6.59499
293 1 8.15714 4.19021 5.70053
294 1 0.496467 2.67419 7.59075
295 1 5.23662 3.54418 7.20035
296 1 8.25281 5.10277 8.63232
297 1 0.442418 4.54649 6.58427
298 1 9.05589 3.04099 6.85677
299 1 3.93466 8.61157 6.91619
300 1 2.29235 1.27479 5.12125
301 1 5.34351 7.09551 7.30297
302 1 8.61065 6.80411 5.50593
303 1 5.87194 5.68805 5.10464
304 1 1.50311 6.51226 8.54794
305 1 6.35548 8.76813 7.29184
306 1 0.166421 0.604651 1.38862
307 1 5.38571 2.36192 3.87013
308 1 3.38397 8.67377 8.51658
309 1 0.303275 6.38633 7.43958
310 1 7.68337 6.70866 3.34708
311 1 1.19883 8.86246 1.09449
312 1 2.97377 8.03548 9.21056
313 1 6.25134 7.5231 3.12214
314 1 5.97741 1.11692 0.661163
315 1 5.98553 6.01617 7.83445
316 1 9.03178 4.67531 0.0631469
317 1 6.25681 5.839 3.61112
318 1 8.24004 2.07021 2.64248
319 1 1.65998 1.39161 1.81913
320 1 0.302289 5.81192 4.37141
321 1 9.17671 4.58539 1.09851
322 1 6.44382 9.36554 4.87392
323 1 9.23013 2.66802 0.501578
324 1 0.823256 5.22687 9.2103
325 1 0.477548 7.57421 9.19241
326 1 2.86969 2.84644 2.97289
327 1 1.3022 3.66929 0.63525
328 1 6.22638 3.49718 6.61477
329 1 9.31819 7.3322 1.21496
330 1 5.18675 4.17895 1.74283
331 1 1.49597 1.0087 4.44825
332 1 3.21402 2.41988 6.73562
333 1 0.331751 4.14207 8.83963
334 1 2.27594 5.43798 7.25701
335 1 6.16496 5.47029 1.42173
336 1 7.74601 5.66946 4.17453
337 1 7.41102 0.622048 4.34718
338 1 3.51785 0.449485 3.9683
339 1 8.09101 6.39297 0.725066
340 1 4.06988 6.04038 7.19097
341 1 6.59841 7.23642 8.78562
342 1 8.52303 0.815022 4.35895
343 1 2.73256 6.60794 3.34714
344 1 3.28501 5.15349 8.74229
345 1 7.59361 6.70219 7.6033
346 1 8.68926 3.71996 1.66347
347 1 7.88644 6.0993 8.78654
348 1 8.76298 2.74311 3.86526
349 1 2.37512 3.37307 2.27009
350 1 1.81244 3.60453 7.69648
351 1 5.61193 0.11683 1.71195
352 1 4.63876 5.64355 0.416491
353 1 7.48707 7.76012 3.96161
354 1 2.32316 7.19134 8.73563
355 1 7.85252 8.54189 3.26215
356 1 5.85342 1.09783 6.00529
357 1 1.37562 4.60896 5.96069
358 1 4.90593 2.73263 5.5594
359 1 0.576985 6.08871 8.39326
360 1 6.52954 2.1441 0.627248
361 1 9.28819 0.308513 6.20228
362 1 2.35825 7.74535 6.79769
363 1 8.43556 6.08122 1.77546
364 1 0.849641 0.937469 5.99252
365 1 4.92852 6.29289 7.83417
366 1 2.12922 9.26134 0.839624
367 1 0.23938 2.9553 5.45435
368 1 3.83907 7.59017 5.56478
369 1 6.7655 7.44382 2.23891
370 1 1.1097 1.87436 2.64333
371 1 1.59751 0.00331496 4.05069
372 1 4.08713 3.51328 5.35575
373 1 5.41603 0.79351 7.03591
374 1 6.18459 8.58873 0.260613
375 1 2.48994 8.19571 8.31775
376 1 5.02748 3.57247 0.761526
377 1 8.8964 8.64589 5.84299
378 1 2.81142 5.68184 1.93942
379 1 8.40336 8.1084 4.10953
380 1 9.31747 5.06633 8.49971
381 1 2.769 1.79099 8.79766
382 1 4.5386 0.792535 6.07625
383 1 2.74448 0.276066 1.60185
384 1 2.01355 6.72252 4.02654
385 1 4.01242 6.96881 9.10127
386 1 1.79656 6.81047 7.18387
387 1 8.56466 2.09135 1.1053
388 1 2.64097 2.99451 1.22574
389 1 4.81696 1.81053 7.13196
390 1 1.14135 5.06278 4.34649
391 1 6.78293 8.28949 3.43627
392 1 1.81099 5.8111 0.913403
393 1 2.60626 0.161258 5.57394
394 1 2.80588 5.97728 5.50056
395 1 6.38122 1.59365 9.23044
396 1 2.28693 2.72599 8.49351
397 1 6.21326 5.78971 2.45037
398 1 7.06127 5.81569 1.05168
399 1 7.34105 3.32273 3.79211
400 1 9.21487 5.13685 5.01382
401 1 5.99181 6.58309 9.36643
402 1 7.73353 3.33963 5.30962
403 1 7.84876 2.46212 3.51034
404 1 1.21568 0.510896 1.28807
405 1 3.12423 5.71269 6.46813
406 1 5.8108 1.87069 1.35455
407 1 4.46321 8.21011 2.1286
408 1 0.845694 2.07829 1.67749
409 1 8.15288 7.66109 5.0342
410 1 6.39635 3.15915 0.409182
411 1 3.94331 4.25079 2.63468
412 1 3.50613 5.36683 4.72166
413 1 2.887 8.73417 6.44166
414 1 6.61518 7.55497 0.421098
415 1 9.12759 9.05148 1.16081
416 1 7.27979 7.04008 1.2068
417 1 9.14171 0.885877 0.481297
418 1 7.11353 2.45985 9.29107
419 1 1.67379 4.14332 4.55457
420 1 6.93463 6.27633 8.26823
421 1 9.3426 6.939 8.50485
422 1 6.33678 0.982415 4.50646
423 1 6.977 4.78072 2.45644
424 1 3.82024 3.17746 3.10476
425 1 8.82688 3.94075 2.66169
426 1 8.18176 2.4062 6.80063
427 1 6.80119 1.86514 1.62479
428 1 2.14869 7.52361 3.38494
429 1 4.17086 2.03163 8.08396
430 1 6.19578 9.01669 3.90377
431 1 0.484363 5.17069 7.51651
432 1 0.440032 6.32626 3.40934
433 1 7.54438 3.96092 2.96813
434 1 0.440366 2.79474 4.37349
435 1 6.75354 8.42667 4.61853
436 1 1.62551 7.93136 7.52456
437 1 2.09792 4.65935 2.75207
438 1 1.52583 6.48907 1.78407
439 1 1.02317 3.38183 8.31718
440 1 2.17927 0.913359 1.13144
441 1 5.12367 2.11488 8.51668
442 1 3.45785 7.75879 6.57483
443 1 1.09671 3.94825 1.57477
444 1 7.66356 4.09299 6.56825
445 1 1.34351 8.88943 7.21517
446 1 8.01729 1.23178 8.49191
447 1 8.21508 2.77885 0.295377
448 1 1.1632 7.8646 3.03823
449 1 6.33976 0.851897 1.54359
450 1 2.50989 8.98532 9.18507
451 1 9.32764 3.48263 8.07737
452 1 9.15578 7.4253 2.28691
453 1 4.20884 1.87211 0.58965
454 1 1.09076 8.11337 0.414447
455 1 4.34038 7.13453 4.46202
456 1 1.98787 3.72818 6.16475
457 1 6.78005 3.13063 4.81427
458 1 1.75881 7.21839 6.08706
459 1 6.82223 1.55304 6.15483
460 1 3.43314 4.30989 5.01695
461 1 1.79059 1.91638 6.04496
462 1 6.1376 6.91071 1.0827
463 1 1.71567 0.539155 0.30074
464 1 0.652395 8.96084 8.62553
465 1 1.08149 9.23627 6.20779
466 1 1.91025 0.248852 7.60501
467 1 6.16782 1.95677 8.23435
468 1 6.42011 7.19493 5.9929
469 1 1.39248 2.4206 4.34438
470 1 0.527181 9.38988 5.38628
471 1 8.82851 9.3888 0.180695
472 1 0.101708 1.97231 5.03073
473 1 7.02705 2.64369 8.18262
474 1 1.33612 8.02306 5.23423
475 1 8.87312 1.8264 3.38328
476 1 1.65749 2.92624 6.78443
477 1 2.90893 8.95438 4.21577
478 1 3.62257 5.55822 0.960519
479 1 0.678751 4.14138 7.73747
480 1 1.99497 8.15546 9.32197
481 1 4.30034 2.90405 0.892757
482 1 5.29048 3.50292 4.16678
483 1 1.67735 5.96075 4.72999
484 1 1.73358 2.17135 1.09691
485 1 0.172503 8.78705 6.71703
486 1 7.5064 7.96618 0.791246
487 1 8.06844 6.9559 6.54638
488 1 9.20166 6.76418 6.41825
489 1 9.36048 2.00294 6.85191
490 1 4.56761 8.42817 3.30903
491 1 3.61909 8.30747 2.76696
492 1 3.12027 2.34965 2.10589
493 1 8.60968 3.3014 5.83705
494 1 5.34346 1.34511 4.17551
495 1 0.498292 8.36457 5.7367
496 1 2.87406 1.7766 5.9238
497 1 1.40827 4.75478 7.24742
498 1 2.32727 2.86881 4.00789
499 1 4.48006 7.22576 8.18021
500 1 7.07566 1.62468 8.52946
501 1 7.74467 4.53877 3.97141
502 1 1.03395 2.02366 6.89004
503 1 6.05534 1.03862 7.77964
504 1 8.20129 7.71103 7.35683
505 1 5.36802 4.69995 4.97526
506 1 7.58836 6.79054 2.26424
507 1 2.16668 0.647788 2.42724
508 1 4.60387 0.181008 1.56796
509 1 5.92719 0.257677 9.0958
510 1 9.11395 6.27729 0.982584
511 1 0.703195 0.624356 3.73017
512 1 7.95437 2.65445 1.72662
513 1 8.75982 2.94533 2.33879
514 1 8.66085 5.35056 7.62618
515 1 4.4424 9.08445 8.89055
516 1 2.66226 7.75799 2.36124
517 1 1.50005 2.43603 7.88294
518 1 3.14515 3.03756 9.01979
519 1 1.84107 5.68608 2.42661
520 1 2.15141 6.45848 0.180619
521 1 4.46802 9.17564 4.3296
522 1 0.329515 8.99182 7.7209
523 1 2.26517 5.59116 3.42119
524 1 1.46045 0.923912 6.89998
525 1 5.3447 1.18555 1.97526
526 1 4.39001 3.67265 9.30045
527 1 2.61587 6.77238 2.22487
528 1 2.77313 1.29829 2.07043
529 1 2.57794 2.75195 5.97579
530 1 8.46825 8.37214 2.44335
531 1 2.11648 3.37215 5.13649
532 1 1.40068 4.45867 3.53429
533 1 3.75193 7.04845 7.38574
534 1 7.45612 8.93572 4.14763
535 1 2.98197 8.42584 5.30511
536 1 5.62142 2.97907 2.98854
537 1 4.48645 1.49307 8.9547
538 1 4.94992 1.78274 6.05214
539 1 8.60528 5.07468 3.93011
540 1 2.38983 5.19082 8.31607
541 1 2.68369 1.90383 1.26945
542 1 3.25246 4.62629 6.84594
543 1 1.33707 8.95274 9.33588
544 1 3.72832 0.254912 7.99458
545 1 6.67845 6.49275 1.82246
546 1 6.11469 7.86305 7.90829
547 1 1.45117 7.59001 4.19675
548 1 9.31775 8.28205 3.79289
549 1 2.02635 1.77557 7.17601
550 1 0.776573 3.73714 5.92054
551 1 2.83234 5.44423 0.258178
552 1 0.170948 4.45198 2.04052
553 1 4.09277 5.23975 6.52766
554 1 5.84577 4.36096 5.82387
555 1 1.18581 1.59459 3.63633
556 1 1.18914 6.39484 5.97304
557 1 4.35703 8.77604 7.85888
558 1 7.16244 1.73948 4.00217
559 1 4.19125 6.95919 3.09974
560 1 2.66042 3.80251 4.37059
561 1 2.98974 3.92074 2.95063
562 1 0.789232 7.15068 7.89903
563 1 3.56095 7.45782 0.501874
564 1 8.2831 3.34136 3.20984
565 1 2.21504 0.999673 6.18577
566 1 0.656947 4.47436 0.528036
567 1 8.35556 7.73505 6.01724
568 1 9.41923 1.49559 1.94666
569 1 2.44738 4.58212 9.2898
570 1 4.19211 6.09904 4.57219
571 1 9.02113 5.06559 6.02089
572 1 5.41981 6.1215 0.821873
573 1 1.28514 3.78563 2.65661
574 1 4.49795 2.81639 3.97603
575 1 1.8756 2.31877 3.22244
576 1 7.22599 3.12772 6.19665
577 1 4.04022 8.0287 9.16891
578 1 8.82498 -0.00290077 7.0793
579 1 5.81304 7.44092 1.91863
580 1 2.777 7.44797 5.71758
581 1 5.28525 9.16355 3.57692
582 1 5.55695 4.59906 0.937725
583 1 9.07066 0.620428 3.4848
584 1 5.08124 5.22984 1.9965
585 1 7.9699 0.503242 0.0451555
586 1 4.01839 8.56407 5.2039
587 1 7.69808 0.83606 2.46412
588 1 8.59751 9.16495 4.2259
589 1 1.81513 9.23879 1.89952
590 1 8.17377 5.00255 6.54191
591 1 3.55956 6.74531 3.96347
592 1 8.8122 0.146157 5.20358
593 1 9.27124 5.73424 6.77966
594 1 6.59711 3.41689 8.82582
595 1 8.43532 5.25453 1.02889
596 1 7.37208 5.33821 5.96864
597 1 0.543378 1.30611 7.50671
598 1 1.13634 3.84115 6.81914
599 1 1.15822 8.18956 1.99784
600 1 4.95254 9.05073 2.51532
601 1 8.93278 7.31038 4.40623
602 1 7.80515 4.274 1.95596
603 1 2.94647 3.79474 5.85689
604 1 6.00283 8.58129 8.68195
605 1 3.82124 6.40918 8.2131
606 1 4.55516 3.76394 7.95422
607 1 2.68687 9.41649 8.19759
608 1 4.91137 8.15293 8.61822
609 1 0.889724 0.852123 2.22421
610 1 7.24624 3.72743 0.185424
611 1 3.85277 0.590092 9.35946
612 1 1.2986 4.12978 9.11817
613 1 4.58541 0.618315 2.55579
614 1 0.691661 1.95646 8.29192
615 1 3.24796 1.45328 3.96658
616 1 0.412816 2.26923 3.48808
617 1 8.78613 6.17868 4.67819
618 1 6.38562 4.21343 0.45175
619 1 6.6524 4.44323 6.46977
620 1 7.65888 5.50791 0.287861
621 1 7.90402 0.658995 5.29426
622 1 6.09896 8.92857 2.7932
623 1 7.20873 8.12658 5.59665
624 1 8.70647 1.85093 0.0690964
625 1 0.817703 4.90218 1.40019
626 1 0.126213 4.7312 4.17933
627 1 0.805859 8.82988 3.48804
628 1 1.63197 1.99526 8.80302
629 1 4.71397 6.32468 3.79786
630 1 4.56271 7.87282 7.29582
631 1 3.924 0.850012 1.02426
632 1 1.86945 5.51855 5.72621
633 1 0.0673351 8.38687 2.75431
634 1 5.6844 6.42897 5.80809
635 1 2.82721 4.44617 1.94798
636 1 7.95044 8.94299 9.05316
637 1 1.37974 5.47635 8.14976
638 1 4.57953 6.77617 5.60957
639 1 2.05954 1.51518 0.204776
640 1 7.66015 3.25922 8.75032
641 1 3.91082 5.96246 9.15206
642 1 8.81877 3.36654 9.14588
643 1 8.64118 7.6724 3.22472
644 1 3.54925 9.22163 1.25658
645 1 3.66427 3.51111 6.58865
646 1 5.24924 6.42829 4.82597
647 1 5.57637 1.19213 8.68816
648 1 7.21837 4.06704 4.71886
649 1 4.34945 7.21393 6.54306
650 1 3.70877 2.99438 7.52409
651 1 6.22216 5.61911 8.8477
652 1 4.55464 0.0399892 5.2883
653 1 7.59993 1.38995 6.86134
654 1 5.65805 7.62321 9.23058
655 1 3.15552 6.4666 0.420797
656 1 7.73186 1.6175 0.0187117
657 1 4.99068 8.45759 0.244186
658 1 0.821162 7.18949 1.71316
659 1 2.17421 2.33789 5.06534
660 1 4.43084 5.20809 4.00609
661 1 5.56344 5.3715 0.225735
662 1 6.45676 2.42542 6.49913
663 1 3.39173 8.14332 7.61588
664 1 0.887801 5.38571 5.25916
665 1 2.01182 0.976987 3.51242
666 1 2.55335 7.97631 4.35521
667 1 9.00745 9.26296 2.17934
668 1 5.38987 7.41142 4.50356
669 1 1.14881 3.06287 3.40233
670 1 6.42557 2.1427 4.56345
671 1 0.995021 4.89316 2.4854
672 1 6.57765 5.23822 0.367991
673 1 1.11575 1.43481 0.664551
674 1 2.60212 7.34662 7.72324
675 1 2.66446 0.804437 9.09845
676 1 0.179378 6.46746 9.37731
677 1 7.02075 8.64408 8.16894
678 1 7.50787 1.58862 4.96123
679 1 7.69703 2.5674 4.58484
680 1 0.39438 7.31057 3.61095
681 1 2.74194 8.94023 2.44285
682 1 5.31175 5.68 3.05516
683 1 3.48732 1.11337 8.48369
684 1 8.87479 7.81933 8.91136
685 1 8.48587 5.98057 6.18453
686 1 2.18264 3.74282 8.63418
687 1 6.26021 4.97321 4.29495
688 1 7.57575 7.62298 2.81886
689 1 1.23028 8.09862 6.34868
690 1 4.39179 1.69722 2.32883
691 1 3.21056 1.42013 0.289067
692 1 7.08919 9.22647 3.17454
693 1 8.44942 0.304643 8.53478
694 1 2.54864 7.36579 0.461456
695 1 6.40621 3.2919 7.67075
696 1 7.91151 4.86313 2.81789
697 1 4.83631 7.77638 5.35068
698 1 4.67787 3.65544 6.20194
699 1 1.56903 6.94751 5.07984
700 1 8.05036 9.01178 7.71626
701 1 3.94059 1.2175 7.4583
702 1 8.67636 2.7054 4.9679
703 1 6.80359 6.20155 5.78044
704 1 8.03668 4.56092 0.146755
705 1 6.09899 3.16311 5.66219
706 1 3.06081 2.00203 4.88711
707 1 6.2017 1.70829 3.63621
708 1 4.54288 8.15518 4.35415
709 1 2.9085 6.53001 7.17043
710 1 0.812585 6.12581 1.21611
711 1 2.52232 1.02425 7.90156
712 1 2.55309 4.68079 3.67052
713 1 0.830988 7.32423 5.76032
714 1 0.735633 3.88135 4.0783
715 1 6.86244 5.86918 4.7878
716 1 4.0995 9.38391 3.29979
717 1 4.94874 5.38982 6.99579
718 1 5.28799 3.62631 5.2803
719 1 8.07588 8.07611 8.34731
720 1 5.77241 6.7099 3.8779
721 1 1.79319 4.84384 1.68538
722 1 7.8534 1.61765 1.83718
723 1 8.03614 4.50686 7.49591
724 1 7.07998 1.00186 7.75073
725 1 5.35876 4.80669 8.65309
726 1 8.18535 8.70319 5.08353
727 1 3.25676 5.44847 7.59926
728 1 7.58245 8.77023 1.56513
729 1 1.73156 7.37391 2.30157
730 1 0.299436 3.40648 2.17827
731 1 9.34003 2.65279 1.49611
732 1 5.992 0.677589 3.60648
733 1 3.99283 8.33146 0.849333
734 1 0.425486 4.25087 3.15928
735 1 8.26531 9.33927 6.04583
736 1 8.96572 8.31375 7.49978
737 1 1.06725 3.37178 4.9904
738 1 2.08876 8.20267 1.58856
739 1 4.2361 4.30861 7.0738
740 1 8.41516 0.91077 6.41569
741 1 3.50101 -0.00757687 4.98618
742 1 8.15968 3.61192 4.3088
743 1 0.619577 7.99778 7.22963
744 1 1.3161 1.71387 5.12479
745 1 2.38428 3.5099 0.250608
746 1 8.88364 9.03172 3.22685
747 1 0.0755381 0.456522 8.87449
748 1 5.6563 3.8713 9.26578
749 1 7.68552 7.10086 8.94623
750 1 8.44142 1.51103 5.44334
751 1 5.4464 6.97489 8.42605
752 1 4.71448 2.81105 7.67648
753 1 7.19146 7.55145 8.06528
754 1 4.67422 0.164612 7.34973
755 1 1.44007 2.80582 5.78838
756 1 3.87911 5.92154 5.72104
757 1 0.59148 2.10447 9.32967
758 1 3.34951 6.6655 6.163
759 1 4.5588 4.13825 4.55958
760 1 3.28179 8.34761 1.79063
761 1 9.27555 1.31136 6.04305
762 1 5.10831 7.03941 1.29596
763 1 8.53935 4.17434 8.42652
764 1 2.23866 3.97561 1.18302
765 1 0.205365 8.25024 1.60644
766 1 6.91951 2.35144 5.49593
767 1 5.69862 2.78808 4.74814
768 1 3.54212 4.38829 1.14342
769 1 9.18253 7.67979 5.39786
770 1 2.94497 6.19904 8.79408
771 1 6.58581 0.456213 2.49785
772 1 3.8946 1.05149 3.11436
773 1 4.53639 8.18292 6.18055
774 1 3.43703 0.938828 6.07423
775 1 9.23694 5.91375 2.73674
776 1 3.70701 2.17296 9.05809
777 1 6.60584 8.11614 1.30883
778 1 8.58196 6.78716 9.20504
779 1 3.88625 9.16032 2.27663
780 1 7.28127 5.78643 2.63834
781 1 8.11437 1.17963 0.93794
782 1 8.65156 2.53596 7.763
783 1 9.22529 7.82768 6.51451
784 1 3.1289 0.375388 2.77238
785 1 1.70699 6.52217 2.92537
786 1 2.58569 4.37167 7.58792
787 1 0.67786 0.624095 0.366098
788 1 7.32505 9.18367 5.39579
789 1 9.21836 0.63375 7.79587
790 1 5.76516 3.95273 8.24067
791 1 6.99901 3.6656 2.01019
792 1 8.2431 5.77696 3.29174
793 1 7.16108 9.36593 7.37505
794 1 8.65651 5.6505 0.0630431
795 1 7.55363 5.38407 7.76358
796 1 6.09202 4.00198 4.6709
797 1 7.99779 0.322083 3.56519
798 1 3.33081 2.41999 0.611346
799 1 6.24289 1.43218 2.54626
800 1 7.22629 8.15827 9.00307
801 2 2.44677 2.13368 6.59052
802 2 8.90246 7.62266 8.13704
803 2 3.91672 2.87751 0.0777249
804 2 8.81172 1.26877 1.39684
805 2 6.27717 8.16207 2.55325
806 2 6.73572 5.46551 8.0153
807 2 2.32337 1.97279 8.06405
808 2 0.577311 7.68079 2.41289
809 2 2.8699 4.20994 0.502891
810 2 7.42166 2.307 6.41258
811 2 0.0622314 5.58882 9.10211
812 2 1.86973 3.99952 2.05794
813 2 0.790423 3.01373 1.60665
814 2 1.55545 2.18702 0.257673
815 2 6.00336 7.14964 6.76439
816 2 0.366829 1.07183 8.29153
817 2 3.32833 9.04568 7.48048
818 2 2.13479 6.55508 5.59109
819 2 0.0771889 9.307 3.73069
820 2 0.868923 4.82395 8.40322
821 2 4.43062 0.576333 8.51489
822 2 5.85026 0.150751 7.48185
823 2 5.18797 7.87295 7.83164
824 2 0.0738065 6.62244 4.25116
825 2 5.88617 5.49993 7.15617
826 2 3.465 2.8196 1.35565
827 2 7.21111 6.57665 5.1039
828 2 7.62784 1.50258 5.83834
829 2 6.30881 6.08636 0.530725
830 2 8.12147 6.06055 7.98347
831 2 8.56632 0.320845 2.86073
832 2 3.92168 0.539573 5.49591
833 2 0.863837 8.1107 3.87346
834 2 6.84153 5.47907 1.92548
835 2 7.39748 4.93923 6.8467
836 2 9.32693 0.60841 2.34079
837 2 4.17649 8.77583 1.52907
838 2 0.957497 0.191291 4.60866
839 2 9.40482 3.52718 6.21728
840 2 8.50785 3.26862 8.39014
841 2 0.868228 2.65762 8.67581
842 2 4.99723 4.08116 8.79198
843 2 3.00882 0.169133 6.32775
844 2 7.00636 7.21884 3.42519
845 2 4.89976 8.71923 4.99888
846 2 7.13654 4.62763 0.111627
847 2 1.40257 7.49154 6.83409
848 2 8.23985 7.24644 3.79613
849 2 0.395039 4.85454 5.71198
850 2 3.77275 3.78262 8.35787
851 2 3.9524 2.08662 7.28168
852 2 8.77438 2.07734 1.93621
853 2 1.35364 5.63468 1.71914
854 2 7.18059 6.05855 3.46385
855 2 5.32962 5.40726 8.0631
856 2 8.82684 9.16162 7.91038
857 2 8.01287 3.51068 2.26468
858 2 4.21809 4.14862 0.626379
859 2 5.47776 3.8787 6.41702
860 2 4.41855 1.08009 0.350586
861 2 6.19984 6.60167 8.42223
862 2 4.01588 8.05947 8.25252
863 2 7.40429 4.46391 5.60441
864 2 9.38025 6.86779 2.9656
865 2 1.27684 8.8588 5.42214
866 2 6.67958 4.13527 8.13627
867 2 6.99829 3.70549 7.04683
868 2 8.20494 5.24062 5.6683
869 2 4.57976 1.01713 6.9368
870 2 3.05699 4.64497 4.40361
871 2 6.54208 1.63445 5.23176
872 2 3.34667 0.176942 8.82541
873 2 8.40671 5.43489 4.87883
874 2 7.9352 0.0332014 4.7191
875 2 5.35174 0.474249 6.29058
876 2 1.21117 7.10283 3.51513
877 2 1.53192 3.90135 5.49475
878 2 2.00495 8.48549 6.71643
879 2 5.50441 1.73563 7.65414
880 2 2.09055 7.58471 5.24649
881 2 6.93288 2.59764 4.13137
882 2 3.15016 7.06672 9.17725
883 2 3.29967 9.0295 3.2327
884 2 6.74378 0.238782 4.10453
885 2 1.87815 3.04025 0.746813
886 2 4.72843 3.13862 4.73972
887 2 0.489472 6.2842 6.48317
888 2 3.56116 8.37687 5.98479
889 2 8.86503 2.59152 3.05648
890 2 7.62769 7.16682 0.393632
891 2 2.60225 8.85769 1.49839
892 2 0.15161 8.39332 9.22567
893 2 1.00203 0.315873 8.82751
894 2 8.47835 5.52121 2.44471
895 2 0.806064 8.73486 2.63692
896 2 8.18822 3.35101 6.54549
897 2 6.50782 0.970096 8.49817
898 2 7.82987 2.88891 7.79278
899 2 5.94504 4.0121 7.42163
900 2 2.56137 6.96833 6.49559
901 2 8.57226 1.07009 9.07908
902 2 1.45264 6.5894 0.823514
903 2 4.32297 6.27361 6.33346
904 2 8.3706 8.96635 1.59715
905 2 4.58979 6.78978 7.20859
906 2 9.03977 4.89727 6.91436
907 2 2.33541 0.923885 7.01856
908 2 4.55628 7.69845 2.87853
909 2 4.13887 5.20726 7.40259
910 2 3.01085 6.74818 8.13953
911 2 4.93055 7.8335 1.51443
912 2 6.10041 2.76605 1.30881
913 2 9.09162 1.00046 5.02061
914 2 6.93067 3.79643 1.0814
915 2 5.59531 7.26391 5.30144
916 2 3.56024 1.61511 2.39698
917 2 7.64205 6.33425 6.09388
918 2 7.3356 2.30662 2.07073
919 2 9.3094 1.97341 7.79751
920 2 6.81821 6.12178 7.41216
921 2 2.49523 6.03897 2.73253
922 2 4.77689 8.69413 7.08921
923 2 5.70982 1.70388 4.8655
924 2 3.47233 3.92527 7.36929
925 2 0.941784 7.86273 1.17977
926 2 7.14897 4.9307 4.37163
927 2 7.39438 0.293503 0.599991
928 2 7.88242 8.49882 5.90185
929 2 0.813877 6.8552 8.88174
930 2 7.43449 2.98299 0.572298
931 2 4.51206 5.2176 9.03907
932 2 1.11206 3.18642 7.42529
933 2 1.98603 1.23278 8.67856
934 2 4.10373 7.5324 3.77412
935 2 7.54148 6.27895 1.55778
936 2 8.12394 3.80654 9.16973
937 2 5.262 5.42614 1.14498
938 2 0.140356 3.8827 0.225907
939 2 4.97291 3.32639 3.32989
940 2 2.77312 5.89749 0.963641
941 2 3.05441 3.78983 1.41486
942 2 1.64669 5.29722 6.61652
943 2 5.37466 3.11535 0.00158834
944 2 8.27458 4.35177 1.22526
945 2 0.19035 5.15336 2.42801
946 2 1.26201 0.989798 3.01799
947 2 5.2309 8.96412 8.98366
948 2 1.54034 5.24227 3.18136
949 2 3.88127 1.72773 4.62692
950 2 2.83641 0.76941 3.60169
951 2 0.753426 1.92324 4.35622
952 2 4.35473 3.46976 7.09486
953 2 1.82227 3.04913 2.79067
954 2 4.61001 4.18053 5.4257
955 2 7.57155 8.27241 4.76175
956 2 0.855755 2.54676 5.12291
957 2 4.62706 6.43882 8.5862
958 2 3.07448 3.4111 3.60449
959 2 4.20461 6.7303 1.91811
960 2 1.22594 6.37588 7.73996
961 2 0.750259 1.26326 1.43389
962 2 3.19845 2.62719 8.25415
963 2 0.943527 6.32299 5.17585
964 2 6.44568 4.26866 2.85151
965 2 5.38463 7.12161 0.565535
966 2 1.61785 3.3726 4.10426
967 2 0.544455 1.37644 6.59866
968 2 6.02801 0.645507 5.20366
969 2 4.83512 7.43639 9.02425
970 2 6.12845 6.11731 4.4342
971 2 5.96113 8.76568 1.11689
972 2 8.493 1.77854 6.32731
973 2 6.06677 2.93628 8.39128
974 2 8.53737 3.67774 5.06992
975 2 1.64642 7.24843 8.11775
976 2 4.90256 5.56154 4.83624
977 2 2.82364 4.30789 8.42649
978 2 1.8081 8.41739 0.654656
979 2 1.58572 4.80724 5.14842
980 2 8.04034 7.92785 9.28869
981 2 1.94074 1.5634 2.66995
982 2 9.24118 5.6334 3.57953
983 2 1.06476 5.48329 0.700883
984 2 7.94146 9.32744 6.89564
985 2 7.3795 7.40059 7.26337
986 2 0.140971 1.33234 9.32835
987 2 6.49991 8.67367 5.41497
988 2 8.31689 4.23399 3.32929
989 2 2.76281 2.18072 3.60353
990 2 9.27965 7.18308 0.393667
991 2 6.07652 6.76831 2.37212
992 2 8.32487 7.51032 2.33661
993 2 4.39803 1.13989 1.65169
994 2 8.5549 3.08739 1.02227
995 2 0.219512 3.82517 7.0653
996 2 1.99381 4.15045 6.99854
997 2 1.00436 8.47589 7.92871
998 2 2.74796 7.1812 3.95888