#bin. KALJ data file T=0.5

1000 atoms
2 atom types

0 9.4 xlo xhi
0 9.4 ylo yhi
0 9.4 zlo zhi

Masses

1 1.0
2 1.0

Atoms

1 1 7.67179 0.213294 2.47858
2 1 3.07528 5.48233 0.143903
3 1 3.28423 1.49152 4.3895
4 1 2.34206 5.33792 2.3748
5 1 0.508953 9.18707 3.77938
6 1 6.45361 0.165091 5.22075
7 1 3.08074 6.67722 3.13268
8 1 3.00417 1.77187 7.12239
9 1 1.09251 6.20045 4.82721
10 1 2.03634 4.0654 2.36041
11 1 5.65108 1.21454 6.11343
12 1 8.10592 1.03236 1.44437
13 1 0.301671 0.930805 3.74922
14 1 4.36497 5.18192 4.66173
15 1 0.0160407 9.01577 7.97583
16 1 1.35948 8.12111 7.57802
17 1 7.69281 2.02712 0.906626
18 1 4.21729 5.86966 0.0707545
19 1 4.37666 5.67244 7.47379
20 1 9.30359 4.93494 8.0093
21 1 1.00678 5.27526 -0.00450774
22 1 8.78511 4.10573 7.85315
23 1 5.21769 0.556934 1.78956
24 1 2.36821 7.33615 5.94978
25 1 7.55394 1.23736 2.48109
26 1 8.71841 4.084 5.11533
27 1 0.468063 7.83782 2.54067
28 1 4.53663 1.25518 2.22142
29 1 2.33658 4.43637 4.41607
30 1 7.33028 3.47418 4.9911
31 1 3.52046 0.886827 0.571103
32 1 8.67061 3.38695 7.11411
33 1 4.45493 9.21659 1.60217
34 1 6.64095 0.587589 2.6805
35 1 2.90121 0.37669 3.85312
36 1 3.37102 3.09275 2.84009
37 1 5.30721 7.91295 8.04911
38 1 2.03317 1.5381 1.73332
39 1 6.65671 7.82614 9.01693
40 1 9.26702 8.48478 8.93406
41 1 6.37615 2.73974 7.26219
42 1 0.831993 8.89299 4.72419
43 1 2.12538 8.32974 5.81724
44 1 2.62078 1.05047 5.84638
45 1 0.0787126 0.306273 2.98425
46 1 7.33758 6.83151 1.77731
47 1 0.788698 2.34831 0.632678
48 1 5.14286 8.31015 1.43927
49 1 4.98469 3.87916 5.66829
50 1 1.53948 2.72027 4.82401
51 1 0.646156 4.6508 3.60955
52 1 6.57318 0.143 3.71716
53 1 2.31242 1.22793 4.09107
54 1 9.09097 5.67612 8.81315
55 1 2.72627 5.01984 6.38785
56 1 0.932559 4.39868 6.71651
57 1 1.73479 5.54266 7.81691
58 1 4.76757 7.50287 2.69091
59 1 6.68987 8.88523 8.15735
60 1 2.07569 8.33352 3.03989
61 1 3.00273 0.402015 2.86025
62 1 4.365 8.34443 2.2533
63 1 7.31979 3.0599 7.0418
64 1 0.166402 6.79033 0.180334
65 1 8.29859 2.57579 3.94157
66 1 3.02474 0.554472 6.71032
67 1 6.73027 6.60496 8.82684
68 1 4.26754 7.7076 7.86873
69 1 6.2905 5.05579 2.2252
70 1 8.13472 3.49836 3.34826
71 1 6.58027 3.52621 0.501316
72 1 6.67974 1.93323 3.66168
73 1 2.93545 7.92107 5.10097
74 1 3.37372 8.41493 1.48818
75 1 7.39913 1.09841 7.32947
76 1 8.78578 8.76589 1.3866
77 1 1.43172 1.748 4.54219
78 1 2.23059 6.42015 2.57803
79 1 5.32754 2.06865 8.33648
80 1 1.27441 9.1595 8.09782
81 1 2.698 8.07981 7.10651
82 1 6.17765 1.11335 3.49377
83 1 4.74231 6.6004 4.31193
84 1 1.70485 5.74029 6.52431
85 1 0.623209 2.56538 8.84816
86 1 5.22345 1.39747 0.790756
87 1 3.61422 3.36666 3.91098
88 1 8.38923 1.34571 7.2122
89 1 5.31645 4.65991 6.4251
90 1 5.27319 3.809 1.06577
91 1 7.70578 6.86283 5.19951
92 1 7.89179 0.346987 7.94408
93 1 2.82906 0.610444 4.81521
94 1 0.315847 5.47894 5.28395
95 1 8.60949 7.60941 3.88495
96 1 6.15235 6.43158 7.27097
97 1 2.82201 4.81935 0.862989
98 1 5.79846 7.87468 0.769211
99 1 3.23147 0.136976 5.6509
100 1 7.65852 7.83313 7.20024
101 1 5.22889 6.62054 5.84501
102 1 3.75632 9.13695 2.59663
103 1 2.9432 8.73683 3.49526
104 1 2.52998 7.45659 2.57039
105 1 9.10004 0.806611 4.78521
106 1 7.04928 1.60047 8.17943
107 1 5.67724 5.22028 1.39069
108 1 8.8658 1.6184 4.10985
109 1 6.38193 2.34573 2.01151
110 1 0.340646 3.79012 7.38778
111 1 7.93335 4.11737 8.56942
112 1 5.94436 8.87682 0.771087
113 1 4.37036 3.02397 1.16322
114 1 1.60388 2.37684 2.45872
115 1 7.27852 9.34963 4.57052
116 1 7.73765 2.38684 8.71964
117 1 8.31854 7.04672 7.73446
118 1 7.6407 1.11816 6.32225
119 1 4.33045 2.07282 8.87345
120 1 0.62479 7.69037 9.07188
121 1 5.35745 0.436381 5.34233
122 1 1.61783 7.19528 8.84137
123 1 2.05259 6.59991 5.26646
124 1 4.97003 2.08843 6.1783
125 1 5.40392 5.61965 5.891
126 1 7.54222 4.67675 3.52164
127 1 3.71873 8.84674 4.21091
128 1 4.70809 5.18383 8.33343
129 1 1.09185 6.2628 0.480937
130 1 4.27477 0.122493 5.69174
131 1 7.96518 2.85263 1.80249
132 1 7.6045 2.00298 5.71447
133 1 7.29971 8.58989 2.58015
134 1 0.645906 5.61668 3.07961
135 1 7.03704 6.97978 3.51462
136 1 8.55862 8.66558 6.75822
137 1 1.83937 4.83142 0.461802
138 1 5.24911 2.85617 9.05271
139 1 0.10985 1.13271 7.17932
140 1 3.08158 3.02153 5.50582
141 1 3.18761 7.86128 7.92953
142 1 3.7629 4.95553 9.02454
143 1 4.85823 4.79021 0.0243134
144 1 0.407777 1.64192 4.47679
145 1 7.21274 5.54017 8.77006
146 1 4.39956 0.827498 1.22831
147 1 5.37182 2.93034 6.77375
148 1 0.917469 4.5099 7.8676
149 1 3.24291 8.2899 2.52353
150 1 6.4286 7.66109 3.91823
151 1 0.158435 8.65693 6.06936
152 1 5.61049 7.68705 9.12652
153 1 1.37734 6.1038 8.84187
154 1 4.10152 6.97046 9.37849
155 1 0.602127 6.41096 3.86557
156 1 4.74965 8.27794 5.0663
157 1 6.60693 4.92122 8.22843
158 1 2.41447 6.19215 8.16545
159 1 9.29809 6.82331 7.62956
160 1 3.70333 2.97032 8.59665
161 1 2.00636 2.95106 5.73416
162 1 8.46313 3.48586 9.24917
163 1 2.89936 3.62642 4.74216
164 1 3.25925 8.56788 0.452502
165 1 5.67776 2.97894 0.616545
166 1 6.0574 8.00906 2.92881
167 1 2.20995 7.08325 3.4965
168 1 6.89965 4.26464 1.68075
169 1 2.47921 6.75415 9.12848
170 1 0.781552 3.558 3.68107
171 1 5.86993 6.12567 0.857426
172 1 2.07876 2.14096 7.70093
173 1 8.00878 4.80165 1.89163
174 1 2.45262 3.78797 7.02101
175 1 7.03106 6.03026 7.82075
176 1 2.62355 9.04898 6.40387
177 1 3.54224 7.49946 0.785574
178 1 7.14185 3.21502 2.2823
179 1 6.44251 0.941856 6.80401
180 1 0.420086 8.17971 3.53783
181 1 7.63912 6.42183 2.67316
182 1 5.50371 3.05716 7.75212
183 1 3.98647 4.96339 0.553488
184 1 3.94431 8.90372 7.78346
185 1 2.62216 6.53968 6.56519
186 1 2.79854 4.73756 5.35834
187 1 2.1379 0.0915156 5.55087
188 1 3.00681 6.49447 0.543777
189 1 4.07617 6.388 3.5362
190 1 5.56054 7.4301 1.96702
191 1 5.31787 6.03558 7.72607
192 1 0.0481715 3.06488 0.229572
193 1 2.51377 7.75733 8.83514
194 1 7.94975 6.5673 1.00056
195 1 8.94795 0.283348 3.92422
196 1 8.6126 1.99396 1.39683
197 1 6.31597 6.73392 6.10597
198 1 0.113153 1.54527 0.931038
199 1 8.71931 7.93387 4.85155
200 1 4.13762 0.816695 6.93794
201 1 4.76401 1.83515 3.12423
202 1 8.87497 8.03708 2.94536
203 1 5.61763 8.71048 8.79192
204 1 4.04385 0.87888 9.07658
205 1 6.10562 8.39065 6.68647
206 1 0.896421 0.751695 4.66891
207 1 6.66993 2.55074 0.782138
208 1 8.86008 5.0711 4.76798
209 1 6.61303 9.29005 7.11039
210 1 0.948922 1.5983 9.30805
211 1 8.51469 0.31756 0.804739
212 1 7.28068 7.471 0.41658
213 1 1.64469 2.44126 3.68013
214 1 8.73861 2.20385 8.37373
215 1 3.29629 5.0934 2.8913
216 1 6.43053 7.54691 5.41006
217 1 3.7041 0.939053 5.2317
218 1 2.8668 2.30097 1.97986
219 1 5.59357 4.24216 1.91974
220 1 9.37777 2.95514 7.92478
221 1 7.5547 8.96842 6.55103
222 1 5.65413 5.63485 3.12017
223 1 0.55605 0.50201 8.05504
224 1 6.07889 6.28122 5.21216
225 1 7.82349 6.17232 5.94725
226 1 1.26221 7.64999 3.35642
227 1 5.33242 7.59417 3.70802
228 1 8.2891 0.652303 9.06321
229 1 2.73445 1.81285 1.05545
230 1 3.59065 5.25417 6.95701
231 1 5.84772 5.55095 6.80023
232 1 5.93088 3.05747 2.55561
233 1 8.5668 9.08726 3.01131
234 1 6.56736 8.98382 9.22203
235 1 8.00872 7.96961 6.27842
236 1 0.869371 5.4075 7.17065
237 1 6.03925 1.30702 1.85105
238 1 7.24347 7.16526 7.89997
239 1 3.6855 9.09733 6.44924
240 1 4.61407 2.93484 5.38355
241 1 4.02186 3.92828 3.19243
242 1 6.42333 3.31736 1.51423
243 1 1.21878 7.22799 0.520608
244 1 5.55797 7.14482 6.68829
245 1 6.48114 3.1937 3.49309
246 1 6.99823 8.56655 3.66561
247 1 4.35184 2.70265 4.25766
248 1 5.17371 8.93155 5.82699
249 1 3.64788 4.67959 6.06797
250 1 5.03438 6.62786 3.23192
251 1 7.7555 2.16362 7.59756
252 1 1.79946 3.78326 5.13822
253 1 8.9831 5.39011 2.81884
254 1 5.24955 0.326204 0.759347
255 1 5.69114 4.57656 2.97462
256 1 8.61843 3.00572 0.913193
257 1 5.79249 0.55013 4.29634
258 1 2.37642 8.2613 1.89929
259 1 3.73583 6.33453 6.88883
260 1 2.77157 3.91657 1.52958
261 1 9.16163 7.34541 8.46285
262 1 1.63197 1.68424 0.651294
263 1 6.62125 5.20246 3.22913
264 1 6.58486 7.36392 6.92326
265 1 5.39565 4.48268 4.79063
266 1 6.64424 6.12277 2.83573
267 1 5.71806 2.0932 1.23513
268 1 4.54349 9.03775 6.97422
269 1 2.07464 5.90827 0.350364
270 1 0.982956 8.75609 2.86423
271 1 5.29443 7.09015 1.09787
272 1 9.35421 6.30842 2.97415
273 1 5.17426 4.0581 3.74283
274 1 4.37857 7.30805 6.7808
275 1 4.36623 6.57086 0.938681
276 1 9.17425 7.78355 1.77513
277 1 5.61896 0.15869 3.36347
278 1 1.27498 4.55649 4.5368
279 1 9.14522 5.90045 1.93166
280 1 3.89224 0.832149 3.13646
281 1 7.70824 7.48785 2.66321
282 1 9.03437 4.64871 2.03329
283 1 8.22921 8.42783 2.17384
284 1 7.93462 8.28607 3.35668
285 1 7.76493 9.28159 3.61013
286 1 1.66307 0.929931 8.47831
287 1 2.95763 9.01868 7.48039
288 1 3.3257 7.30068 6.60699
289 1 7.71377 1.71033 4.05711
290 1 2.94133 6.90603 7.5051
291 1 5.97916 3.47044 8.59841
292 1 1.46318 7.04688 6.38343
293 1 0.479296 2.21048 2.54936
294 1 9.33497 5.89156 7.09625
295 1 8.56123 5.45709 6.48722
296 1 7.43032 8.43906 9.266
297 1 5.27469 5.58947 4.65781
298 1 2.83304 5.32348 4.32607
299 1 5.64408 8.98765 4.80696
300 1 8.78459 4.26425 0.551474
301 1 2.82096 8.97463 4.7248
302 1 8.161 0.257146 5.16028
303 1 1.18371 1.29793 2.53569
304 1 7.27247 6.07682 4.59809
305 1 0.893318 9.34671 0.626751
306 1 2.78824 9.34898 2.03025
307 1 5.43714 1.05912 2.75174
308 1 9.32243 0.038419 7.00501
309 1 0.027159 6.05822 6.10026
310 1 6.53388 4.19251 4.68242
311 1 8.39314 7.90527 8.8518
312 1 3.55886 5.80771 1.06275
313 1 7.38844 3.43246 1.19144
314 1 8.58797 4.33829 3.91818
315 1 4.40191 5.45118 6.3198
316 1 1.77548 3.83114 6.27476
317 1 8.52248 1.2839 0.513792
318 1 0.184953 4.40641 4.60877
319 1 2.63433 0.130978 0.300943
320 1 3.46028 5.77407 4.98663
321 1 1.04093 4.28432 1.62913
322 1 2.08381 6.1587 4.28
323 1 1.50091 5.05556 2.8063
324 1 1.87089 4.67527 7.03869
325 1 6.09139 8.37948 1.83695
326 1 5.93555 1.94482 6.77021
327 1 4.97003 1.3525 9.16083
328 1 8.17101 7.59814 1.42395
329 1 9.31816 9.0618 0.520519
330 1 3.72763 4.35704 1.34086
331 1 3.89423 0.585019 4.18016
332 1 4.94963 0.899076 3.64051
333 1 0.836019 4.23136 2.70369
334 1 0.851131 7.91963 6.13555
335 1 2.42471 3.19034 2.19767
336 1 7.33063 7.11637 6.08504
337 1 8.07471 2.50582 6.61753
338 1 8.86688 2.28609 7.33004
339 1 0.857439 3.14819 6.73443
340 1 5.31826 9.02589 2.2276
341 1 6.39454 3.36396 6.44905
342 1 6.11428 4.30354 0.936166
343 1 7.29274 5.91709 3.61067
344 1 1.07105 1.53238 5.57363
345 1 8.67587 6.00149 7.89172
346 1 9.25285 0.119942 8.86473
347 1 6.12282 5.76416 8.3649
348 1 7.1645 1.93296 6.74128
349 1 2.75829 4.5652 9.16947
350 1 3.34962 3.24387 6.63481
351 1 5.957 8.63773 3.86716
352 1 6.21083 7.25198 7.98534
353 1 0.150741 3.83867 6.28777
354 1 0.276513 7.07895 6.05718
355 1 0.841739 6.82861 2.72943
356 1 5.01574 2.15015 7.34719
357 1 8.50733 3.9229 1.42963
358 1 4.86382 7.30772 5.11618
359 1 4.2533 6.64834 7.66047
360 1 3.66608 2.41793 0.955729
361 1 6.63527 1.54257 5.88943
362 1 1.85304 9.0841 2.34149
363 1 8.80508 2.48175 2.52281
364 1 2.13717 1.16017 7.63963
365 1 2.49481 3.86544 0.527083
366 1 5.10262 8.68629 0.239378
367 1 1.8049 3.04522 0.392036
368 1 2.36277 2.18828 4.54879
369 1 8.47373 7.16849 0.238844
370 1 0.85672 7.2341 8.14216
371 1 3.31976 2.563 4.54859
372 1 5.8342 0.242806 8.57246
373 1 6.43525 3.92177 2.64177
374 1 8.80537 0.0767362 6.10486
375 1 2.7288 6.2394 1.63616
376 1 4.65249 2.0666 1.41952
377 1 1.87588 6.48673 7.25944
378 1 3.64881 6.75059 1.62062
379 1 7.5451 4.84699 7.91872
380 1 7.48612 2.99799 5.91496
381 1 5.21087 2.95922 3.67606
382 1 5.42821 7.82789 5.85912
383 1 8.577 8.19309 7.7617
384 1 2.84164 0.799654 1.38678
385 1 4.74211 7.19825 8.63098
386 1 8.36924 4.47073 2.89947
387 1 0.469991 8.5686 1.24376
388 1 4.79833 7.7167 0.352135
389 1 6.37127 3.22493 5.32057
390 1 3.2136 6.234 4.09934
391 1 0.0749161 8.87702 2.30425
392 1 4.52327 3.75766 1.84628
393 1 6.88343 6.52263 0.896571
394 1 8.11063 4.90331 5.43668
395 1 9.35009 1.97603 9.37268
396 1 3.46573 3.45063 0.863811
397 1 5.65421 3.87433 7.14059
398 1 7.85058 4.49628 0.904489
399 1 7.93078 9.21095 1.62771
400 1 1.55523 4.20048 3.4094
401 1 6.44219 4.29882 9.18763
402 1 1.72547 2.46556 1.40002
403 1 3.27845 5.1485 1.82892
404 1 2.71297 7.28931 1.58832
405 1 3.36933 5.75106 6.09723
406 1 4.20621 8.43234 0.865236
407 1 6.71832 8.29034 0.680808
408 1 2.66621 2.83903 1.12467
409 1 4.2479 1.61818 4.00174
410 1 8.27539 1.2876 8.30123
411 1 6.26816 9.03294 2.70483
412 1 3.11273 6.70194 5.57571
413 1 1.04494 0.939205 1.30126
414 1 5.9973 1.34188 8.73855
415 1 7.4569 9.37795 8.77719
416 1 8.35413 8.94451 0.040897
417 1 7.41381 2.71779 3.40043
418 1 3.09204 1.37269 3.39174
419 1 7.38955 2.23504 2.45371
420 1 2.72771 3.95026 6.02963
421 1 6.94065 8.16137 6.20706
422 1 7.23405 3.709 4.00391
423 1 8.62116 2.34833 5.65477
424 1 4.34307 6.46802 2.34457
425 1 0.963949 0.315709 6.94689
426 1 2.52119 1.5195 8.60538
427 1 7.01658 4.74232 5.41963
428 1 3.73752 8.15949 7.04656
429 1 5.98567 0.0525144 6.26972
430 1 7.73189 4.38956 4.64171
431 1 0.309592 3.16679 2.77196
432 1 1.51809 7.89757 2.26762
433 1 1.80994 8.75847 4.85212
434 1 6.96692 4.93821 0.327518
435 1 7.8213 6.34619 8.37224
436 1 8.6781 6.80542 5.91734
437 1 5.04001 3.64353 2.75114
438 1 2.60254 5.74236 3.36278
439 1 5.1328 8.54782 3.13925
440 1 4.94628 5.59675 0.701137
441 1 7.40113 0.97815 0.66574
442 1 6.448 4.21951 3.62379
443 1 2.63992 3.79983 3.22851
444 1 9.0259 5.98792 4.45806
445 1 7.59552 5.17142 6.25468
446 1 8.67385 3.26139 6.08459
447 1 0.0785631 5.9303 0.796542
448 1 2.1805 8.46777 0.290693
449 1 4.08062 6.65832 5.99555
450 1 3.15506 8.2377 6.1177
451 1 4.71417 3.80405 6.65795
452 1 4.54813 6.14616 8.56618
453 1 2.13327 1.70655 6.63722
454 1 2.03326 6.71763 0.996611
455 1 0.882962 4.4371 5.55958
456 1 0.646638 5.20339 2.11579
457 1 7.62003 6.45162 0.0691811
458 1 2.18597 8.02941 4.08167
459 1 8.42663 4.34874 6.54891
460 1 6.98232 5.08321 4.27724
461 1 8.41903 4.9674 7.38631
462 1 3.9051 9.29884 8.79877
463 1 3.13798 0.631691 8.92288
464 1 8.28681 3.48334 4.40669
465 1 0.98102 6.22139 7.81769
466 1 3.7369 2.35792 7.74675
467 1 5.78734 2.14922 3.2562
468 1 8.87459 8.57139 3.91361
469 1 7.35123 0.893945 5.32982
470 1 7.24784 2.96742 8.0347
471 1 4.13212 1.8374 5.15822
472 1 1.0838 5.14502 1.09615
473 1 1.17901 2.22041 6.25355
474 1 8.80154 8.11457 0.433077
475 1 0.806913 0.574998 9.08537
476 1 8.89225 0.618522 7.89693
477 1 9.40553 1.38049 2.88013
478 1 5.10273 8.09724 6.88724
479 1 0.852135 4.38209 0.490358
480 1 3.70518 1.84931 2.58318
481 1 3.48665 2.33487 3.52582
482 1 6.82262 3.04513 8.98525
483 1 3.84926 7.64659 5.54086
484 1 4.6446 9.34773 4.65655
485 1 5.09371 6.06181 1.61213
486 1 6.22246 7.01883 0.236587
487 1 6.46745 7.15484 2.47423
488 1 7.61181 7.25364 8.82565
489 1 0.358345 1.97279 8.05706
490 1 2.77355 7.12544 4.44198
491 1 7.20703 7.90454 1.74289
492 1 6.06109 1.42244 7.74796
493 1 7.74601 1.51641 9.23014
494 1 6.14471 2.25836 5.17357
495 1 7.38532 0.803593 3.39264
496 1 2.46206 3.60479 8.85268
497 1 2.37508 0.209899 8.25586
498 1 6.97347 8.84982 1.52711
499 1 3.66861 7.30136 2.49861
500 1 4.13874 3.84912 7.95411
501 1 6.18391 8.56818 5.57129
502 1 0.657692 5.41517 4.29846
503 1 4.27286 7.70152 1.52286
504 1 5.33226 2.98721 1.74724
505 1 8.04903 5.38322 4.2564
506 1 1.13977 8.84789 5.78059
507 1 6.8115 1.95089 9.20437
508 1 6.57242 1.65871 2.65176
509 1 0.627698 7.48295 7.1
510 1 0.0488685 7.21929 3.384
511 1 6.77669 7.00528 4.60924
512 1 3.83692 5.32245 3.79371
513 1 1.91282 7.63368 5.01267
514 1 7.44381 7.76453 4.03258
515 1 5.74228 6.81164 4.38301
516 1 4.09201 8.30345 3.28844
517 1 8.37087 3.12799 8.18752
518 1 5.75821 1.99815 0.0713558
519 1 1.78596 3.54372 4.11813
520 1 4.53128 3.63721 8.85871
521 1 7.3389 8.87173 5.55599
522 1 3.45058 5.93333 7.83621
523 1 3.91594 3.49923 4.87379
524 1 1.17853 1.35306 7.59548
525 1 5.39004 1.98286 2.24647
526 1 2.96515 5.19721 8.40605
527 1 3.88589 7.82252 4.4642
528 1 6.38818 4.99487 6.18973
529 1 4.00106 3.67018 5.92976
530 1 7.47997 9.33677 0.507014
531 1 8.3803 5.10102 8.42439
532 1 3.63736 0.687674 2.07002
533 1 8.6405 6.55052 8.83805
534 1 0.251002 7.64556 0.750853
535 1 7.97603 0.777271 4.27137
536 1 2.64995 2.35972 2.98851
537 1 1.67406 2.93665 8.76119
538 1 3.73886 8.64685 5.38464
539 1 4.66832 4.83768 5.654
540 1 2.11446 3.34858 7.94891
541 1 1.82613 3.48877 1.41731
542 1 0.552631 4.46487 8.91291
543 1 1.91704 9.04072 7.23024
544 1 1.87097 0.94392 5.12463
545 1 7.17379 5.41431 2.12903
546 1 2.63271 5.70669 7.22222
547 1 1.01835 8.70105 6.78753
548 1 7.48326 7.90532 5.27374
549 1 1.90858 0.650525 6.6002
550 1 8.33779 5.98739 3.5428
551 1 2.10929 4.38602 8.17921
552 1 7.52618 4.14472 2.5717
553 1 4.51535 1.20413 5.93774
554 1 3.47635 1.45495 6.2237
555 1 3.50588 3.08519 1.83709
556 1 3.10224 3.64472 8.02137
557 1 1.46806 3.70924 7.29452
558 1 6.63672 2.49664 6.10041
559 1 4.17345 5.61115 2.84953
560 1 2.67739 3.00425 3.80294
561 1 1.95651 5.30321 4.86988
562 1 8.43226 6.40425 6.91881
563 1 1.6452 6.91556 1.98809
564 1 6.70501 8.37438 4.66943
565 1 9.2426 1.62522 5.32114
566 1 1.9108 5.63477 1.36451
567 1 7.4942 6.76244 6.98928
568 1 2.56328 8.92815 1.11591
569 1 0.109766 2.62026 1.51199
570 1 1.36243 5.93145 2.29473
571 1 8.90689 4.4205 8.92462
572 1 4.28124 4.27794 4.20232
573 1 0.127114 3.69965 1.87384
574 1 1.91622 0.267055 4.39216
575 1 5.47095 4.0084 0.0445093
576 1 6.69012 3.87465 7.32941
577 1 7.13647 0.566367 1.60269
578 1 5.22606 4.09283 8.21655
579 1 9.2336 2.41491 3.45895
580 1 2.0169 1.95125 5.62286
581 1 8.55977 0.996207 5.78041
582 1 4.20485 0.0487025 0.460034
583 1 2.86462 1.31254 2.41005
584 1 2.23714 2.21651 9.37213
585 1 0.188463 6.48704 5.17091
586 1 5.14692 0.909976 8.23462
587 1 2.06077 0.694555 2.5122
588 1 9.34712 1.16176 8.68914
589 1 0.698855 2.61269 4.13147
590 1 1.86463 4.72648 5.78418
591 1 1.9901 0.104888 3.36751
592 1 7.90532 5.35309 2.79013
593 1 0.694007 5.40216 8.36158
594 1 5.96575 3.48451 4.35994
595 1 4.25043 5.47799 1.78567
596 1 1.07853 1.3 6.59142
597 1 0.010926 8.34397 7.1665
598 1 9.24487 4.71492 5.86298
599 1 1.11706 0.347131 2.98318
600 1 6.85852 0.865679 4.34369
601 1 0.255265 6.86057 1.90574
602 1 5.64125 5.01447 7.6766
603 1 5.16201 1.16871 7.17532
604 1 6.80073 0.55362 8.11214
605 1 3.37085 6.11792 8.84792
606 1 0.13984 7.39936 4.40143
607 1 1.77912 9.32506 9.13504
608 1 1.11581 8.21807 0.523126
609 1 3.50326 1.53114 8.36776
610 1 5.00516 0.385955 6.46498
611 1 0.149944 4.55007 1.1486
612 1 2.05522 7.43304 7.91691
613 1 6.16661 0.0492059 1.74852
614 1 0.77394 8.97477 9.04899
615 1 7.6193 5.58539 0.859312
616 1 8.05538 5.82202 1.74566
617 1 4.48593 2.66313 2.29352
618 1 7.88947 6.72451 4.16587
619 1 3.54548 3.91666 9.02611
620 1 8.70814 6.8904 4.84723
621 1 4.93451 9.27916 8.09755
622 1 7.86303 2.55981 4.89954
623 1 6.17065 1.17987 5.05281
624 1 6.37293 6.23747 1.76515
625 1 1.54747 5.29896 3.81791
626 1 8.5974 3.53221 2.42787
627 1 0.295788 0.139538 5.38316
628 1 1.04455 3.63101 8.34246
629 1 8.55352 5.96241 0.311073
630 1 3.06483 0.778563 7.76882
631 1 4.24652 7.36629 3.64899
632 1 8.9417 7.82743 5.94987
633 1 8.98255 8.97773 4.82287
634 1 6.5228 0.32126 0.674974
635 1 4.25054 1.6069 0.521665
636 1 9.24445 4.00613 3.17328
637 1 5.79134 4.93087 3.92983
638 1 2.40342 5.78665 5.69843
639 1 1.14367 2.63049 7.72414
640 1 5.61785 6.65143 8.62138
641 1 1.78193 7.99377 6.70975
642 1 0.902193 3.38258 0.955585
643 1 1.95977 1.55956 3.12842
644 1 0.897469 7.59007 1.49532
645 1 4.13988 3.03007 0.155675
646 1 4.77265 6.27438 6.7837
647 1 4.09499 0.669517 8.01041
648 1 6.97554 5.76891 5.49048
649 1 0.978596 7.19402 5.2778
650 1 6.10106 5.19128 5.11767
651 1 5.13385 5.14779 2.30945
652 1 7.89979 8.56604 4.41558
653 1 8.39647 9.00985 8.42213
654 1 4.67015 0.294203 2.62265
655 1 6.44223 7.31884 1.37346
656 1 3.40107 1.92304 9.33342
657 1 5.7691 8.71252 7.61596
658 1 1.07569 6.23475 5.85264
659 1 7.78483 3.91389 7.4537
660 1 3.82803 4.8482 7.92078
661 1 1.8928 0.33885 1.54202
662 1 4.39579 8.45217 8.63738
663 1 1.51469 8.23172 8.74326
664 1 8.19645 1.54859 4.91623
665 1 3.58898 7.86112 9.07357
666 1 9.05135 2.44362 4.71802
667 1 8.44617 0.91647 3.32506
668 1 5.26588 5.68329 9.06556
669 1 8.55347 6.86843 2.00278
670 1 5.38855 2.62032 4.66806
671 1 1.54664 6.28959 3.30907
672 1 7.23972 4.08315 6.52366
673 1 4.17631 1.7712 6.9437
674 1 1.62659 4.10155 9.13998
675 1 2.55024 7.49017 0.409213
676 1 7.74108 5.69065 7.16218
677 1 6.88716 5.97161 6.65948
678 1 9.30813 3.45135 4.15635
679 1 2.84255 2.76479 7.41752
680 1 0.275081 6.47048 8.60068
681 1 4.49439 9.27168 3.52352
682 1 6.2944 5.90961 4.21027
683 1 7.04176 1.63199 1.64562
684 1 5.62855 0.266633 7.39547
685 1 5.26484 7.04279 7.62296
686 1 0.496271 8.15579 8.11261
687 1 4.71197 4.60771 7.3768
688 1 9.37758 4.8437 6.9187
689 1 0.316426 8.04307 5.20505
690 1 0.886125 0.111078 1.90065
691 1 2.94998 8.94059 8.84126
692 1 7.84775 8.35581 0.850661
693 1 3.61952 4.52815 4.88739
694 1 3.25679 4.00051 2.39125
695 1 0.456017 2.08143 7.06565
696 1 6.62005 5.49165 1.12269
697 1 6.99638 3.93565 8.31407
698 1 8.90428 1.80084 6.48112
699 1 0.737262 6.47121 6.85424
700 1 0.87113 1.91187 1.69547
701 1 8.18002 0.337335 6.8988
702 1 8.31263 8.60272 5.58213
703 1 1.41292 8.75775 3.88422
704 1 4.81086 5.68431 3.78946
705 1 4.44192 1.62035 7.92258
706 1 0.11055 2.67949 6.20828
707 1 0.922866 3.16735 5.73742
708 1 3.07588 7.68815 3.51451
709 1 4.76379 4.70379 1.31798
710 1 4.32411 2.87786 7.09585
711 1 3.02066 2.96115 0.0927929
712 1 1.09736 7.92159 4.43269
713 1 4.50983 5.93936 5.42507
714 1 5.27293 1.7272 5.22027
715 1 6.04171 6.69955 3.37081
716 1 2.82245 2.37674 6.3008
717 1 2.89463 4.62626 7.56229
718 1 9.37386 0.693626 0.345988
719 1 0.186332 0.89549 6.16023
720 1 6.72757 5.89548 0.13673
721 1 3.3486 6.00536 2.37944
722 1 5.04805 6.64452 0.0977284
723 1 6.30926 2.3325 8.33724
724 1 3.2348 4.37543 3.84843
725 1 9.19679 5.16108 3.79261
726 1 1.16903 0.519918 5.90437
727 1 7.48233 3.89464 0.09261
728 1 9.32047 3.32396 5.19908
729 1 8.25734 1.8998 3.20514
730 1 8.01957 4.91161 9.37887
731 1 2.02644 5.17871 8.80698
732 1 5.61723 6.5318 2.42016
733 1 1.76181 3.27744 3.04314
734 1 1.01848 3.12479 1.9832
735 1 7.74023 8.78483 7.59531
736 1 3.44943 0.0325199 1.16077
737 1 2.36926 4.74889 3.33033
738 1 2.53513 1.2607 0.14961
739 1 3.09973 1.92828 5.33016
740 1 1.57355 6.96241 4.29758
741 1 7.03878 1.77588 4.86711
742 1 0.850815 3.59399 4.81649
743 1 7.03709 0.294533 6.11976
744 1 4.30297 2.92225 3.27262
745 1 3.72375 4.12034 7.04658
746 1 5.57239 1.66569 4.15951
747 1 1.63644 0.677934 0.37946
748 1 3.65122 7.01277 8.35068
749 1 6.81417 0.768654 9.17202
750 1 8.68403 0.371941 2.12035
751 1 4.38138 8.33597 6.18403
752 1 6.38161 1.43808 0.707106
753 1 4.6158 2.8153 8.16873
754 1 2.75981 2.62011 8.46804
755 1 3.9032 6.82282 4.78089
756 1 5.71727 4.8369 8.7514
757 1 8.84916 7.48377 6.90807
758 1 4.77715 1.02489 4.72099
759 1 6.84523 2.73597 4.42056
760 1 4.37243 3.9561 0.597446
761 1 1.83414 7.78449 1.12884
762 1 7.50435 8.11684 8.3175
763 1 5.90745 5.18951 0.338235
764 1 1.39803 1.92839 8.43876
765 1 2.25825 8.4807 8.10366
766 1 7.538 2.88538 0.290484
767 1 6.10743 4.07464 5.82885
768 1 4.95347 3.51169 4.61099
769 1 8.71285 5.81714 5.43393
770 1 8.6918 5.16156 1.13733
771 1 0.115666 0.941536 1.97869
772 1 0.611469 2.40488 5.19453
773 1 4.74234 8.44559 4.08428
774 1 6.88284 4.99974 7.06998
775 1 4.12675 4.64729 2.41648
776 1 4.88817 2.35686 0.447222
777 1 5.66586 7.91088 4.71259
778 1 8.42702 2.24656 0.0513776
779 1 5.55765 2.91368 5.80253
780 1 9.41941 5.04695 0.230329
781 1 1.98562 4.61622 1.46147
782 1 8.9901 6.79949 1.12673
783 1 7.90468 3.90998 5.67299
784 1 1.39928 0.975683 3.7386
785 1 8.48651 6.89659 3.03914
786 1 0.911494 3.45603 9.36454
787 1 1.4767 8.71358 1.36153
788 1 8.51882 1.35654 2.25981
789 1 6.70632 8.03508 7.67352
790 1 9.38523 3.54677 8.77539
791 1 5.76218 0.785767 0.0866749
792 1 0.867896 5.26566 6.17046
793 1 4.93321 0.178226 9.09718
794 1 0.854169 6.13669 1.48077
795 1 3.86778 2.46409 6.08048
796 1 4.67113 4.74851 3.28856
797 1 0.837548 1.82185 3.49333
798 1 1.91569 2.82272 6.86238
799 1 3.6491 1.53699 1.47078
800 1 0.100561 0.193525 1.29161
801 2 7.88034 3.00178 2.62752
802 2 8.83878 6.69135 3.90636
803 2 1.67296 9.22957 6.33961
804 2 2.65709 5.75162 0.897774
805 2 7.09994 9.32023 2.99847
806 2 7.22989 6.05256 1.48507
807 2 4.84389 7.00923 1.81836
808 2 1.4302 7.18313 7.31449
809 2 6.0873 2.73105 9.21768
810 2 3.52253 8.45503 8.48303
811 2 4.64749 7.35951 5.91975
812 2 0.293562 5.45807 1.3815
813 2 8.85085 3.09616 3.0944
814 2 0.81395 1.30751 8.37842
815 2 7.03933 2.56562 5.31069
816 2 0.0606093 3.50764 1.02174
817 2 4.96503 4.87549 4.12633
818 2 2.49939 3.21025 6.42687
819 2 5.81511 2.09453 5.90226
820 2 8.54035 9.28411 7.59657
821 2 8.82897 0.889661 6.5921
822 2 8.99373 2.74807 9.01044
823 2 3.63289 0.247969 7.43581
824 2 7.01247 8.4235 6.99296
825 2 7.76307 4.74133 6.96255
826 2 1.70499 6.64219 8.03959
827 2 6.92137 7.79482 3.11497
828 2 0.470598 0.0492509 6.26437
829 2 9.28603 7.31434 5.32717
830 2 4.82194 3.58732 7.50603
831 2 7.02117 4.19441 0.809519
832 2 6.6502 8.9743 6.26561
833 2 1.39808 2.30665 9.2951
834 2 3.6227 9.33113 3.47706
835 2 1.42787 2.02917 7.03336
836 2 6.94063 2.22268 7.70611
837 2 0.488974 5.93904 9.32517
838 2 8.33954 3.28728 5.26438
839 2 5.86582 7.85327 7.36792
840 2 5.73104 7.03614 5.33543
841 2 7.21781 4.68441 8.77937
842 2 4.92089 3.34005 0.255331
843 2 0.769816 8.81583 7.53084
844 2 2.33477 0.625579 8.95921
845 2 3.50119 7.61847 1.67625
846 2 1.47609 0.481234 7.63884
847 2 6.87666 6.67361 5.38871
848 2 6.43736 5.1864 9.07894
849 2 2.18611 1.04617 0.924566
850 2 9.10634 7.55 9.27839
851 2 3.85996 5.49262 8.42379
852 2 1.60993 3.94978 0.725605
853 2 5.47952 3.59035 6.32692
854 2 7.83524 1.79092 1.87823
855 2 4.75991 7.53178 4.34709
856 2 5.88766 0.720545 1.16065
857 2 0.246866 0.208147 4.5299
858 2 3.62433 1.30497 7.36752
859 2 4.0386 8.63662 9.38562
860 2 1.40617 0.164393 5.10297
861 2 3.65751 7.2984 7.45334
862 2 3.31585 4.45479 8.4675
863 2 6.9447 3.71709 5.77046
864 2 8.03133 2.96162 7.36917
865 2 3.90806 5.25253 5.44067
866 2 9.31384 8.82479 3.2521
867 2 5.98185 6.20094 9.33786
868 2 9.20082 7.2276 2.55239
869 2 0.103576 7.85362 6.50009
870 2 5.5598 6.19178 3.86375
871 2 2.53144 1.44327 4.95197
872 2 2.29666 2.99807 4.75691
873 2 5.70043 3.76237 5.13989
874 2 6.0585 8.32965 0.0974558
875 2 4.93314 5.99521 2.65754
876 2 5.80742 2.16798 7.6149
877 2 1.7243 6.71793 0.146778
878 2 6.32979 5.53388 7.59317
879 2 1.53053 5.55049 5.57659
880 2 3.77553 2.68016 5.22754
881 2 3.06531 8.14549 4.2626
882 2 2.69467 6.1697 4.93348
883 2 7.98663 3.45314 6.51174
884 2 7.51659 0.874113 8.59686
885 2 4.70332 1.98814 4.59574
886 2 2.40892 0.865189 3.31708
887 2 8.22921 7.41777 5.53078
888 2 9.10818 4.06313 6.94427
889 2 2.62279 4.59522 2.08802
890 2 5.1553 6.40096 4.97536
891 2 2.24058 8.9643 4.04921
892 2 5.65725 6.29404 6.55086
893 2 3.67595 3.29261 7.43388
894 2 5.75628 9.28523 0.0237911
895 2 7.81071 5.59247 7.97531
896 2 0.365443 6.89043 1.01465
897 2 2.59888 8.06283 1.11496
898 2 2.48315 5.8617 9.00148
899 2 9.27704 1.94345 1.96396
900 2 0.247613 1.74718 6.13354
901 2 7.44266 1.61704 3.23724
902 2 4.17366 3.3683 2.58099
903 2 0.344565 0.987109 5.28658
904 2 0.127757 3.99789 0.214908
905 2 1.22548 0.183912 3.86717
906 2 8.03667 3.46988 0.599044
907 2 7.84326 3.76784 1.88782
908 2 5.73643 5.70853 2.16807
909 2 5.42763 8.99607 6.79963
910 2 2.40371 0.353291 7.36218
911 2 7.99867 7.44784 4.69662
912 2 5.20006 2.74101 2.80101
913 2 3.53476 7.13545 4.08435
914 2 0.111639 5.96175 7.93567
915 2 5.14163 1.42836 1.65444
916 2 1.76601 1.44643 9.16544
917 2 9.01333 1.55361 7.81697
918 2 8.82795 3.14494 1.68889
919 2 5.25594 9.30243 4.02931
920 2 6.36424 4.28653 6.70654
921 2 1.69951 7.18251 2.82822
922 2 7.27354 0.37759 6.92877
923 2 6.47924 2.50792 2.94166
924 2 2.9435 1.9852 7.94376
925 2 7.91414 7.44592 3.45226
926 2 3.5006 2.39216 6.92548
927 2 4.70667 0.371203 7.38949
928 2 1.58249 5.13383 1.94289
929 2 1.24552 4.80779 8.66226
930 2 0.820578 0.984837 0.490305
931 2 4.70754 8.48711 7.69084
932 2 6.05924 2.54795 4.0611
933 2 9.12441 2.32126 0.703155
934 2 5.33546 4.58256 0.70528
935 2 4.35581 4.65323 6.57838
936 2 0.931962 2.67013 3.2204
937 2 1.68999 7.77901 0.0374182
938 2 3.75461 0.0174728 4.97548
939 2 0.868222 8.59165 1.9978
940 2 2.31644 7.26462 7.00997
941 2 9.31444 7.66164 7.64885
942 2 3.44349 0.052835 0.112898
943 2 3.37755 3.87147 5.35919
944 2 0.515653 6.05047 2.33802
945 2 8.37134 5.15159 3.50384
946 2 7.64309 3.23772 8.83573
947 2 2.85622 8.79282 5.56026
948 2 7.0804 2.64413 1.64813
949 2 4.57663 0.865412 0.395807
950 2 0.0788205 2.95885 7.02839
951 2 3.2217 0.0283487 8.19375
952 2 6.53442 3.30148 7.93878
953 2 4.41064 4.2474 5.07603
954 2 1.21509 8.05773 5.36602
955 2 7.92058 0.246259 6.08664
956 2 7.22423 3.58319 3.18481
957 2 6.30465 5.89845 6.04329
958 2 0.124348 8.31348 4.41602
959 2 6.36112 0.718245 5.83822
960 2 3.48523 5.88956 3.24611
961 2 9.24698 6.71916 6.68329
962 2 5.36871 9.09868 1.40008
963 2 1.92369 6.42443 6.06351
964 2 3.06395 6.82249 2.25242
965 2 2.78095 7.03089 8.34358
966 2 8.56163 6.09843 2.60166
967 2 7.60455 3.01707 4.19033
968 2 0.216867 4.81823 2.8301
969 2 7.25932 4.9549 1.34622
970 2 5.71658 3.50777 3.29246
971 2 1.93226 0.0342722 0.768982
972 2 5.02489 5.37583 6.97947
973 2 3.24277 7.10091 9.37
974 2 4.45361 3.58369 3.81293
975 2 0.901431 6.81536 9.10298
976 2 8.12405 7.07856 6.50042
977 2 5.35634 8.14447 2.4211
978 2 3.87163 0.69619 6.14884
979 2 5.49365 4.86211 5.57062
980 2 0.283109 4.08844 8.18171
981 2 0.307634 8.35493 0.286779
982 2 8.1283 5.7181 8.98175
983 2 8.90123 0.969348 1.2551
984 2 4.32526 4.40799 8.5867
985 2 8.24336 9.34658 4.33054
986 2 8.61388 1.53927 9.05174
987 2 5.86363 0.374263 2.47574
988 2 6.17465 7.68556 6.19438
989 2 6.43371 9.18951 4.43215
990 2 2.65573 1.99519 3.81422
991 2 7.97568 7.90091 0.174573
992 2 5.63639 7.26395 2.85534
993 2 7.98013 5.94706 4.99599
994 2 6.09216 4.09153 8.00773
995 2 4.09082 5.95552 4.35143
996 2 1.72237 1.2204 5.95283
997 2 6.14597 8.07015 8.32601