#bin. KALJ data file T=0.5

1000 atoms
2 atom types

0 9.4 xlo xhi
0 9.4 ylo yhi
0 9.4 zlo zhi

Masses

1 1.0
2 1.0

Atoms

1 1 3.51135 6.05377 2.48957
2 1 3.50439 4.59933 3.85232
3 1 3.33755 2.9472 3.95184
4 1 2.9506 4.05787 8.64033
5 1 2.12173 9.38291 3.05032
6 1 3.31041 6.87695 5.10323
7 1 6.48208 5.39535 7.00447
8 1 8.62918 1.4451 7.47656
9 1 0.918276 6.68714 6.437
10 1 0.264328 5.61038 0.444193
11 1 1.85971 8.97061 4.96079
12 1 8.6246 1.73712 8.50563
13 1 9.00247 7.61542 7.09902
14 1 2.42704 3.80043 6.97455
15 1 8.87873 8.73609 0.845634
16 1 8.27848 7.01365 8.41636
17 1 6.6286 9.43412 0.545806
18 1 6.30263 7.56781 4.10122
19 1 8.37872 7.09361 1.91786
20 1 6.98605 5.31438 8.64836
21 1 8.70268 3.78327 0.201368
22 1 7.00842 8.33851 0.58328
23 1 6.3197 9.22666 7.88772
24 1 1.80397 5.38754 9.2523
25 1 3.09073 7.46535 1.52742
26 1 5.69617 0.419339 2.81454
27 1 7.08805 3.21224 7.54441
28 1 5.83741 2.99367 2.81873
29 1 8.64316 4.55612 7.29798
30 1 9.16787 1.65452 4.16873
31 1 9.16112 0.75608 2.31899
32 1 5.87163 4.87794 6.31765
33 1 8.45903 7.92929 1.30756
34 1 2.83127 8.34589 0.937201
35 1 4.92793 5.30771 6.06648
36 1 3.62588 8.67163 4.03478
37 1 8.85699 6.17875 8.48387
38 1 0.942759 9.05803 2.55424
39 1 4.94125 7.36201 3.52159
40 1 5.09354 0.106813 8.36088
41 1 2.54202 -0.0636251 5.63517
42 1 1.921 0.454441 4.3588
43 1 4.69547 0.961204 8.08969
44 1 3.80112 2.25434 2.98756
45 1 0.972631 7.43739 8.58298
46 1 0.71459 4.48971 4.94948
47 1 5.96837 8.4744 1.90762
48 1 5.34311 1.01719 5.45127
49 1 1.99654 4.48794 5.24213
50 1 5.37681 1.49652 3.03196
51 1 5.64413 6.24245 1.96324
52 1 4.57679 7.53386 0.538207
53 1 8.22703 0.665682 0.431689
54 1 7.6651 0.555705 6.18556
55 1 0.729525 5.12095 3.01895
56 1 2.19366 7.19147 4.93511
57 1 2.95903 4.84045 5.80839
58 1 4.12997 5.20879 2.73516
59 1 5.25546 6.65812 6.92623
60 1 3.99556 3.69403 4.32589
61 1 4.35674 4.06956 3.44059
62 1 4.17426 7.42014 1.44124
63 1 0.0974062 3.45237 4.85676
64 1 1.87948 8.343 2.76617
65 1 6.55756 0.250524 2.30128
66 1 1.78226 0.705188 8.63623
67 1 0.365263 5.06371 6.62828
68 1 5.4101 7.4437 6.25171
69 1 8.93094 6.7459 3.40959
70 1 8.8491 4.21276 4.40359
71 1 7.19789 8.13234 7.04734
72 1 2.0001 2.68179 0.0654981
73 1 3.60172 5.35422 1.76924
74 1 6.8553 1.01822 3.11894
75 1 6.66395 2.66989 2.09492
76 1 7.21318 5.94116 6.74959
77 1 3.34378 3.39563 5.12203
78 1 4.23832 6.51972 0.888644
79 1 8.19324 8.24597 6.78271
80 1 0.366972 2.03679 0.632264
81 1 3.59313 3.41233 8.07416
82 1 4.44215 9.37058 0.765752
83 1 6.94294 7.41771 5.09927
84 1 1.14029 5.85031 7.13326
85 1 8.18841 3.6495 7.81786
86 1 5.70378 4.87775 7.45138
87 1 0.62556 2.14037 6.18191
88 1 7.73343 1.2148 3.74019
89 1 4.80338 7.13896 2.22675
90 1 5.52403 5.62551 3.63487
91 1 0.895097 6.78644 2.51598
92 1 8.46989 0.926831 1.43031
93 1 3.52259 1.54732 4.91741
94 1 2.62279 5.05024 4.65469
95 1 6.95263 6.63487 4.38944
96 1 5.65335 8.16129 6.9208
97 1 0.11977 2.76897 8.53021
98 1 5.04561 8.74629 1.4313
99 1 6.72905 0.0642283 5.92599
100 1 5.02596 4.8244 8.74593
101 1 6.3185 4.4822 9.01031
102 1 2.23226 3.63225 3.25168
103 1 5.3842 6.56046 3.01108
104 1 6.54481 7.65947 6.39081
105 1 0.311862 6.02895 4.03712
106 1 8.61582 8.55469 5.22334
107 1 5.17714 4.57748 3.92933
108 1 7.61704 0.132012 2.41524
109 1 7.33751 5.62652 7.73419
110 1 8.51649 6.65341 7.47781
111 1 6.01116 8.59469 0.183886
112 1 7.59102 2.1875 0.790067
113 1 4.42009 3.91023 8.55537
114 1 5.72343 4.06125 3.04571
115 1 5.60494 2.07228 2.24036
116 1 5.9346 2.21806 9.33996
117 1 7.75386 9.07756 0.563604
118 1 7.11826 3.40423 1.57387
119 1 4.37079 1.84223 5.47085
120 1 1.74205 8.973 8.45992
121 1 3.99513 2.65933 4.79749
122 1 3.22322 7.93169 4.76258
123 1 4.93036 5.92254 8.77082
124 1 1.24468 9.08198 5.92875
125 1 3.87158 4.28948 6.11504
126 1 6.16734 3.44604 1.35486
127 1 5.67146 8.49724 5.93989
128 1 7.61576 6.44228 5.17347
129 1 9.16293 7.63936 0.597734
130 1 3.5968 3.37809 0.769652
131 1 7.39143 2.15219 3.51391
132 1 6.99019 8.64119 2.34851
133 1 4.96271 2.49281 2.93464
134 1 0.389218 9.21578 9.29833
135 1 8.61313 6.36579 4.36373
136 1 6.6959 2.26735 7.15529
137 1 2.2301 4.69694 6.51732
138 1 5.94488 7.78491 5.09905
139 1 4.96179 2.25687 4.61098
140 1 0.573551 3.69922 9.25362
141 1 2.86888 7.29566 4.0867
142 1 5.78676 0.109829 5.48897
143 1 5.2687 1.59392 0.462221
144 1 4.52498 1.04371 4.70169
145 1 0.914836 2.55112 9.16697
146 1 1.21549 2.48043 2.51028
147 1 7.74981 2.10261 7.53648
148 1 0.649059 6.85747 3.5567
149 1 3.69163 0.767107 2.04038
150 1 0.665695 7.52969 4.44359
151 1 7.50893 7.8492 6.01728
152 1 5.45877 0.30299 4.55307
153 1 1.50976 7.21397 0.227463
154 1 4.26824 5.10393 0.00760217
155 1 0.419494 0.103678 4.22518
156 1 5.78959 1.94101 7.40617
157 1 6.8444 6.38164 0.138428
158 1 2.25831 8.81909 7.44904
159 1 1.92748 6.34278 7.64553
160 1 6.31425 6.43678 6.6948
161 1 2.74142 2.99171 7.55796
162 1 0.463918 3.08114 3.00856
163 1 6.07726 2.05168 6.37916
164 1 2.81596 0.301821 7.31637
165 1 9.22119 5.9685 5.73937
166 1 6.83139 7.08248 7.14797
167 1 3.48101 9.06637 0.363497
168 1 7.43335 5.38375 1.90982
169 1 1.70595 4.74556 0.673429
170 1 6.95318 3.02154 3.07864
171 1 7.49067 8.88263 6.37828
172 1 3.23749 7.43705 8.45813
173 1 2.77801 5.08206 0.9582
174 1 5.54287 3.0952 8.65677
175 1 7.77586 3.85659 0.837958
176 1 2.88605 1.6755 3.10842
177 1 4.5325 5.9819 1.69428
178 1 7.22425 2.03914 2.51026
179 1 6.40259 2.75406 3.98993
180 1 1.72006 1.45431 7.88403
181 1 8.38703 5.00453 1.84622
182 1 2.80956 8.2615 3.52571
183 1 4.55311 4.32231 0.552174
184 1 6.07686 6.97077 7.92054
185 1 1.68132 7.43629 6.06416
186 1 9.34305 2.3928 2.41284
187 1 2.48579 1.68928 4.20275
188 1 1.13302 6.1971 0.221756
189 1 3.98392 5.23918 5.41832
190 1 3.60218 3.50303 1.76991
191 1 4.94303 4.44677 5.51411
192 1 3.72838 0.50837 6.76942
193 1 4.84714 1.79984 1.5199
194 1 1.78734 8.89895 3.85033
195 1 5.58357 8.27003 3.71371
196 1 0.80105 0.593317 2.41772
197 1 5.277 3.05064 1.86472
198 1 6.661 0.746555 8.52004
199 1 3.71745 0.0755417 5.71983
200 1 0.917337 0.240358 8.3184
201 1 4.53615 1.74627 3.6664
202 1 3.38495 5.59352 3.44079
203 1 4.33592 2.47654 6.37173
204 1 4.88954 6.65689 0.112456
205 1 3.90997 1.4851 6.53587
206 1 5.5139 9.24522 6.69507
207 1 6.21108 4.83975 3.44359
208 1 0.747958 5.73921 2.14148
209 1 6.38982 0.459981 6.99706
210 1 1.52358 4.44814 8.93363
211 1 7.24241 0.582993 9.37936
212 1 5.00942 5.74059 2.61007
213 1 2.88812 6.2142 4.29687
214 1 7.76664 2.954 2.3732
215 1 6.7995 6.57131 3.12335
216 1 8.02089 3.09657 6.97136
217 1 2.01195 -0.0393138 6.55892
218 1 2.29142 2.37172 2.04745
219 1 8.06039 4.57197 0.172208
220 1 7.49965 0.179838 8.30518
221 1 5.35383 8.69244 7.70119
222 1 4.6162 5.33988 0.895798
223 1 2.99103 0.556527 0.656395
224 1 6.82765 4.05551 3.48569
225 1 1.582 3.36368 8.77376
226 1 3.14914 2.11301 7.80495
227 1 7.36826 5.40289 5.36657
228 1 6.93902 9.08087 8.97753
229 1 9.07703 2.13352 5.81363
230 1 7.44199 1.19018 0.828412
231 1 8.45049 3.89941 6.44677
232 1 6.69064 4.45623 7.92738
233 1 0.1869 0.168149 3.16021
234 1 5.42143 8.01394 2.6662
235 1 5.69185 8.01906 0.994386
236 1 9.16955 3.55468 3.60226
237 1 8.2574 1.85279 5.24641
238 1 7.59253 0.88873 7.2368
239 1 4.92157 4.48658 6.86585
240 1 1.23545 1.44198 9.22788
241 1 2.86405 5.14092 2.60934
242 1 4.25437 5.5262 8.17212
243 1 4.88799 0.791633 3.75163
244 1 7.38698 4.9765 3.75119
245 1 6.60418 4.51334 1.69913
246 1 8.15425 2.20865 4.2601
247 1 4.81783 2.4008 9.35722
248 1 5.23403 8.66852 4.79321
249 1 6.51601 4.7606 5.45685
250 1 5.13579 4.83489 2.95102
251 1 7.89049 4.81935 4.63481
252 1 0.0464505 6.65572 4.86822
253 1 2.37424 6.67415 1.2382
254 1 5.45975 2.51136 0.868723
255 1 4.9365 3.50012 2.73808
256 1 9.26029 5.44182 1.54571
257 1 8.9562 8.73155 3.55469
258 1 3.35212 6.41595 1.53935
259 1 5.72435 1.93204 5.45714
260 1 4.34916 2.61458 2.12678
261 1 0.870663 8.47354 8.68017
262 1 7.88685 2.3812 8.77878
263 1 6.71855 3.97359 5.98854
264 1 7.44783 0.725271 5.16847
265 1 3.81368 1.82976 1.62222
266 1 0.651848 7.06805 0.833307
267 1 5.70705 5.10076 2.10906
268 1 5.02837 0.822926 1.09446
269 1 3.66876 4.16907 9.41445
270 1 7.60037 7.88167 1.88148
271 1 1.5561 8.20118 0.801603
272 1 1.67471 3.13141 1.6285
273 1 9.00698 4.6356 3.468
274 1 4.41592 2.89847 8.45197
275 1 4.99752 0.535127 9.30688
276 1 9.16499 8.33864 9.0947
277 1 7.2473 4.79587 0.951021
278 1 3.66935 3.15424 6.14633
279 1 0.214095 3.58407 0.890669
280 1 2.84846 1.23557 6.78268
281 1 3.68682 7.15027 2.52995
282 1 1.42051 7.92866 3.73204
283 1 1.90962 6.26011 6.57951
284 1 6.21127 6.85537 5.72064
285 1 1.02354 0.171426 6.85102
286 1 0.999456 2.9985 6.60192
287 1 4.58031 9.25074 6.31327
288 1 0.0174371 6.58134 2.01094
289 1 8.20013 0.98675 2.72849
290 1 4.67369 4.6427 7.80933
291 1 8.65257 3.44787 5.46341
292 1 5.37659 2.77022 6.62254
293 1 7.94109 4.64084 5.78318
294 1 0.413521 2.73413 7.56561
295 1 5.43551 3.67869 7.2732
296 1 8.22706 5.28935 8.6886
297 1 9.32901 4.2401 5.7984
298 1 9.21258 3.32827 6.98952
299 1 3.8767 8.89178 7.09128
300 1 2.57762 1.64608 5.3279
301 1 5.29979 7.568 7.68762
302 1 8.58838 6.73236 5.39838
303 1 5.68184 5.32163 5.34406
304 1 1.6664 6.46921 8.63941
305 1 6.4467 8.79853 6.76313
306 1 0.643732 0.0887924 1.59627
307 1 5.53516 2.1938 3.75073
308 1 3.42691 8.78359 8.59469
309 1 0.112034 5.96606 7.63751
310 1 7.85846 6.95764 3.68173
311 1 0.606318 8.73548 0.864932
312 1 2.96591 8.11773 9.29504
313 1 6.0987 7.34455 3.07351
314 1 5.97892 0.815574 0.391294
315 1 5.74765 5.98257 7.60959
316 1 9.1266 4.83153 9.24396
317 1 6.64105 5.73523 3.80093
318 1 8.25064 2.13067 2.857
319 1 1.61412 1.48514 1.87607
320 1 1.2902 5.8648 3.74017
321 1 9.25761 4.65141 0.869281
322 1 6.72095 9.37009 4.90353
323 1 9.25496 2.93854 0.116412
324 1 0.804466 5.42121 8.89005
325 1 9.37587 7.33619 8.96219
326 1 2.74466 2.8049 3.06913
327 1 1.03578 2.95018 0.775179
328 1 5.62247 3.86468 6.27728
329 1 0.633369 7.45758 1.84546
330 1 4.60316 3.90931 1.52991
331 1 1.04932 0.235593 5.05942
332 1 3.20069 2.32161 6.68593
333 1 0.584835 4.46603 8.57677
334 1 2.37264 5.47857 7.28391
335 1 6.10023 5.45968 1.24223
336 1 7.67887 5.77666 4.32844
337 1 6.97251 0.629647 4.10822
338 1 3.70035 0.381216 4.67538
339 1 7.84532 6.38051 0.634233
340 1 3.98678 6.2571 7.08016
341 1 6.19537 6.97896 8.95237
342 1 9.39435 0.84966 4.75098
343 1 2.85345 6.54184 3.19488
344 1 3.33735 5.06215 8.73108
345 1 7.56838 6.60061 7.73649
346 1 8.68072 3.95638 1.27751
347 1 7.62197 6.17999 8.79987
348 1 0.35362 2.84538 4.12891
349 1 2.49748 3.36818 2.1911
350 1 1.41332 3.81545 7.16745
351 1 5.52107 9.36948 0.619148
352 1 3.87603 5.98699 9.19517
353 1 7.41878 7.74014 4.18172
354 1 2.23689 7.26506 8.76483
355 1 7.80454 8.61365 3.0947
356 1 6.13498 0.93149 6.06015
357 1 1.15315 4.64527 5.99996
358 1 4.99574 2.78693 5.63298
359 1 0.511208 6.39125 8.58038
360 1 6.5249 2.60335 0.932129
361 1 0.0868611 0.0102207 6.22874
362 1 2.77035 7.5767 5.74366
363 1 8.63847 6.29063 2.5204
364 1 1.19153 0.804367 6.00359
365 1 4.76132 6.39778 7.78639
366 1 2.2035 9.18532 0.913801
367 1 0.668818 2.57239 5.25637
368 1 3.88878 7.63318 5.67363
369 1 6.801 7.2296 2.2965
370 1 1.32561 1.35798 2.93335
371 1 1.24064 0.297516 3.39389
372 1 4.32434 3.50453 5.42701
373 1 5.37897 0.874543 6.96677
374 1 6.95323 8.8913 1.43435
375 1 2.50773 8.28007 8.29602
376 1 5.35812 3.61599 0.82622
377 1 8.99208 8.35138 6.20962
378 1 2.56345 5.74483 1.8114
379 1 8.24917 8.30812 4.17425
380 1 9.16632 5.07034 8.19859
381 1 2.86151 1.91355 8.80892
382 1 4.43228 0.877032 5.91431
383 1 2.69141 0.404577 1.77474
384 1 1.90757 6.64214 4.04297
385 1 3.94756 7.084 9.26197
386 1 1.5745 7.18995 7.05151
387 1 9.09779 2.01954 1.49994
388 1 2.74955 2.95985 1.28546
389 1 4.77963 1.78341 7.28978
390 1 1.42812 4.87518 4.26276
391 1 6.89425 8.11207 3.30857
392 1 1.89412 5.75062 0.886119
393 1 2.70764 0.706181 4.91172
394 1 2.90175 5.80772 5.32032
395 1 6.50588 1.69074 0.599228
396 1 2.54677 2.88518 8.61604
397 1 6.16987 5.75939 2.84484
398 1 7.04818 5.93338 1.12946
399 1 7.31824 3.24406 4.11324
400 1 9.19865 4.932 5.11452
401 1 5.77712 6.06021 9.332
402 1 7.87177 3.85034 4.95291
403 1 9.02417 2.53284 3.50767
404 1 1.57856 0.534169 1.41421
405 1 2.91642 5.79167 6.37268
406 1 5.874 1.5085 1.40442
407 1 4.46131 8.16236 2.07076
408 1 0.915547 2.21688 1.4789
409 1 8.07124 7.67645 5.14029
410 1 6.21061 3.28401 0.138197
411 1 4.08281 4.12569 2.41145
412 1 3.55831 5.42781 4.51393
413 1 2.96213 8.93928 6.52126
414 1 6.49747 7.3461 0.444963
415 1 9.00821 9.3473 1.66985
416 1 7.437 6.86857 1.55527
417 1 9.04298 1.24716 0.342567
418 1 6.99728 2.55948 0.0054688
419 1 1.81848 3.89972 4.16741
420 1 6.68707 6.2703 8.38981
421 1 9.31379 6.98493 7.9919
422 1 6.41931 1.26181 5.00467
423 1 7.01003 4.66573 2.6706
424 1 3.8221 3.27148 2.95299
425 1 8.76381 4.26465 2.37827
426 1 8.68317 2.28357 6.82631
427 1 6.88738 1.7877 1.51717
428 1 2.2196 7.43258 3.26736
429 1 4.14314 1.95883 8.09886
430 1 6.24654 9.09272 3.9776
431 1 0.748054 5.21067 7.87221
432 1 0.131758 6.07468 3.03195
433 1 7.70866 3.85894 2.79965
434 1 0.725452 1.79723 4.58043
435 1 6.6784 8.35074 4.55498
436 1 1.51797 7.9214 7.90032
437 1 2.12155 4.32114 2.58284
438 1 1.61441 6.33147 1.90323
439 1 0.788119 3.52683 8.17781
440 1 2.3172 1.21087 1.18165
441 1 5.15607 1.97238 8.33501
442 1 3.56038 8.01903 6.57764
443 1 1.11908 3.98826 1.29028
444 1 7.46549 4.08049 7.01588
445 1 1.10874 8.91581 7.66388
446 1 7.70514 1.33195 8.19026
447 1 8.04902 2.99267 0.335065
448 1 0.855451 7.91069 2.74966
449 1 5.75459 0.0851813 1.69175
450 1 2.58371 9.19577 9.32976
451 1 9.20061 3.70353 8.01062
452 1 9.17247 7.47843 2.51214
453 1 4.15898 1.89385 0.630964
454 1 0.699246 7.9475 0.120012
455 1 4.02106 7.27655 4.57332
456 1 1.8283 3.7518 6.13294
457 1 6.88904 3.44069 5.04949
458 1 1.51465 6.47826 5.47412
459 1 7.41286 1.67954 5.70954
460 1 3.64442 4.38935 5.06846
461 1 1.66992 1.91741 6.21209
462 1 6.24708 6.76472 1.24636
463 1 1.93966 0.587755 0.279961
464 1 9.21565 0.100942 8.43265
465 1 0.381088 8.66309 6.91165
466 1 1.72404 0.306127 7.65338
467 1 6.18696 1.90251 8.33438
468 1 7.16339 6.6818 6.06262
469 1 1.42239 1.37276 4.02013
470 1 0.519042 8.33901 5.54693
471 1 9.19778 0.262922 0.748515
472 1 0.503209 1.36521 5.47396
473 1 7.04935 2.43049 8.26981
474 1 1.53085 7.86752 5.10379
475 1 9.13107 1.60054 3.02031
476 1 2.03842 2.89865 6.71772
477 1 2.75683 9.37734 3.83655
478 1 3.58698 5.64915 0.7652
479 1 0.301119 4.31088 7.46192
480 1 1.80428 8.08499 9.0687
481 1 4.49069 2.91484 1.15006
482 1 5.28653 3.31503 3.78946
483 1 1.83875 5.72351 4.77824
484 1 1.9725 2.27065 1.05195
485 1 0.144784 8.677 7.95328
486 1 7.65793 7.46415 0.776288
487 1 7.88427 7.07691 6.80077
488 1 9.34489 6.953 6.25916
489 1 0.163865 1.7703 7.22653
490 1 4.53889 8.54485 3.27418
491 1 3.66655 8.24136 2.90065
492 1 3.32291 2.56479 2.16207
493 1 0.0482862 3.07395 6.02895
494 1 5.53049 1.35985 4.50016
495 1 2.13841 8.45561 5.94412
496 1 3.39788 2.17087 5.68613
497 1 1.2984 4.84056 7.09481
498 1 2.33841 2.84621 4.0308
499 1 4.30609 7.43033 8.25762
500 1 6.76385 1.35983 7.65339
501 1 7.91375 4.0778 3.83283
502 1 1.28063 2.06898 7.15384
503 1 5.77522 1.00319 7.8561
504 1 7.81211 7.68931 7.70606
505 1 4.94328 5.57145 4.61231
506 1 7.61607 6.49376 2.54065
507 1 1.96581 0.73275 2.37509
508 1 4.55919 0.231114 1.79781
509 1 5.93374 0.103405 9.08889
510 1 8.91782 6.38468 1.05704
511 1 0.546735 1.02813 3.58858
512 1 8.09495 2.94645 1.35962
513 1 8.71585 3.20791 2.6732
514 1 8.51625 5.56821 7.60485
515 1 4.37637 9.08401 8.9402
516 1 2.77512 7.79882 2.49419
517 1 1.67741 2.84393 7.77199
518 1 3.53245 3.19365 9.0779
519 1 1.72174 5.44962 2.59523
520 1 2.22798 6.50876 0.189586
521 1 4.50066 9.2161 4.30395
522 1 0.149502 0.19033 7.45888
523 1 2.31033 5.5685 3.60042
524 1 1.81767 1.02567 6.95475
525 1 5.34116 0.93808 2.07547
526 1 4.54061 3.42626 0.0774144
527 1 2.59921 6.80524 2.25567
528 1 2.77112 1.41556 2.11754
529 1 2.58624 2.83541 5.78754
530 1 8.47132 8.28102 2.37418
531 1 2.28652 3.55595 5.06608
532 1 1.35005 4.21217 3.2799
533 1 3.66443 7.28404 7.4467
534 1 7.44427 9.00554 4.1779
535 1 3.26345 8.53037 5.65973
536 1 6.35352 2.0309 3.10494
537 1 4.56522 1.39899 9.01418
538 1 5.01716 1.68587 6.23854
539 1 8.80265 5.35649 4.25452
540 1 2.59422 5.6676 8.39841
541 1 2.97447 1.94647 1.21607
542 1 3.19988 4.6621 6.85827
543 1 1.49208 8.97391 0.137642
544 1 3.60204 0.269064 7.91957
545 1 6.70983 6.18505 2.05282
546 1 6.26523 7.98924 7.76348
547 1 0.97023 8.52672 4.55831
548 1 9.36479 8.40272 4.48663
549 1 2.32646 2.02796 7.28055
550 1 0.889325 3.70352 5.63591
551 1 2.74383 5.66003 0.109257
552 1 0.250311 4.14654 1.75665
553 1 3.94213 5.3257 6.60626
554 1 5.93447 4.04264 5.11767
555 1 2.1245 0.965105 3.43112
556 1 0.953963 5.7316 5.95485
557 1 4.28913 8.8499 8.00135
558 1 7.54279 2.70404 5.08265
559 1 3.91696 7.54625 3.56725
560 1 2.91544 3.89093 4.2997
561 1 3.06921 4.11608 2.94989
562 1 0.826805 6.74422 7.60657
563 1 3.50489 7.59396 0.652358
564 1 8.06222 2.94705 3.40337
565 1 2.27317 0.890531 5.94675
566 1 0.801955 4.73152 0.255691
567 1 8.50197 7.49822 6.11809
568 1 0.0782441 1.08116 1.33104
569 1 2.51015 4.64316 0.091159
570 1 4.19553 6.2022 4.85773
571 1 8.82974 5.06932 6.20278
572 1 5.31619 6.08053 0.861834
573 1 1.30296 3.54996 2.51505
574 1 4.33718 2.84059 3.72833
575 1 1.93241 2.14494 3.34886
576 1 7.63659 3.48736 5.89931
577 1 4.02799 8.17944 9.21648
578 1 8.85497 8.95508 7.15509
579 1 5.85779 7.33511 1.92472
580 1 2.5017 6.58012 5.78592
581 1 5.20422 9.23544 3.51842
582 1 5.57634 4.05194 2.04551
583 1 8.85522 0.731458 3.55204
584 1 4.61649 4.95368 1.83481
585 1 8.27641 0.682672 8.77007
586 1 4.11679 8.60894 5.12283
587 1 7.38862 1.03036 2.10935
588 1 8.35533 1.07489 4.60214
589 1 1.87838 9.09525 2.0363
590 1 7.99316 5.25771 6.78618
591 1 3.78107 6.43077 3.86768
592 1 9.39984 9.21081 5.16154
593 1 9.03734 5.91662 6.77902
594 1 6.55184 3.5948 8.4564
595 1 8.08396 6.10192 1.64647
596 1 7.10519 4.85308 6.30227
597 1 0.918081 0.988735 7.49416
598 1 0.563381 3.89737 6.55945
599 1 1.07941 8.35582 1.81217
600 1 5.08771 9.04791 2.46065
601 1 8.62245 7.41245 4.35635
602 1 7.61063 4.28801 1.80407
603 1 2.78346 3.86428 5.97917
604 1 5.9052 8.63176 8.56135
605 1 3.73857 6.43716 8.15607
606 1 4.45035 3.62468 7.4881
607 1 2.58487 9.39685 8.2952
608 1 4.94983 8.21811 8.59096
609 1 0.416058 1.51672 2.18653
610 1 7.08342 3.80291 0.104237
611 1 3.86209 0.623612 0.104217
612 1 1.60248 3.65704 0.323029
613 1 4.63683 0.651238 2.76262
614 1 0.740477 1.8268 8.12874
615 1 3.61943 1.9526 3.99992
616 1 0.621099 2.14257 3.33191
617 1 8.36109 5.5814 5.25959
618 1 6.24107 4.22998 0.665939
619 1 6.45869 4.26521 6.93688
620 1 7.50262 5.51372 0.149512
621 1 8.38279 0.282565 5.24971
622 1 6.03675 8.87059 2.92741
623 1 6.64368 8.49167 5.69512
624 1 8.66964 2.25229 0.614484
625 1 0.749282 4.97221 1.3138
626 1 0.431917 4.93507 4.05872
627 1 0.653538 8.69387 3.52928
628 1 1.65613 2.1838 8.60152
629 1 4.79598 6.40131 3.97851
630 1 4.48474 8.01231 7.30107
631 1 3.94254 0.925575 1.07124
632 1 2.04527 5.44965 5.77983
633 1 0.0456116 8.49338 2.60207
634 1 5.28569 6.22173 5.94765
635 1 2.94088 4.4283 1.87615
636 1 8.63781 9.19907 9.34187
637 1 1.7712 5.0614 8.02652
638 1 4.57226 6.8314 5.57283
639 1 2.16256 1.66343 0.260182
640 1 7.48249 3.2984 8.69641
641 1 3.00377 6.40866 8.86805
642 1 8.52925 3.20473 8.7219
643 1 8.55613 7.79913 3.37442
644 1 3.54165 9.3393 1.34389
645 1 3.42232 3.6267 7.00883
646 1 5.47864 6.38481 4.99845
647 1 5.66621 1.16265 8.86574
648 1 6.94462 4.2935 4.48003
649 1 4.39325 7.26592 6.58529
650 1 3.95704 2.77593 7.41498
651 1 5.48914 5.12948 0.226916
652 1 4.62801 0.165791 5.30793
653 1 8.12832 1.50865 6.41906
654 1 5.50979 7.68433 0.00557015
655 1 3.25248 6.54873 0.490067
656 1 7.0406 1.59136 8.91298
657 1 4.86854 8.5101 0.31283
658 1 1.524 7.29661 1.31493
659 1 1.7991 2.19857 4.76411
660 1 4.4134 6.51065 2.99695
661 1 5.37342 4.65038 1.16312
662 1 6.33331 3.19132 6.79815
663 1 3.08744 8.13582 7.47761
664 1 0.688229 5.65301 4.93485
665 1 3.13276 0.924821 3.92025
666 1 2.25106 8.04434 4.33507
667 1 8.0281 8.88244 1.62717
668 1 5.15324 7.23025 4.54663
669 1 1.38645 3.00123 3.45109
670 1 6.59925 2.41203 4.9911
671 1 1.12056 4.53396 2.23312
672 1 6.47191 5.38068 0.277664
673 1 1.27585 1.32495 0.838917
674 1 2.33116 7.86536 6.78211
675 1 2.70152 0.811685 9.04391
676 1 9.4533 6.54043 0.139354
677 1 7.039 8.37966 8.17946
678 1 7.33183 1.61379 4.65816
679 1 8.07874 2.49736 6.01531
680 1 0.146306 7.82725 3.60815
681 1 2.84951 8.88482 2.45654
682 1 4.41413 5.44141 3.70418
683 1 3.64293 1.15152 8.57619
684 1 8.30789 8.1576 0.248866
685 1 8.19368 6.27509 6.25908
686 1 2.06503 3.85049 8.0202
687 1 6.06183 4.9328 4.45492
688 1 7.63832 7.53467 2.90601
689 1 1.38761 8.47909 6.7873
690 1 4.46496 1.68024 2.53303
691 1 3.28505 1.44443 0.292627
692 1 6.87241 9.3874 3.27823
693 1 8.44263 0.390278 7.75075
694 1 2.4586 7.48931 0.517069
695 1 6.11666 2.87896 7.85714
696 1 7.9788 4.85845 2.90076
697 1 4.86522 7.87669 5.31372
698 1 4.62771 3.52048 6.45423
699 1 1.02226 6.52272 4.58692
700 1 7.94092 8.76582 7.67161
701 1 3.8752 1.1884 7.50162
702 1 9.11124 2.48134 4.8396
703 1 6.47555 5.77196 5.97746
704 1 8.48245 5.36219 0.805505
705 1 6.05215 3.1394 5.68678
706 1 2.94612 2.5061 4.79712
707 1 6.53388 1.69977 4.05153
708 1 4.55666 8.13283 4.26605
709 1 2.89273 6.40306 7.28486
710 1 0.897821 5.94974 1.17543
711 1 2.64941 1.10737 8.05084
712 1 2.44482 4.58735 3.61907
713 1 0.757974 7.23954 5.4868
714 1 0.686697 3.9378 4.07427
715 1 6.43577 5.89533 4.92372
716 1 3.99431 0.0823237 3.44333
717 1 4.88964 5.54311 7.19921
718 1 4.96618 3.86608 4.624
719 1 8.06205 8.47268 8.63414
720 1 5.98515 6.5917 3.96803
721 1 1.96882 4.87059 1.72842
722 1 7.97108 1.89228 1.71986
723 1 7.79212 4.63688 7.81297
724 1 6.9709 1.35604 6.56618
725 1 5.79374 5.38255 8.48723
726 1 8.63405 9.26518 4.34277
727 1 3.291 5.54896 7.69719
728 1 7.62006 0.364549 1.29845
729 1 1.67767 7.3831 2.40068
730 1 0.653379 3.10471 1.8534
731 1 9.02488 3.09016 1.65773
732 1 5.99202 0.868231 3.6931
733 1 4.08943 8.36781 0.878847
734 1 0.287088 4.18936 2.87113
735 1 8.42632 9.19741 6.09035
736 1 8.8153 7.95087 8.09346
737 1 1.31063 3.11269 4.54076
738 1 2.22673 8.22001 1.71814
739 1 3.66978 4.36555 7.85839
740 1 8.64281 0.591131 6.7631
741 1 2.85347 8.977 4.72298
742 1 8.39914 3.17265 4.48275
743 1 0.55348 7.74816 7.63685
744 1 1.57427 1.19138 5.01662
745 1 2.64133 3.48912 0.204311
746 1 8.62998 9.21466 2.6843
747 1 0.403745 0.820486 9.14146
748 1 5.41493 4.03953 9.31283
749 1 7.44637 7.31568 9.16599
750 1 8.95765 0.939971 5.74745
751 1 5.27199 6.96725 8.585
752 1 5.04588 2.6893 7.60046
753 1 7.01758 7.28382 8.20504
754 1 4.75696 0.191196 7.33466
755 1 1.61509 2.83248 5.58545
756 1 3.85099 6.18287 5.87549
757 1 0.161439 1.88645 9.0218
758 1 3.37192 6.91008 6.45995
759 1 4.40797 4.79424 4.57634
760 1 3.46859 8.37807 1.73397
761 1 0.30211 1.00389 6.5085
762 1 5.17803 6.98833 1.16322
763 1 8.44093 4.20284 8.67166
764 1 2.17531 3.92437 1.10742
765 1 0.0351655 8.23473 1.54241
766 1 6.96047 2.61486 6.08383
767 1 5.63075 3.08483 4.74985
768 1 3.70228 4.49854 1.10859
769 1 9.20187 7.58613 5.2841
770 1 2.45326 7.36771 7.63845
771 1 6.66898 0.684413 1.44214
772 1 3.79172 1.21264 3.19023
773 1 4.59862 8.21356 6.22871
774 1 3.32863 1.02037 5.85159
775 1 9.007 5.3776 2.59447
776 1 3.82659 2.20654 9.06194
777 1 6.72832 7.77104 1.38337
778 1 8.48021 7.02778 0.0850221
779 1 3.83963 9.13327 2.39975
780 1 7.22193 5.61154 2.93693
781 1 8.00774 1.56517 -0.0438473
782 1 8.70974 2.58851 7.91454
783 1 0.628059 7.76125 6.45222
784 1 2.97273 0.644785 2.78882
785 1 1.79846 6.40294 2.93527
786 1 2.73412 4.65078 7.83052
787 1 0.954315 0.367677 0.672603
788 1 7.59751 9.03455 5.34015
789 1 0.0502868 1.11321 8.12321
790 1 5.61902 4.09384 8.2854
791 1 6.54454 3.77033 2.47161
792 1 8.25821 5.83617 3.41527
793 1 7.20628 9.27715 7.25716
794 1 8.50029 5.91356 9.40536
795 1 7.41839 4.33074 8.67457
796 1 6.02357 3.95667 4.07959
797 1 7.97792 0.186174 3.50666
798 1 3.06359 2.49814 0.458698
799 1 6.29422 1.29859 2.31588
800 1 6.62591 7.95911 8.9688
801 2 2.85572 3.18312 6.54013
802 2 8.3006 7.71283 8.91963
803 2 4.04434 2.72806 0.311002
804 2 8.27829 1.54074 0.830574
805 2 6.33943 7.97772 2.56112
806 2 6.43525 5.33989 7.90731
807 2 2.33169 2.25822 8.06589
808 2 0.91475 6.70197 1.6423
809 2 3.35497 5.0216 0.200596
810 2 7.5372 2.25294 6.67124
811 2 9.38677 5.68164 9.06993
812 2 1.81168 3.98896 1.87594
813 2 0.219486 2.78777 1.08926
814 2 1.25191 2.10527 0.449189
815 2 5.94979 7.34338 7.01015
816 2 0.990336 1.12899 8.41178
817 2 3.22044 8.95225 7.67894
818 2 1.53301 5.15223 3.43906
819 2 1.22941 9.26917 4.27419
820 2 1.18365 4.25906 7.9723
821 2 4.22823 0.527003 8.6313
822 2 5.60752 0.231469 7.52876
823 2 5.81297 7.66775 8.50198
824 2 0.64513 6.37187 5.59157
825 2 5.73834 5.8156 6.71428
826 2 3.69783 2.50903 1.13221
827 2 6.10255 6.93546 4.82736
828 2 8.04982 1.07615 5.589
829 2 6.22926 6.08819 0.692244
830 2 8.08604 6.07097 8.13182
831 2 8.36685 0.37207 2.11742
832 2 3.95459 0.913339 5.24409
833 2 1.49986 7.29821 4.41949
834 2 6.57139 5.36491 2.24743
835 2 7.26073 4.92139 7.13624
836 2 0.0926388 9.33569 2.39915
837 2 4.21919 8.91064 1.63896
838 2 0.499121 0.455978 5.60791
839 2 0.121179 2.54989 6.74247
840 2 8.83929 2.37836 9.01209
841 2 1.01027 2.69215 8.33336
842 2 5.06416 3.45281 8.06339
843 2 2.95809 0.431905 6.43112
844 2 7.03751 7.26184 3.5848
845 2 4.91568 8.78513 5.58114
846 2 7.11515 4.71155 9.41712
847 2 0.103616 6.69134 7.13856
848 2 7.81714 6.99645 4.57539
849 2 0.422827 5.00846 5.66825
850 2 2.16984 3.96969 8.98276
851 2 3.84421 1.99361 7.27629
852 2 8.49049 2.53668 2.06205
853 2 1.4512 5.46607 1.60809
854 2 7.39628 6.15031 3.66776
855 2 5.06935 5.42867 8.02405
856 2 8.40427 9.21821 8.39273
857 2 8.21414 3.56159 1.93349
858 2 4.1194 4.75619 8.63258
859 2 5.21103 3.61163 5.52423
860 2 4.54464 1.07543 0.476866
861 2 5.73962 6.28907 8.45301
862 2 3.86008 8.09741 8.1365
863 2 7.24811 4.20889 5.36109
864 2 9.37581 7.05424 4.03956
865 2 1.87291 0.38652 5.26419
866 2 7.42523 3.88343 7.97652
867 2 7.18566 3.22758 6.69898
868 2 8.58025 4.31221 5.31383
869 2 4.44245 0.967813 6.93406
870 2 2.81006 4.18101 5.16902
871 2 6.5212 1.73092 5.70636
872 2 3.28408 0.129442 8.9907
873 2 8.28027 5.00498 3.69768
874 2 8.4764 1.72121 3.62759
875 2 5.12603 0.511454 6.13096
876 2 1.38252 7.20767 3.17218
877 2 1.41959 3.9241 4.92277
878 2 1.28668 8.20878 5.90986
879 2 6.13374 1.30837 6.91215
880 2 2.48553 8.19632 5.12295
881 2 7.06891 2.35837 4.2897
882 2 3.06591 7.13999 9.36815
883 2 3.26803 8.99899 3.15998
884 2 7.8114 0.288692 4.5457
885 2 2.13898 3.14228 0.816115
886 2 4.70631 3.10612 4.41535
887 2 0.508872 5.91685 6.61712
888 2 3.86228 8.74682 6.27582
889 2 9.365 3.63213 2.35504
890 2 7.13275 6.82579 0.801404
891 2 2.75501 8.97712 1.59014
892 2 8.40277 0.0510063 1.05269
893 2 1.17347 0.434415 9.24129
894 2 8.35044 7.02368 2.78188
895 2 1.33314 9.12803 1.11025
896 2 8.68042 2.97241 6.30522
897 2 6.94249 0.536542 7.70923
898 2 7.76811 2.78522 7.98838
899 2 6.21232 3.73276 7.60838
900 2 2.49449 7.01127 6.67393
901 2 9.03728 0.506526 9.29545
902 2 1.54018 6.57996 0.918905
903 2 4.61056 6.02058 6.49115
904 2 7.64089 8.35697 1.07706
905 2 4.59461 7.10786 7.40174
906 2 9.24233 5.18241 7.28172
907 2 2.75573 1.73178 6.16877
908 2 4.53452 7.75224 2.77154
909 2 4.00077 5.10851 7.40873
910 2 2.79667 6.68181 8.04879
911 2 5.05386 7.81668 1.58744
912 2 5.9526 2.47619 1.6107
913 2 9.17177 1.67979 5.0663
914 2 6.97385 3.99043 0.948072
915 2 5.3926 7.10658 5.43367
916 2 3.55341 1.66306 2.36308
917 2 7.93412 6.08227 7.10729
918 2 7.34848 2.49893 1.55956
919 2 9.32243 2.0644 8.15055
920 2 6.67246 6.13362 7.44577
921 2 2.48835 5.99509 2.61603
922 2 4.71272 8.77195 7.00771
923 2 5.96743 2.11087 4.48573
924 2 2.9825 3.81256 7.69626
925 2 0.733754 7.90486 1.09089
926 2 7.06957 5.17117 4.53566
927 2 7.78621 9.19828 9.02301
928 2 8.13059 8.39926 5.89413
929 2 0.738968 7.01289 9.33353
930 2 7.22168 3.13828 0.716464
931 2 4.85527 5.78361 0.17662
932 2 0.613141 3.55614 7.34417
933 2 2.14439 1.48439 8.77845
934 2 3.10762 7.32621 3.19711
935 2 8.06117 5.65881 2.56109
936 2 7.90301 3.78915 9.24799
937 2 5.22245 5.56903 1.53322
938 2 9.25008 3.7202 8.84631
939 2 6.24774 3.43359 3.41464
940 2 2.76173 5.96891 0.930879
941 2 2.95681 4.15189 0.736728
942 2 1.50512 5.36265 6.43411
943 2 5.41307 2.95371 0.147217
944 2 8.07417 4.65935 1.07684
945 2 0.206664 4.89862 2.28518
946 2 8.67718 1.52664 2.1051
947 2 5.24538 9.00291 9.05982
948 2 1.07182 5.90296 2.88051
949 2 4.25969 1.78557 4.54659
950 2 4.05241 0.910305 3.92534
951 2 0.730906 0.944545 4.46924
952 2 4.03512 4.21833 6.9775
953 2 1.8851 2.90726 2.81339
954 2 5.24864 4.67115 4.72804
955 2 7.35208 8.21753 5.12959
956 2 1.19276 1.84678 5.45065
957 2 4.42508 6.55163 8.67923
958 2 3.5203 3.7299 3.614
959 2 4.07104 6.61213 1.9612
960 2 1.33915 5.86785 8.0719
961 2 0.910069 0.992065 1.65319
962 2 3.44088 2.60025 8.41143
963 2 9.25085 5.80013 4.83994
964 2 6.16396 4.54498 2.54572
965 2 5.62028 6.89921 0.411752
966 2 1.07356 2.32602 4.02985
967 2 1.04386 1.47092 6.63936
968 2 6.23205 0.518877 4.517
969 2 4.74897 7.51207 9.06339
970 2 5.81183 5.75517 4.40655
971 2 6.08001 8.77996 1.04512
972 2 9.00099 1.46349 6.55806
973 2 6.37785 2.8027 8.7935
974 2 8.37638 2.7044 5.21427
975 2 1.61076 7.06434 7.95167
976 2 4.7483 5.85328 5.42651
977 2 2.37749 4.79358 8.66249
978 2 2.26759 8.34092 0.34021
979 2 1.37188 5.11133 5.28042
980 2 7.40385 8.29584 9.19587
981 2 2.10117 1.60849 2.5631
982 2 9.05747 5.45931 3.44821
983 2 1.17545 5.40343 0.608725
984 2 7.98977 0.115775 6.88199
985 2 7.86979 7.03081 5.74601
986 2 0.464923 1.14397 0.469388
987 2 6.06818 8.79086 5.09523
988 2 8.5114 3.90609 3.14378
989 2 2.88686 2.29411 3.77574
990 2 9.29383 7.20244 1.27797
991 2 6.13067 6.71461 2.51172
992 2 8.39626 7.10344 0.984858
993 2 4.52667 1.1393 1.80843
994 2 8.84006 3.13177 0.81456
995 2 9.23484 4.32894 6.62526
996 2 2.01585 4.41911 7.34388
997 2 0.195187 7.93654 8.41077
998 2 2.29596 6.33418 4.93226