#bin. KALJ data file T=0.5

1000 atoms
2 atom types

0 9.4 xlo xhi
0 9.4 ylo yhi
0 9.4 zlo zhi

Masses

1 1.0
2 1.0

Atoms

1 1 3.24977 6.09979 2.54992
2 1 3.54111 4.80061 3.81112
3 1 3.37999 2.79737 3.82274
4 1 3.24119 4.12806 9.06543
5 1 2.48643 0.273575 2.94865
6 1 3.27583 6.66679 5.33722
7 1 6.83998 5.57138 6.66575
8 1 8.65691 1.52622 7.34832
9 1 0.92607 7.11561 6.84728
10 1 0.192968 5.50814 0.550316
11 1 1.42544 0.303835 5.5203
12 1 0.201613 1.50635 8.86954
13 1 9.14148 7.38037 7.55703
14 1 2.86419 3.59553 6.73634
15 1 9.18876 8.09463 0.585693
16 1 8.39383 7.04824 8.34653
17 1 6.70828 0.0692988 0.735143
18 1 6.33252 7.41575 4.12033
19 1 8.27168 6.68772 1.53689
20 1 7.16088 5.26569 8.66401
21 1 8.73623 3.72755 0.284075
22 1 7.65034 9.23493 0.515638
23 1 6.27558 9.01417 8.14335
24 1 1.80968 5.41411 9.34034
25 1 2.98348 7.41412 1.48425
26 1 5.68553 0.201792 2.51153
27 1 7.83371 3.67831 7.93451
28 1 6.02915 3.09891 2.26099
29 1 8.85083 4.24752 7.55233
30 1 0.0945103 1.3901 4.14217
31 1 0.28852 1.39631 3.04428
32 1 5.69306 5.49591 6.24976
33 1 8.24846 8.37331 1.34303
34 1 2.94875 8.37764 0.753688
35 1 4.87715 5.69088 5.51721
36 1 3.51729 8.58667 4.0271
37 1 8.83678 6.08125 8.44497
38 1 0.662806 9.12952 2.13266
39 1 5.01578 7.23571 3.48961
40 1 5.19071 0.0912314 8.23729
41 1 2.03878 8.59349 6.02092
42 1 2.35356 0.640353 4.71119
43 1 4.85095 1.10818 7.87302
44 1 3.58012 2.12322 2.91607
45 1 1.12704 7.44126 8.52174
46 1 0.610321 4.36429 4.96382
47 1 5.43641 8.24755 1.91813
48 1 5.65376 1.38629 5.04842
49 1 2.24916 4.41702 5.22088
50 1 5.17131 1.38357 3.09444
51 1 5.43646 5.98683 1.94152
52 1 4.61282 7.51656 0.668495
53 1 8.35032 0.577856 0.888279
54 1 7.50853 0.603258 6.3364
55 1 0.436028 5.22929 3.21192
56 1 2.5069 7.33214 5.1413
57 1 2.92893 5.18684 5.49245
58 1 3.66144 5.10495 2.75168
59 1 5.15928 6.3241 6.78164
60 1 3.52572 3.78349 4.00038
61 1 4.07756 4.01801 3.20862
62 1 4.06515 7.2535 1.58464
63 1 9.32855 3.54855 4.66993
64 1 1.88268 8.41565 2.58803
65 1 6.29099 8.86053 1.73785
66 1 2.02456 0.44376 8.83308
67 1 1.00903 5.54619 6.19189
68 1 5.45136 7.40848 5.66016
69 1 8.53529 6.68767 2.61198
70 1 8.74088 4.39802 4.8055
71 1 7.18243 8.23252 7.36695
72 1 2.39133 2.41855 0.236342
73 1 3.51673 5.20576 1.78047
74 1 6.91071 0.889879 3.40604
75 1 6.43904 2.12602 1.89764
76 1 7.12847 6.7797 6.70775
77 1 3.09207 3.39822 4.9468
78 1 4.16995 6.5625 0.793718
79 1 7.98854 8.52529 6.79689
80 1 0.349081 1.97042 0.769067
81 1 3.0928 3.58344 7.89251
82 1 4.52512 9.3858 0.648199
83 1 7.02932 7.27088 4.89989
84 1 1.34565 6.08527 7.14301
85 1 8.23586 3.59841 7.04798
86 1 5.85921 4.92198 7.75455
87 1 0.734048 2.09276 6.13837
88 1 8.26332 1.28548 3.87431
89 1 4.61172 6.94813 2.35992
90 1 5.49349 5.46049 3.91089
91 1 0.786995 6.89563 2.55706
92 1 8.38477 0.621018 1.92472
93 1 3.12641 1.32892 4.95731
94 1 2.11681 5.34223 4.65635
95 1 6.87825 6.55784 4.10609
96 1 5.39452 7.86787 6.56165
97 1 0.0974197 2.56557 8.69693
98 1 4.5859 8.57433 1.40194
99 1 6.34658 -0.0166198 5.82602
100 1 4.31249 4.4847 8.58322
101 1 6.38198 4.45013 9.0363
102 1 2.12662 3.65656 3.36981
103 1 5.43565 6.4259 2.89956
104 1 6.33195 8.28792 6.00461
105 1 8.90352 6.49163 3.52729
106 1 9.32989 8.57729 4.83318
107 1 5.46051 4.33997 3.88572
108 1 7.73299 9.1827 2.40335
109 1 7.76106 5.73898 7.06427
110 1 8.6665 6.37272 7.46954
111 1 5.60324 9.20884 0.510354
112 1 7.67556 2.52548 1.09927
113 1 3.66835 4.74031 7.6884
114 1 5.40048 3.30723 3.04017
115 1 5.45663 2.20267 2.30367
116 1 5.82346 2.42475 8.94247
117 1 8.27618 8.44393 0.323772
118 1 6.93249 3.12372 1.5276
119 1 3.75656 1.91984 5.58346
120 1 2.02398 8.87874 8.45472
121 1 3.98007 2.8861 4.82883
122 1 3.31687 7.80664 4.68889
123 1 5.09498 5.8949 8.83429
124 1 0.398328 0.754963 5.19152
125 1 3.95088 4.75283 5.7916
126 1 5.80764 3.76118 1.45673
127 1 5.46426 8.66367 5.70203
128 1 7.58625 6.88851 5.72262
129 1 8.33544 7.38105 0.672588
130 1 4.20583 3.40565 1.34874
131 1 7.1468 2.70168 3.42962
132 1 7.06347 8.36587 2.363
133 1 4.65643 2.6294 2.88805
134 1 0.375239 8.65429 9.36918
135 1 7.91218 6.80329 4.5314
136 1 6.84417 2.004 7.26815
137 1 2.40472 4.9399 6.28627
138 1 6.12673 7.83415 5.00671
139 1 4.63798 1.91458 4.89993
140 1 0.733481 3.34182 9.30189
141 1 3.22743 7.60829 3.59383
142 1 5.42169 0.206451 5.35165
143 1 5.33253 1.68573 0.300745
144 1 4.05636 1.09475 4.50829
145 1 0.903887 2.81876 0.801313
146 1 0.978345 2.74859 2.74106
147 1 7.72953 1.90179 7.73402
148 1 1.57484 5.82794 3.56554
149 1 3.68245 0.960064 1.95165
150 1 1.05873 6.71059 4.08166
151 1 7.5141 7.713 6.3549
152 1 5.58291 0.506198 4.33934
153 1 1.49516 7.18377 0.140606
154 1 3.72029 4.79737 0.287848
155 1 0.946795 8.58507 4.5784
156 1 5.74204 2.48631 7.46802
157 1 7.02531 6.31009 0.106165
158 1 2.52767 8.84151 7.51255
159 1 2.33866 6.34573 7.89181
160 1 6.19394 6.48356 6.68478
161 1 2.71849 2.8237 7.39083
162 1 0.213813 3.16401 3.15018
163 1 5.7966 1.6716 6.63727
164 1 3.04563 0.383739 7.30722
165 1 0.0651903 6.04437 5.87929
166 1 6.43908 7.62483 6.90047
167 1 3.49077 9.22225 0.0213984
168 1 7.43096 5.13974 1.79298
169 1 1.779 4.63831 0.713551
170 1 6.38014 3.44765 3.42176
171 1 7.14037 9.0746 6.44934
172 1 3.38083 7.32284 8.43758
173 1 2.69502 4.9908 1.02645
174 1 5.24834 3.14031 8.26904
175 1 7.89458 3.51549 0.846363
176 1 2.36034 1.76102 2.8582
177 1 4.35814 6.03441 1.7002
178 1 6.72714 1.80784 2.8678
179 1 6.28611 2.67165 4.1575
180 1 1.6583 1.32057 7.92807
181 1 8.4402 4.70492 1.97566
182 1 2.63799 8.48916 3.39826
183 1 4.81443 4.71663 0.186416
184 1 6.55863 6.86559 7.62027
185 1 0.602309 7.54169 4.58179
186 1 0.0619258 2.29337 2.46653
187 1 2.15612 1.7573 4.42077
188 1 1.07501 6.12815 0.213353
189 1 4.10919 5.17807 4.71826
190 1 3.22512 3.52911 1.76931
191 1 5.04481 4.73807 5.769
192 1 3.91053 0.38894 6.68356
193 1 4.83619 2.02043 1.3628
194 1 1.92324 9.05979 4.81902
195 1 5.76487 8.18692 3.74388
196 1 1.42073 0.0313809 2.9184
197 1 5.1509 2.98247 1.70211
198 1 6.92505 0.731714 0.00144072
199 1 3.59916 9.36748 5.71156
200 1 1.15775 0.260071 8.28455
201 1 4.24123 2.10234 3.92274
202 1 3.72489 5.83949 3.60869
203 1 4.3341 2.50966 6.4111
204 1 5.06056 6.67828 0.166649
205 1 4.02746 1.46464 6.49882
206 1 5.60912 9.29008 6.478
207 1 6.07518 4.86626 3.22428
208 1 0.719002 5.84644 2.31354
209 1 6.45999 0.44024 6.83139
210 1 1.69932 4.68174 7.77691
211 1 6.82377 1.18258 0.989346
212 1 4.31113 5.92604 2.77091
213 1 2.34294 6.33772 4.8954
214 1 7.43042 2.38 2.2094
215 1 6.69095 6.55954 2.99828
216 1 7.30029 3.07585 7.17621
217 1 2.2093 0.00287984 6.7412
218 1 1.95961 2.42818 2.15595
219 1 7.31494 4.25648 8.5882
220 1 7.21805 0.239436 8.53951
221 1 5.37661 8.52099 7.4499
222 1 4.361 4.99135 1.21175
223 1 2.92212 0.328068 0.793681
224 1 6.83754 4.3504 3.75672
225 1 1.73806 3.03917 9.13212
226 1 3.15318 1.96888 7.63417
227 1 7.85893 5.92371 5.30894
228 1 6.89922 8.90001 9.26154
229 1 9.13973 2.51529 6.336
230 1 7.47321 0.405151 1.41432
231 1 9.03257 4.13379 6.59648
232 1 6.94997 4.11092 7.55544
233 1 -0.0418517 0.080912 2.83083
234 1 5.26314 8.07948 2.95376
235 1 5.5849 7.75682 1.04558
236 1 8.87378 4.00515 3.77038
237 1 8.03055 2.37323 6.04419
238 1 8.29442 0.539227 7.51973
239 1 5.3855 4.61178 6.85081
240 1 1.25913 1.1658 9.00973
241 1 2.6821 5.21232 2.89357
242 1 4.38591 5.51789 8.11804
243 1 4.59541 0.395292 3.93981
244 1 7.56756 5.06628 3.51854
245 1 6.60646 4.37132 1.66571
246 1 8.71932 2.02191 4.66614
247 1 4.80232 2.39204 9.12677
248 1 5.55961 8.82688 4.65449
249 1 6.61699 4.96826 5.82593
250 1 5.09428 4.35239 2.88491
251 1 7.82521 4.96108 5.01069
252 1 0.337908 6.53548 4.98373
253 1 2.25412 6.56302 1.1806
254 1 5.48833 2.64411 0.69947
255 1 4.47901 3.51479 2.38954
256 1 9.23607 5.41557 1.65613
257 1 0.338446 0.109219 4.3989
258 1 3.27322 6.42448 1.54903
259 1 6.06494 2.29263 5.71964
260 1 4.21126 2.58722 1.92683
261 1 0.152099 7.93267 8.41564
262 1 7.74034 2.15066 8.75718
263 1 6.7433 3.89932 5.85728
264 1 6.96377 0.81133 5.39711
265 1 3.65902 1.81533 1.32732
266 1 0.67233 6.94783 0.651227
267 1 5.66585 4.91273 2.03006
268 1 5.10261 0.774125 1.01569
269 1 3.94978 3.67018 0.357282
270 1 7.51433 7.65598 1.72315
271 1 1.64246 7.44834 1.17182
272 1 1.68891 3.18887 1.52694
273 1 8.62457 4.86137 2.9601
274 1 4.20116 2.90676 8.34357
275 1 5.10911 0.406856 9.22731
276 1 8.88066 8.69606 8.78167
277 1 7.36268 4.69479 0.880011
278 1 3.4948 2.85322 5.69067
279 1 0.240397 3.65149 1.02769
280 1 3.04876 1.3419 6.7579
281 1 3.62315 7.29631 2.59569
282 1 1.62327 8.5634 3.86662
283 1 2.8303 6.02162 6.03986
284 1 6.29447 6.52161 5.02754
285 1 0.505151 0.311368 7.4119
286 1 0.691379 2.99317 6.5763
287 1 4.62343 9.24365 6.10325
288 1 9.37438 6.48882 1.90372
289 1 8.77159 1.28456 2.55054
290 1 4.85988 4.61243 7.74189
291 1 9.28123 3.98016 5.58425
292 1 5.38706 2.86004 6.50625
293 1 8.30138 4.45628 5.7926
294 1 0.682403 3.08852 7.70924
295 1 5.30949 3.6557 7.37748
296 1 8.23141 5.1017 8.59617
297 1 0.50869 4.70499 6.71998
298 1 9.18981 3.20931 7.07515
299 1 3.94996 8.72594 6.79837
300 1 2.13664 1.35923 5.34859
301 1 5.582 7.12631 7.31539
302 1 8.81287 6.84554 5.59201
303 1 5.88883 5.46245 5.29992
304 1 1.58803 6.39587 8.71469
305 1 6.34158 8.72186 7.0389
306 1 0.0285948 0.477392 1.74997
307 1 5.21581 2.33239 3.63633
308 1 3.56417 8.64365 8.31911
309 1 0.421519 6.6014 7.56521
310 1 7.74786 6.74397 3.45075
311 1 0.692588 8.88373 1.08864
312 1 3.16949 8.10459 9.23151
313 1 6.05229 7.36667 3.07952
314 1 5.93881 0.78481 0.375359
315 1 5.92799 6.00716 7.69388
316 1 9.07136 4.77168 9.26749
317 1 6.58508 5.59987 3.76854
318 1 7.82526 1.83781 3.05897
319 1 0.919838 1.45027 1.67024
320 1 0.333885 5.81099 4.28215
321 1 8.99528 4.68066 0.92178
322 1 6.52155 0.00191992 4.75329
323 1 9.20624 2.74157 0.285526
324 1 0.688811 5.23175 9.06128
325 1 0.381702 7.5811 9.3313
326 1 2.67167 2.68743 2.97611
327 1 1.55595 3.6764 0.574111
328 1 5.9377 3.75673 6.56929
329 1 9.07961 7.30046 1.35079
330 1 4.9045 4.18824 1.73686
331 1 1.24545 0.963676 4.48681
332 1 3.32277 2.321 6.63889
333 1 0.361712 4.19775 8.75906
334 1 2.59325 5.30033 7.30938
335 1 6.23821 5.33826 1.21948
336 1 7.58901 5.8087 4.252
337 1 7.59592 0.758378 4.49546
338 1 3.54057 0.441559 3.66055
339 1 7.95184 6.27931 0.675314
340 1 4.22357 6.16428 7.22972
341 1 6.53092 6.87695 8.73462
342 1 8.74071 0.99426 4.78235
343 1 2.92726 6.69644 3.29537
344 1 3.48391 5.07793 8.66058
345 1 7.68272 6.66602 7.66672
346 1 8.78138 3.73891 1.51369
347 1 7.86886 6.2044 8.70102
348 1 9.00901 2.8159 3.91306
349 1 2.38783 3.51568 2.37211
350 1 2.17376 3.72286 7.53475
351 1 5.34154 9.29771 1.58856
352 1 4.65736 5.71973 0.48692
353 1 7.50476 7.70134 3.9834
354 1 2.32691 7.23363 8.85119
355 1 7.79665 8.39817 3.31163
356 1 5.92063 0.934613 5.94618
357 1 1.38281 4.73537 5.69853
358 1 4.76487 2.8781 5.50866
359 1 0.494013 6.10784 8.42798
360 1 6.60119 2.37311 0.908293
361 1 0.0702243 0.407749 6.24511
362 1 2.5083 7.92389 6.81444
363 1 8.29266 5.70706 2.03493
364 1 0.993568 1.05448 6.09907
365 1 4.97542 6.39863 7.92314
366 1 1.82398 8.93549 0.928085
367 1 0.434628 3.00312 5.61647
368 1 3.8624 7.44484 5.567
369 1 6.68366 7.24277 2.23753
370 1 1.2304 1.78653 2.59365
371 1 1.684 0.245419 3.92268
372 1 4.01187 3.64405 5.41005
373 1 5.49761 0.743999 7.17319
374 1 6.30336 8.43254 0.597935
375 1 2.65623 8.15154 8.30818
376 1 5.06562 3.5507 0.756822
377 1 9.06264 8.68032 6.00304
378 1 2.53563 5.6664 1.83897
379 1 8.47107 8.16827 4.13833
380 1 9.4213 4.9629 8.2149
381 1 2.8426 1.83625 8.84805
382 1 4.95632 0.790188 6.34653
383 1 2.6829 0.403437 1.8725
384 1 2.10157 6.67717 3.94468
385 1 4.01768 6.91969 9.20939
386 1 2.12278 6.79827 6.95096
387 1 8.60649 2.09608 0.81042
388 1 2.6687 2.92105 1.10976
389 1 4.85855 1.73375 7.00299
390 1 1.02682 5.02539 4.08845
391 1 6.77471 8.03326 3.24833
392 1 1.79468 5.6267 0.977458
393 1 2.45982 0.161566 5.69335
394 1 2.834 7.10717 6.15374
395 1 6.52276 1.71975 9.36612
396 1 2.58141 2.77991 8.51945
397 1 6.15917 5.71139 2.63834
398 1 7.16874 5.67925 0.991541
399 1 7.32897 3.26571 4.22045
400 1 8.99824 5.38729 5.02052
401 1 5.96599 6.34416 9.34769
402 1 7.65208 3.6851 5.36421
403 1 8.02094 2.35891 3.92907
404 1 1.11563 0.467868 1.43006
405 1 3.51955 5.53788 6.69312
406 1 5.8144 1.59275 1.27991
407 1 4.43684 7.9587 2.24089
408 1 0.872879 2.44767 1.80856
409 1 8.14058 7.5752 5.20861
410 1 6.22811 3.37757 0.527268
411 1 3.84878 4.26678 2.1854
412 1 3.13116 5.63976 4.67896
413 1 2.98755 8.77405 6.49577
414 1 6.53935 7.27315 0.537369
415 1 9.03027 9.08638 0.910893
416 1 7.15855 6.70071 1.28527
417 1 9.18817 1.08394 0.419258
418 1 7.06218 2.56489 0.023605
419 1 1.46939 4.16603 4.41736
420 1 6.96434 6.13446 8.23367
421 1 9.36964 6.97968 8.57535
422 1 6.4864 0.924519 4.42546
423 1 6.93765 4.62296 2.71085
424 1 3.5567 3.20002 2.78705
425 1 8.84256 3.73852 2.66199
426 1 8.36132 2.44289 7.09517
427 1 7.15113 1.21411 1.97127
428 1 2.05647 7.66918 3.28909
429 1 4.16582 1.9992 7.96432
430 1 6.20648 9.17443 3.84628
431 1 0.785921 5.4419 7.62519
432 1 0.511204 6.18562 3.34868
433 1 6.98448 3.54881 2.51738
434 1 0.299267 2.51887 4.67271
435 1 6.72887 8.39069 4.29353
436 1 1.84701 8.05849 7.65176
437 1 1.96345 4.43393 2.67501
438 1 1.49567 6.48744 1.90904
439 1 1.39814 3.72372 8.20725
440 1 2.04152 1.02168 1.21505
441 1 5.16544 2.02799 8.19895
442 1 3.59207 7.779 6.5342
443 1 1.13536 4.13993 1.38732
444 1 7.51201 4.15128 6.5536
445 1 1.41502 8.99646 7.41856
446 1 8.35991 1.31467 8.34373
447 1 8.08784 2.76849 0.112009
448 1 1.06294 7.86589 3.02856
449 1 6.18236 0.618471 1.63317
450 1 2.5158 9.04896 9.36223
451 1 9.28162 3.51544 8.08858
452 1 9.28705 7.44182 2.38289
453 1 4.25277 1.81596 0.422165
454 1 1.18826 8.1375 0.575108
455 1 4.2369 7.43209 4.41626
456 1 1.90398 3.99446 6.22759
457 1 6.6539 2.86149 5.10298
458 1 1.86963 7.50951 5.99493
459 1 6.77698 1.33408 6.40484
460 1 3.44043 4.41524 4.86131
461 1 1.71224 1.98704 6.17283
462 1 6.11736 6.77575 1.4871
463 1 1.74832 0.473585 0.382821
464 1 1.13083 8.42859 8.27019
465 1 1.15911 9.15506 6.30832
466 1 2.08744 0.292593 7.79892
467 1 6.25062 1.71813 8.15393
468 1 6.57738 7.15384 5.86642
469 1 1.3916 2.40822 4.29735
470 1 0.536596 9.16187 5.4777
471 1 8.80924 0.217118 9.36678
472 1 0.111677 1.69934 5.36291
473 1 6.91123 2.49841 8.16621
474 1 1.67845 7.9715 5.08254
475 1 8.88077 1.91675 3.45448
476 1 1.78884 2.97569 6.75666
477 1 2.70895 9.38741 4.00707
478 1 3.61437 5.66329 0.821965
479 1 0.498241 4.26794 7.70557
480 1 1.99286 8.07324 9.29331
481 1 4.44681 2.74209 0.648453
482 1 5.38093 3.30271 4.12166
483 1 1.26636 5.89983 4.68316
484 1 1.57528 2.11223 1.17898
485 1 0.353383 8.8504 6.7614
486 1 7.32785 8.06028 0.66107
487 1 8.16343 6.78714 6.55314
488 1 9.33148 6.8598 6.67217
489 1 0.00392513 2.22883 7.33372
490 1 4.264 8.02711 3.58805
491 1 3.57821 8.34751 2.85899
492 1 3.07993 2.48828 1.955
493 1 8.34138 3.42472 6.0537
494 1 5.03545 1.36666 4.17231
495 1 0.79741 8.11499 5.66767
496 1 2.77639 2.05731 5.8171
497 1 1.52819 5.08011 6.88251
498 1 2.35181 2.82381 4.07028
499 1 4.52412 7.41601 8.22923
500 1 7.1963 1.34549 8.47592
501 1 7.7759 4.22162 4.1701
502 1 1.06831 2.22896 7.16952
503 1 6.26998 0.617795 7.80481
504 1 8.13349 7.57791 7.24492
505 1 5.10463 4.95414 4.66677
506 1 7.57368 6.45525 2.30829
507 1 1.85923 0.891008 2.29588
508 1 4.4406 0.330674 1.7148
509 1 6.11271 0.128326 8.99035
510 1 9.13757 6.33399 0.941606
511 1 0.644736 0.54947 3.54242
512 1 8.04809 3.12107 1.83446
513 1 8.49874 2.69832 2.8716
514 1 8.61439 5.36264 7.6219
515 1 4.39942 9.11195 8.99068
516 1 2.75012 7.80798 2.51654
517 1 1.76141 2.65513 7.93211
518 1 3.33133 3.16317 8.93954
519 1 1.72075 5.44245 2.56496
520 1 2.28411 6.39865 0.101278
521 1 4.37031 0.103315 4.97526
522 1 9.18032 9.20315 7.95684
523 1 2.53116 5.79742 3.79132
524 1 1.42682 0.640013 6.99783
525 1 5.18906 1.02375 2.03929
526 1 4.68846 3.49528 9.06657
527 1 2.51728 6.67421 2.21882
528 1 2.70203 1.42552 1.93265
529 1 2.4325 3.0408 5.86736
530 1 8.28876 8.22481 2.38525
531 1 1.99751 3.4052 5.03852
532 1 1.21153 4.29471 3.33191
533 1 3.80092 7.1258 7.42477
534 1 7.53238 9.11811 4.33947
535 1 2.95632 8.84499 4.96431
536 1 6.02444 2.4618 3.07708
537 1 4.66813 1.42714 8.82847
538 1 5.07237 1.97072 5.98529
539 1 8.41429 5.24802 4.08277
540 1 2.49186 5.52813 8.54195
541 1 2.60596 1.96177 1.14723
542 1 3.31917 4.56698 6.72293
543 1 1.3937 8.93424 9.39639
544 1 3.97758 0.181929 7.96867
545 1 6.69197 5.96324 1.87777
546 1 6.18445 7.92083 7.99229
547 1 1.61782 7.52027 4.22585
548 1 0.0402474 8.21814 3.86009
549 1 2.15781 1.81968 7.14953
550 1 0.783588 3.88604 6.06423
551 1 2.92787 5.54612 0.0763791
552 1 0.172456 4.29165 1.864
553 1 4.49759 5.28759 6.44183
554 1 5.86054 4.30608 5.27693
555 1 1.28246 1.52768 3.61015
556 1 1.45956 6.5121 6.14727
557 1 4.36632 8.63533 7.7914
558 1 7.19313 1.69867 3.95883
559 1 4.02565 6.83489 3.45246
560 1 2.54315 4.11479 4.22467
561 1 3.13126 4.1723 3.0242
562 1 1.51169 6.9562 7.71002
563 1 3.60348 7.53766 0.656654
564 1 8.04826 3.38144 3.49555
565 1 2.13703 1.04916 6.31994
566 1 0.602045 4.48277 0.448132
567 1 8.62773 7.72818 6.27367
568 1 9.07212 1.42459 1.43994
569 1 2.42294 4.60319 9.29622
570 1 4.03604 6.19707 4.55322
571 1 9.19069 4.99046 5.90834
572 1 5.59438 6.08592 0.872115
573 1 1.19339 3.74567 2.37425
574 1 4.35404 3.20257 3.81937
575 1 1.76415 2.35152 3.34251
576 1 7.21092 3.07642 6.04734
577 1 4.10076 7.97477 8.98296
578 1 8.7401 9.29888 6.86334
579 1 5.59867 7.3165 2.1653
580 1 2.99455 8.05595 5.73685
581 1 5.22528 9.09969 3.60273
582 1 5.4278 4.66997 1.03677
583 1 8.94082 0.597896 3.55843
584 1 4.55376 5.15576 2.1531
585 1 8.04002 0.846608 9.23623
586 1 3.9244 8.5427 5.17069
587 1 7.87372 0.759468 2.74121
588 1 8.71406 9.1794 4.22013
589 1 1.81441 9.1942 1.98974
590 1 8.35174 4.87902 6.7486
591 1 3.1783 6.76274 4.30959
592 1 8.99382 0.0797845 5.2631
593 1 0.0818102 5.72976 6.90598
594 1 6.3818 3.23336 8.93786
595 1 8.25878 5.36609 1.10412
596 1 7.63841 5.29111 6.02397
597 1 0.52259 1.39732 7.40437
598 1 1.23561 3.98856 7.06276
599 1 1.18471 8.2517 1.67029
600 1 4.73823 8.88293 2.46739
601 1 9.0016 7.37036 4.4894
602 1 7.60302 4.04886 1.79337
603 1 3.05677 3.99429 5.80227
604 1 5.92872 8.48358 8.91754
605 1 4.02362 6.44276 8.31037
606 1 4.30716 3.756 7.76603
607 1 2.92556 -0.00720022 8.38068
608 1 5.06191 8.21842 8.53639
609 1 0.854608 0.774116 2.50957
610 1 7.11054 3.79233 0.0978339
611 1 4.05034 0.756032 9.37651
612 1 1.34732 4.40324 9.13867
613 1 4.56577 0.496069 2.71815
614 1 0.895052 1.91526 8.21507
615 1 3.32576 1.77927 3.89955
616 1 0.56204 2.28693 3.57711
617 1 8.80036 6.31938 4.4762
618 1 6.32278 4.41251 0.663881
619 1 6.48464 4.6632 6.77981
620 1 7.68112 5.42375 0.172751
621 1 7.96315 0.684907 5.41347
622 1 6.1641 8.69841 2.85254
623 1 7.26851 8.1528 5.48425
624 1 8.65807 1.88564 9.17184
625 1 0.804003 5.08991 1.29736
626 1 0.0146439 4.84315 4.09796
627 1 0.695543 8.85994 3.52096
628 1 1.76085 2.03712 8.83576
629 1 4.79938 6.20144 3.70382
630 1 4.4934 7.87503 7.13055
631 1 3.90079 0.892641 0.953574
632 1 1.88314 5.66763 5.72912
633 1 0.14352 8.38601 2.71845
634 1 5.55518 6.37959 5.73027
635 1 2.79071 4.49709 2.05753
636 1 7.86219 8.93966 8.88296
637 1 1.46866 5.45711 8.38641
638 1 4.59834 6.72568 5.29445
639 1 2.15653 1.34637 0.136707
640 1 7.41503 3.20689 8.70528
641 1 3.93291 5.85923 9.16164
642 1 8.48201 3.04611 8.63313
643 1 8.65246 7.56916 3.17941
644 1 3.48875 9.22127 1.51089
645 1 3.8703 3.55947 6.4164
646 1 5.30065 6.05352 4.68034
647 1 5.62993 1.0723 8.5954
648 1 6.9513 4.38205 4.92157
649 1 4.62155 7.13946 6.32703
650 1 3.73693 2.98772 7.37266
651 1 6.13354 5.39863 8.6504
652 1 4.30965 1.07097 5.57633
653 1 7.73124 1.59703 6.7483
654 1 5.64032 7.47371 9.28896
655 1 3.16832 6.58212 0.46898
656 1 7.53414 1.66378 0.296637
657 1 5.10788 8.36226 0.270785
658 1 0.731164 7.23166 1.59858
659 1 1.92726 2.42145 5.2451
660 1 4.51907 5.0605 3.48149
661 1 5.6243 5.30517 0.238777
662 1 6.45393 2.69647 6.60723
663 1 3.25421 8.10417 7.44211
664 1 0.640232 5.35184 5.22272
665 1 2.32864 1.09558 3.60615
666 1 2.38765 8.22271 4.38565
667 1 8.80535 9.12133 2.01062
668 1 5.37998 7.05225 4.62901
669 1 1.20984 3.20187 3.64213
670 1 6.64032 1.93061 4.78942
671 1 0.963086 4.77346 2.35118
672 1 6.6595 5.32719 0.220369
673 1 1.18426 1.26766 0.694769
674 1 2.62243 7.29924 7.77395
675 1 3.01299 0.724443 9.14289
676 1 0.139482 6.32356 9.3863
677 1 7.07456 8.47475 8.33112
678 1 7.80169 1.62133 4.87196
679 1 7.75062 2.74552 5.00091
680 1 0.271432 7.27217 3.48726
681 1 2.91412 8.85427 2.23439
682 1 5.22493 5.4149 2.88338
683 1 3.70442 1.17414 8.44506
684 1 8.77714 7.68172 9.10522
685 1 8.54722 5.87533 6.36009
686 1 2.34222 3.75529 8.63144
687 1 6.14477 4.84262 4.39403
688 1 7.6371 7.48485 2.80017
689 1 1.2941 8.20319 6.64654
690 1 4.33858 1.70464 2.34595
691 1 3.26024 1.47043 0.335663
692 1 7.02116 9.11034 3.2782
693 1 8.37678 0.272135 8.44514
694 1 2.5383 7.34622 0.520901
695 1 6.36873 3.30214 7.4188
696 1 7.85699 4.08357 2.81792
697 1 4.78545 7.86566 5.09108
698 1 4.87645 3.73302 6.13805
699 1 1.39107 6.86101 5.14998
700 1 8.1509 8.83591 7.7726
701 1 3.76654 1.13809 7.41292
702 1 8.80602 2.88008 5.34083
703 1 6.90111 6.08321 5.7845
704 1 8.00981 4.41823 0.150228
705 1 5.8096 3.30073 5.54904
706 1 2.95316 2.38807 4.83026
707 1 6.11135 1.53838 3.70566
708 1 4.64796 8.6181 4.34895
709 1 3.07276 6.37439 7.11174
710 1 0.779018 6.12532 1.2743
711 1 2.69793 1.16496 8.01054
712 1 2.06923 4.84781 3.65167
713 1 0.594174 7.00657 5.82753
714 1 0.516617 3.95398 3.97542
715 1 6.89611 5.51353 4.88651
716 1 4.18301 9.06046 3.33245
717 1 5.13031 5.49083 7.28922
718 1 4.99539 3.73858 4.94222
719 1 8.03418 8.02565 8.44615
720 1 5.90618 6.4119 3.82724
721 1 1.87909 4.81731 1.71387
722 1 8.50491 2.09365 1.95251
723 1 7.78965 4.6804 7.68723
724 1 7.21261 1.01396 7.49343
725 1 5.28092 4.79268 8.70735
726 1 8.27307 8.56852 5.13232
727 1 3.4175 5.75473 7.90084
728 1 7.30207 8.82959 1.50578
729 1 1.60825 7.44856 2.24258
730 1 0.253107 3.31477 2.16972
731 1 9.22945 2.66232 1.40971
732 1 5.87112 0.640114 3.38922
733 1 3.99876 8.43656 0.508858
734 1 0.249268 4.22369 2.93369
735 1 8.10102 9.22024 5.97517
736 1 8.96703 8.37875 7.18874
737 1 0.952964 3.34213 4.75471
738 1 2.27456 8.24414 1.62487
739 1 4.38226 4.31448 6.91204
740 1 8.46721 0.852163 6.44486
741 1 3.33886 0.345632 4.76285
742 1 8.34046 3.39837 4.52275
743 1 0.629124 7.99413 7.40642
744 1 1.1383 1.74835 5.172
745 1 2.59541 3.50829 0.187891
746 1 8.63441 8.86743 3.15746
747 1 0.359959 0.385855 8.86962
748 1 5.51797 4.05387 0.0326078
749 1 7.66009 7.27202 9.09839
750 1 8.4705 1.60013 5.6575
751 1 5.51263 7.07442 8.36156
752 1 4.75144 2.72419 7.39796
753 1 7.26064 7.42929 8.11538
754 1 4.78066 0.0807704 7.24601
755 1 1.39273 3.12974 5.807
756 1 3.83761 5.80269 5.61799
757 1 0.833057 2.23009 9.33046
758 1 3.75202 6.64941 6.35134
759 1 4.38207 4.25412 4.25333
760 1 3.60063 8.17341 1.75693
761 1 9.31902 1.41999 6.38398
762 1 5.03712 6.82237 1.31317
763 1 8.49418 4.07185 8.67151
764 1 2.43054 4.01065 1.15868
765 1 9.41468 8.23251 1.61633
766 1 7.16441 2.04836 5.652
767 1 5.56283 2.5918 4.89885
768 1 3.5941 4.2909 1.15245
769 1 9.25129 7.77261 5.42148
770 1 3.05034 6.4244 8.82177
771 1 6.75232 0.285498 2.39204
772 1 4.12733 1.23236 3.29665
773 1 4.52337 8.16574 5.97538
774 1 3.16887 0.951886 5.87649
775 1 9.2005 5.77516 2.71264
776 1 3.81693 2.11206 8.89772
777 1 6.60783 7.91343 1.44608
778 1 8.57346 6.74289 9.31364
779 1 3.58046 0.145101 2.65567
780 1 7.1991 5.61978 2.7128
781 1 7.91102 1.41356 1.27777
782 1 8.64882 2.21088 8.15215
783 1 0.19416 7.80797 6.4715
784 1 3.1638 1.13336 3.02144
785 1 1.77996 6.62196 2.94393
786 1 2.65507 4.57713 8.10762
787 1 0.573262 0.304054 0.521026
788 1 7.33445 9.15908 5.34047
789 1 9.24326 0.865455 8.0653
790 1 5.97385 3.91909 8.19884
791 1 6.08204 4.07503 2.55219
792 1 8.13664 5.79147 3.15394
793 1 7.09694 9.27607 7.49835
794 1 8.65965 5.64797 0.132035
795 1 6.90888 5.23454 7.68347
796 1 6.25829 3.80193 4.38953
797 1 7.93476 0.200478 3.58745
798 1 3.41158 2.62581 0.394751
799 1 6.11066 1.08055 2.51591
800 1 6.7481 7.85737 9.01782
801 2 2.474 2.40894 6.60719
802 2 8.82908 8.24104 8.07386
803 2 4.08834 2.86815 9.27846
804 2 8.31092 1.3561 0.497762
805 2 6.1699 7.98523 2.39917
806 2 6.48747 4.69607 8.256
807 2 2.33525 1.96888 8.05527
808 2 0.618505 7.83026 2.22512
809 2 2.93686 4.34521 0.507049
810 2 7.25692 2.29352 6.49068
811 2 9.36352 5.58139 8.92391
812 2 1.9145 4.01624 1.87681
813 2 0.852196 3.27238 1.61613
814 2 1.65904 1.9667 0.407865
815 2 5.52443 7.0495 6.44985
816 2 0.734444 1.02289 8.21438
817 2 3.51693 8.93875 7.5496
818 2 2.21551 6.73561 5.62275
819 2 9.35466 9.2097 3.68542
820 2 0.936281 4.69201 8.36959
821 2 4.539 0.559227 8.57541
822 2 5.63543 9.36791 7.49661
823 2 5.25834 7.7485 7.82029
824 2 0.151017 6.69713 4.14404
825 2 6.07373 5.42939 7.01363
826 2 3.67976 2.66679 1.2497
827 2 7.24752 6.4269 4.90077
828 2 7.66448 1.35174 5.86495
829 2 6.45877 6.08919 0.682328
830 2 7.70286 5.69536 8.03544
831 2 8.55028 0.224379 2.69732
832 2 4.94139 0.811791 4.97241
833 2 0.947865 8.00114 3.8162
834 2 6.60526 5.14748 2.07296
835 2 7.47061 4.9214 6.8065
836 2 0.196288 1.48319 2.1879
837 2 3.91798 8.8467 2.18368
838 2 1.15951 0.0934246 4.68298
839 2 9.29626 3.37274 6.20698
840 2 8.58724 3.02017 7.67535
841 2 1.11334 2.76617 8.55766
842 2 5.06856 3.97454 8.30659
843 2 3.01193 0.265 6.43951
844 2 6.98615 7.23363 3.45366
845 2 4.72661 8.77553 5.33423
846 2 7.26803 4.68601 9.36326
847 2 1.7316 7.59614 6.95779
848 2 8.36112 7.32015 3.94958
849 2 0.574472 4.76092 5.85092
850 2 3.96938 3.73393 8.68522
851 2 4.0184 2.06577 7.12421
852 2 8.83585 3.01592 2.13442
853 2 1.45303 5.63727 1.78268
854 2 7.25775 6.03071 3.51895
855 2 5.22841 5.45623 8.11493
856 2 0.663775 9.04243 8.65267
857 2 7.70811 3.16921 2.69132
858 2 4.44687 4.18107 0.888657
859 2 5.81428 4.58055 6.12211
860 2 4.7567 1.0148 0.280931
861 2 5.85663 6.31255 8.51433
862 2 3.83785 7.8753 8.01619
863 2 7.48843 4.49158 5.71005
864 2 0.00242521 6.64392 2.79524
865 2 1.36634 8.78511 5.46023
866 2 6.82301 3.52922 8.18909
867 2 6.78666 3.66641 6.68973
868 2 8.36368 5.29188 5.64712
869 2 4.50172 0.849358 7.05384
870 2 2.79787 4.90083 4.33928
871 2 6.42812 1.49349 5.47517
872 2 3.67358 0.286634 8.77971
873 2 8.23761 6.17161 3.86956
874 2 8.09942 0.0551281 4.81576
875 2 6.39287 1.21236 7.16223
876 2 1.27039 7.13396 3.35577
877 2 1.32893 3.91637 5.37112
878 2 2.03905 8.56689 6.86885
879 2 5.57536 1.59835 7.54046
880 2 2.36698 8.3935 5.2731
881 2 7.20031 2.40998 4.44996
882 2 3.14705 7.17864 9.23081
883 2 3.29233 9.11914 3.3237
884 2 7.03581 0.271697 3.96319
885 2 1.77201 2.84281 0.653414
886 2 4.80878 2.64829 4.47045
887 2 0.677201 6.37981 6.5082
888 2 3.74002 8.53786 5.99108
889 2 0.413096 3.08836 3.99256
890 2 7.42448 6.96628 0.507126
891 2 2.54135 9.0281 1.36566
892 2 1.09383 8.19888 9.05103
893 2 1.12353 0.344854 9.16817
894 2 7.80225 4.95138 2.6039
895 2 1.10563 8.67743 2.67253
896 2 7.87675 2.96133 6.60832
897 2 6.44331 1.00173 8.64848
898 2 7.69043 2.76049 8.12214
899 2 6.04597 4.19611 7.36554
900 2 3.06188 7.21408 7.05142
901 2 8.8483 0.920982 8.95846
902 2 1.42182 6.62077 0.898604
903 2 4.3988 6.13886 6.19287
904 2 8.14572 9.21926 1.36635
905 2 4.59891 6.97542 7.21383
906 2 9.13436 4.88049 7.09682
907 2 2.38344 0.972974 7.17435
908 2 4.40785 7.47742 2.99567
909 2 4.12071 5.28413 7.31782
910 2 3.17713 6.6339 7.94314
911 2 4.9146 7.72995 1.52164
912 2 6.02873 2.88081 1.41673
913 2 9.09996 0.906657 5.70403
914 2 6.9472 3.88811 1.01793
915 2 4.71192 6.66624 4.40691
916 2 3.4743 1.75819 2.18455
917 2 7.62123 6.1237 6.25902
918 2 6.71639 2.75014 2.63106
919 2 0.037118 1.8021 8.02679
920 2 6.79451 6.03992 7.36761
921 2 2.35881 6.02957 2.90687
922 2 4.96901 8.76915 6.69954
923 2 5.60983 1.94519 4.33149
924 2 3.60974 3.92006 7.25525
925 2 0.502238 7.76288 0.958504
926 2 7.07416 4.9974 4.22594
927 2 7.57733 0.854444 0.62362
928 2 7.99206 8.3682 5.9643
929 2 0.800622 6.83581 9.03754
930 2 7.22751 3.07302 0.657845
931 2 4.53572 5.25736 8.91823
932 2 1.90623 5.50196 7.6607
933 2 2.169 1.2933 8.69285
934 2 5.04412 7.78181 4.25413
935 2 7.71779 5.99936 1.55032
936 2 7.93187 3.60954 9.29993
937 2 5.11984 5.44927 1.28518
938 2 9.21946 3.40117 9.05573
939 2 4.83119 3.85751 3.56714
940 2 2.77313 5.89468 0.872962
941 2 3.21915 3.51246 0.947146
942 2 2.07003 5.80395 6.54843
943 2 5.51036 3.20014 9.1689
944 2 8.17744 4.31756 1.12049
945 2 0.108156 4.99992 2.37039
946 2 1.62885 0.843307 3.07677
947 2 5.29155 8.98634 8.97609
948 2 1.27169 5.11536 3.21361
949 2 3.7973 1.90615 4.66221
950 2 3.03922 0.987755 4.08651
951 2 0.836825 1.75616 4.37563
952 2 4.56937 3.44173 6.9165
953 2 1.90044 3.02802 2.83275
954 2 4.52011 4.44259 5.166
955 2 7.58557 8.23823 4.7088
956 2 1.14594 2.66359 5.16942
957 2 4.70543 6.648 8.78084
958 2 2.9865 3.43219 3.41579
959 2 3.89626 6.50253 2.23279
960 2 1.17597 6.12252 7.93917
961 2 0.428514 1.03885 1.10691
962 2 3.40717 2.54098 8.18003
963 2 0.919298 6.14567 5.51776
964 2 5.32806 3.68492 2.31692
965 2 5.6863 6.95526 0.743642
966 2 1.73568 3.37769 4.28796
967 2 1.37793 1.47077 6.77726
968 2 6.11804 0.692796 5.17036
969 2 4.79818 7.55376 9.23798
970 2 6.19759 5.77398 4.46481
971 2 5.58072 8.60573 1.12584
972 2 8.56849 1.79557 6.48055
973 2 6.08611 2.87107 8.20004
974 2 8.50472 3.71405 5.31251
975 2 1.8906 7.85557 8.42736
976 2 4.72687 5.60581 4.2047
977 2 1.99226 4.79648 8.62535
978 2 2.11465 8.10714 0.739098
979 2 1.30155 4.94365 4.89226
980 2 7.61549 8.15567 9.2294
981 2 1.76108 1.65623 1.88042
982 2 9.10928 5.71934 3.69589
983 2 1.09528 5.29065 0.491641
984 2 7.8811 0.0334976 6.915
985 2 7.22669 7.37485 7.26545
986 2 0.562999 1.03969 0.115226
987 2 6.36437 8.64267 5.1297
988 2 7.2189 3.56014 3.36324
989 2 2.54431 2.04333 3.63404
990 2 9.22624 7.04328 0.48035
991 2 6.07085 6.49109 2.28943
992 2 8.41144 7.41549 2.02224
993 2 4.37152 1.2809 1.51884
994 2 8.53923 2.91252 1.01544
995 2 0.426696 3.7129 6.93986
996 2 2.21878 4.47395 7.01879
997 2 0.538054 8.88473 7.58
998 2 2.6886 7.4077 4.23354
999 2 9.13046 0.622178 7.06111