#bin. KALJ data file T=0.5

1000 atoms
2 atom types

0 9.4 xlo xhi
0 9.4 ylo yhi
0 9.4 zlo zhi

Masses

1 1.0
2 1.0

Atoms

1 1 -0.0552846 4.83714 0.467001
2 1 6.85122 6.94865 0.676667
3 1 3.27735 2.524 2.86349
4 1 6.23887 7.92216 8.65906
5 1 1.29441 8.70949 3.74639
6 1 6.77983 7.76591 7.07093
7 1 2.38397 0.661016 1.83094
8 1 4.90215 0.860617 7.07025
9 1 2.34174 5.29667 5.67556
10 1 2.23577 6.66429 9.35895
11 1 7.03043 9.0213 5.11847
12 1 9.06862 0.235925 0.428421
13 1 1.77952 2.62951 1.14258
14 1 4.2771 4.5132 4.35749
15 1 7.7203 1.76541 0.701028
16 1 0.9807 1.11197 6.29942
17 1 8.75657 2.93002 1.2681
18 1 5.45133 6.52507 7.98129
19 1 4.32948 4.75111 8.54845
20 1 8.08667 5.69921 6.22679
21 1 8.31306 9.34021 2.9602
22 1 3.98192 4.33148 7.61252
23 1 5.19454 1.73336 8.62725
24 1 2.87748 5.30359 6.68897
25 1 6.64076 1.27636 0.617052
26 1 0.334463 4.03924 3.66019
27 1 0.0557316 7.38622 1.70103
28 1 3.85563 2.04268 2.00491
29 1 0.818877 5.54859 6.47428
30 1 9.2381 3.74556 6.01784
31 1 2.55864 2.41951 2.12322
32 1 7.45365 5.95908 5.36706
33 1 3.26133 8.22037 8.25361
34 1 5.2709 0.300499 3.28176
35 1 0.0245336 1.6131 1.56818
36 1 3.60214 9.14032 2.70472
37 1 5.76559 9.07478 9.02491
38 1 0.909091 7.9404 3.20801
39 1 0.577081 7.59793 8.22688
40 1 6.95902 1.91458 9.30944
41 1 7.37382 7.20353 5.52671
42 1 1.21911 1.22445 5.24168
43 1 1.32487 9.29997 8.43449
44 1 1.3888 2.83841 5.74342
45 1 5.93994 3.26187 4.04542
46 1 3.06 3.34012 3.67039
47 1 1.43695 5.90046 0.809742
48 1 6.19164 5.45086 2.4759
49 1 2.62927 3.80996 6.21228
50 1 1.48216 7.64774 4.01877
51 1 1.06524 5.90162 2.78253
52 1 3.32856 0.64513 2.15939
53 1 3.02014 1.70847 3.67546
54 1 6.37307 6.74994 8.55412
55 1 1.92274 6.00035 8.25918
56 1 1.4569 4.60491 8.74303
57 1 8.7774 6.33179 7.89735
58 1 7.29977 8.1064 8.84533
59 1 7.73453 8.0503 7.48924
60 1 2.74024 7.36289 3.58989
61 1 2.89631 1.51958 2.56491
62 1 0.437616 0.797534 1.02662
63 1 7.35718 0.501434 6.80442
64 1 8.00643 7.16775 0.589753
65 1 0.49718 1.86137 4.54277
66 1 2.56026 6.27301 5.35041
67 1 3.04939 9.14365 1.68279
68 1 4.85362 6.42815 0.093111
69 1 5.48578 3.97207 3.08201
70 1 7.18395 2.88379 3.00223
71 1 7.00132 3.04469 -0.00253502
72 1 5.9422 8.64757 4.53295
73 1 3.21351 6.4933 6.33183
74 1 5.67152 7.59141 4.11256
75 1 7.38763 1.88091 8.29914
76 1 6.77832 2.38605 0.85644
77 1 2.02815 3.05926 3.72216
78 1 3.30425 7.60454 2.08564
79 1 6.86963 0.974394 7.64741
80 1 8.44035 7.07717 8.94945
81 1 3.70173 7.178 5.67925
82 1 6.07755 1.28612 4.2612
83 1 3.69548 5.52045 4.35416
84 1 1.05712 7.12851 6.25331
85 1 2.09938 1.91328 0.427766
86 1 3.45329 4.22224 9.32727
87 1 5.84933 1.9907 4.92345
88 1 8.94524 2.65662 8.09229
89 1 1.31127 3.71559 3.10669
90 1 7.65963 3.62947 2.35631
91 1 8.40888 5.58554 5.16168
92 1 7.21326 6.12013 8.7028
93 1 2.82321 8.8958 5.01083
94 1 1.50562 8.71418 2.70609
95 1 2.19959 4.14576 2.28761
96 1 3.32164 0.435672 9.23435
97 1 1.90478 1.33842 2.51373
98 1 5.58393 1.32866 3.31888
99 1 1.78564 0.316079 3.39072
100 1 6.52442 7.00542 3.82839
101 1 4.54031 5.76494 3.70835
102 1 6.67406 0.343957 4.45513
103 1 0.550915 9.15863 0.76674
104 1 4.00605 8.70771 9.03559
105 1 7.12283 8.21193 5.83244
106 1 8.22409 1.8205 7.60079
107 1 7.97917 7.81422 2.08646
108 1 0.670342 2.05943 6.66873
109 1 6.62001 3.87997 3.63
110 1 1.06105 6.39516 7.01817
111 1 3.93361 6.57085 9.03797
112 1 5.9875 1.30097 9.21783
113 1 4.88012 3.9734 7.06087
114 1 2.52761 0.60955 2.86542
115 1 4.9683 9.00281 4.78129
116 1 5.60765 4.44936 7.63874
117 1 9.30073 6.45694 1.21486
118 1 7.91104 2.89765 7.48077
119 1 6.25039 7.44625 4.96331
120 1 2.21525 5.11024 0.956978
121 1 6.02024 7.67429 7.64428
122 1 1.85184 8.41177 8.81637
123 1 1.27064 8.32015 7.88672
124 1 6.03834 0.125908 5.37746
125 1 6.60371 4.90744 6.19766
126 1 0.859733 4.26135 2.14757
127 1 2.06007 9.28538 4.40148
128 1 4.2804 7.6821 7.25989
129 1 4.0202 3.77672 0.857157
130 1 3.92999 8.03393 6.25948
131 1 8.96046 1.38456 4.38744
132 1 7.25991 3.17344 4.08361
133 1 6.00442 7.66242 2.30403
134 1 3.65567 7.4152 4.67459
135 1 4.89163 1.05773 4.17749
136 1 1.73233 2.37384 7.82273
137 1 2.87296 5.05047 0.141426
138 1 6.95629 3.53359 7.57315
139 1 0.128537 5.42238 4.85617
140 1 3.02804 4.91285 4.96741
141 1 4.72984 8.84975 6.60597
142 1 1.12712 2.36009 0.330632
143 1 3.62603 5.84974 0.46064
144 1 1.64802 3.71532 6.29597
145 1 6.92843 5.15474 8.48235
146 1 7.73649 1.65671 2.03207
147 1 4.0757 8.95413 5.61379
148 1 6.59375 4.40505 7.11606
149 1 7.71216 5.64412 2.66567
150 1 5.26149 9.38011 1.18883
151 1 1.29454 8.56992 4.80778
152 1 5.54181 7.2229 8.93737
153 1 1.2606 6.3621 9.07765
154 1 6.35506 5.11047 0.590336
155 1 6.80776 6.18324 2.17917
156 1 4.51441 8.87121 3.02627
157 1 6.42174 3.53717 5.84123
158 1 5.00168 5.28171 9.23222
159 1 0.99282 7.4511 4.96665
160 1 5.77449 8.04528 6.5571
161 1 0.675217 4.0765 0.0568215
162 1 0.451866 0.850242 9.35985
163 1 0.337757 4.69729 6.09873
164 1 5.39876 8.43621 2.71088
165 1 8.18168 0.333938 1.09398
166 1 5.48651 6.54283 4.09159
167 1 4.08155 6.83044 1.95911
168 1 6.92592 5.34642 7.52447
169 1 2.44734 5.10565 8.6053
170 1 1.70719 1.80625 6.00999
171 1 9.11953 4.35359 2.83911
172 1 2.42997 4.13492 8.89086
173 1 7.6483 6.21739 0.227446
174 1 9.25567 3.56457 5.02958
175 1 6.72476 9.25351 2.19676
176 1 1.35025 1.58832 7.24449
177 1 4.99692 9.22873 8.22393
178 1 8.84374 4.75053 5.44782
179 1 5.34226 8.70396 3.72521
180 1 0.397507 9.1365 4.34932
181 1 6.27649 7.90078 1.17375
182 1 4.07833 2.03875 5.87073
183 1 1.93243 6.88287 7.6018
184 1 4.09225 1.16325 7.79506
185 1 2.70771 6.70704 8.22759
186 1 2.20177 4.2873 5.37985
187 1 3.56304 2.50712 8.62688
188 1 3.75562 5.83599 1.55478
189 1 2.32905 4.0003 4.41183
190 1 6.77881 3.96154 1.91065
191 1 4.59414 5.95127 8.51746
192 1 1.16996 5.49467 7.57388
193 1 3.32301 5.19741 7.75639
194 1 2.82519 3.18031 8.73959
195 1 8.72001 9.17681 3.96253
196 1 3.27446 0.525052 0.925487
197 1 1.52627 6.63897 5.4285
198 1 2.65024 4.09863 0.722327
199 1 2.03378 6.65664 6.59899
200 1 3.5437 8.96052 6.57134
201 1 1.7632 7.9873 1.15325
202 1 7.90621 1.50426 4.10296
203 1 3.93484 6.09712 7.07019
204 1 4.15975 2.87445 6.59578
205 1 6.39486 7.46989 6.02121
206 1 0.591299 2.1235 5.58889
207 1 7.68867 2.94108 0.872337
208 1 8.22404 3.97316 6.03346
209 1 5.00828 1.79107 7.64666
210 1 1.13938 1.70054 8.93397
211 1 0.0566085 2.60734 3.13162
212 1 4.93135 7.42211 2.54001
213 1 2.25304 2.19887 4.20592
214 1 7.86001 2.50484 9.15693
215 1 2.85057 6.75217 4.39334
216 1 4.51038 5.61377 6.22853
217 1 7.40565 0.603465 0.434824
218 1 5.41813 5.06013 1.43947
219 1 5.54412 5.79809 0.560305
220 1 8.69905 1.27865 0.536709
221 1 8.00777 0.122326 5.09801
222 1 6.37023 4.48217 2.78788
223 1 3.57487 8.9563 0.590907
224 1 7.2156 7.77477 2.84181
225 1 6.16104 5.85643 6.14277
226 1 0.777209 7.05839 2.53741
227 1 4.99455 7.27317 0.669108
228 1 6.51673 4.22372 8.27618
229 1 0.55224 7.92398 0.876315
230 1 3.79071 2.15349 0.919296
231 1 0.978235 5.48461 8.57005
232 1 6.03172 5.17239 8.92542
233 1 7.83725 6.83828 8.12885
234 1 3.52758 7.70039 9.29693
235 1 6.90296 6.82104 6.5377
236 1 0.333263 8.62664 8.24139
237 1 7.29315 0.879904 1.46911
238 1 8.22869 8.01524 9.34005
239 1 4.24013 8.07023 5.23381
240 1 4.81537 2.7458 5.75126
241 1 2.42984 5.10219 2.0811
242 1 8.45806 3.135 5.46687
243 1 2.02358 8.91448 1.67717
244 1 5.0506 8.33173 8.76704
245 1 5.75372 4.08825 1.91848
246 1 0.962067 6.98703 1.0638
247 1 5.34733 2.91252 3.06818
248 1 5.2155 7.97351 4.888
249 1 3.24658 4.37951 8.33367
250 1 4.697 6.41827 5.61493
251 1 7.26413 1.93906 7.13498
252 1 1.42603 2.25221 4.89253
253 1 0.591703 6.25491 5.6065
254 1 6.78572 1.74931 1.75384
255 1 5.30481 3.38202 8.97238
256 1 2.95598 3.50828 7.79988
257 1 4.63378 1.3358 0.462624
258 1 1.99844 1.37382 3.57035
259 1 2.98706 6.0437 8.94694
260 1 3.14644 3.23687 6.84574
261 1 7.60601 3.87921 0.488349
262 1 4.76682 8.68982 1.96709
263 1 4.7833 4.61205 3.46148
264 1 6.42933 5.35678 5.33838
265 1 5.53393 4.28244 4.16841
266 1 6.58971 7.0121 2.7251
267 1 4.79688 1.65839 2.41736
268 1 5.72769 0.818416 6.25087
269 1 4.26924 4.63612 1.31968
270 1 7.79434 8.48476 3.61013
271 1 6.43365 6.18545 0.0446366
272 1 8.60233 0.771652 3.72475
273 1 8.71246 1.70465 2.55837
274 1 7.06018 7.47475 8.10675
275 1 3.77172 7.51775 3.53577
276 1 8.28807 6.3542 3.17179
277 1 3.49746 0.844726 3.08884
278 1 2.75102 6.21109 7.27269
279 1 2.55493 8.93032 3.57993
280 1 3.89113 1.82742 3.16074
281 1 6.2501 8.02447 3.35086
282 1 8.52722 8.28257 2.84568
283 1 9.31366 7.55451 3.42874
284 1 7.24234 7.69761 3.89249
285 1 6.16242 9.14106 3.26513
286 1 0.333373 1.34907 8.37334
287 1 3.13308 7.96613 5.35819
288 1 4.01129 0.240747 8.3294
289 1 7.36944 1.33925 6.29395
290 1 2.26427 7.77764 8.00385
291 1 4.51119 3.96226 9.21507
292 1 9.15824 8.28067 5.79829
293 1 2.28851 1.51141 5.05003
294 1 8.84176 5.95416 6.82178
295 1 8.45797 5.1187 7.32362
296 1 5.87388 6.85324 0.464478
297 1 4.92616 3.48742 2.24788
298 1 4.25833 6.92438 6.51096
299 1 5.66038 7.08967 3.15466
300 1 8.02263 2.75514 2.03032
301 1 2.15795 0.904935 7.35067
302 1 8.22135 9.29187 6.54642
303 1 1.52629 9.25149 0.066062
304 1 7.3495 4.62694 2.67242
305 1 3.58514 1.34184 0.246126
306 1 6.81304 8.80112 4.01709
307 1 6.11585 8.84283 0.687251
308 1 9.10796 0.353965 7.08929
309 1 -0.0287318 5.54003 9.07707
310 1 5.51347 5.13762 5.94835
311 1 7.49577 6.64629 1.45055
312 1 3.2827 4.91458 1.10909
313 1 6.17008 0.798501 1.60523
314 1 7.61321 3.78165 3.35823
315 1 3.38611 5.63978 5.76647
316 1 1.92951 4.98511 4.67561
317 1 9.0977 1.90566 7.03309
318 1 0.202493 6.54463 6.48238
319 1 5.71983 9.02235 6.3776
320 1 4.93903 4.59997 5.2031
321 1 0.616799 1.88054 2.47456
322 1 1.14171 6.43908 3.6272
323 1 3.32935 6.77592 2.88336
324 1 2.94036 4.33286 7.15245
325 1 4.37624 4.2874 2.51673
326 1 8.25457 2.18215 5.5194
327 1 5.02811 0.832067 8.15444
328 1 6.25496 3.88525 9.34593
329 1 8.68434 1.8437 8.66095
330 1 4.39847 0.0493397 7.34436
331 1 4.15243 1.86552 4.19806
332 1 3.61909 1.141 5.92101
333 1 8.35645 4.62009 2.23549
334 1 0.270323 7.77443 6.6291
335 1 7.87323 0.872869 2.92442
336 1 0.877114 6.1346 4.62671
337 1 5.88726 5.38447 7.11452
338 1 0.1298 0.265151 8.21155
339 1 0.695703 4.59305 7.76109
340 1 2.67403 0.546241 3.88104
341 1 8.79171 8.88567 7.80881
342 1 7.58589 5.66858 1.64374
343 1 4.60952 5.34785 1.97519
344 1 0.576452 0.168128 6.44504
345 1 5.6131 6.82396 6.03071
346 1 7.47202 5.2195 0.635951
347 1 5.7125 4.28268 6.59676
348 1 8.02073 3.92907 7.11474
349 1 7.71888 4.11793 8.78966
350 1 3.39312 2.7653 5.89267
351 1 7.59894 6.82953 2.4855
352 1 9.36612 8.69621 6.83552
353 1 9.08679 2.52952 4.89324
354 1 0.214855 6.87559 7.46898
355 1 1.06915 6.29202 1.85579
356 1 4.74785 1.10163 5.9748
357 1 1.08867 2.64584 8.56406
358 1 4.64025 7.26908 4.23618
359 1 5.10905 7.12968 7.04458
360 1 3.38416 4.11364 1.79111
361 1 4.82669 1.78443 5.07728
362 1 4.12885 1.15634 1.53318
363 1 6.74142 3.52589 0.935407
364 1 2.27332 5.29346 7.52458
365 1 0.731952 2.3981 1.331
366 1 5.86625 8.61316 1.82945
367 1 1.71194 4.22001 1.39459
368 1 3.34766 1.69139 4.96402
369 1 0.493239 6.1858 0.415648
370 1 8.67841 8.92844 8.80736
371 1 3.31101 5.92995 3.42212
372 1 4.59209 2.72197 8.45109
373 1 5.44757 7.22294 1.55341
374 1 8.46607 7.55055 5.67958
375 1 4.96195 4.96064 7.01327
376 1 2.43755 8.95808 8.03801
377 1 2.62521 7.29745 6.93664
378 1 5.6792 0.983738 0.712252
379 1 6.10378 2.62044 6.065
380 1 7.57266 4.85481 6.69686
381 1 4.08201 0.0833631 1.40014
382 1 5.66227 6.02689 5.14874
383 1 9.11406 7.89788 7.62575
384 1 3.68883 9.18665 3.67857
385 1 4.57584 7.44878 9.06615
386 1 9.18174 5.62108 5.89598
387 1 0.128441 1.59116 3.35934
388 1 6.39714 0.3683 0.0826729
389 1 7.10723 2.37288 5.53582
390 1 2.61396 5.07527 3.13593
391 1 5.98269 0.569596 8.40718
392 1 3.62579 3.07439 0.17297
393 1 0.523882 5.49925 1.18246
394 1 8.82216 5.37025 1.54973
395 1 0.404348 9.15381 9.1077
396 1 2.12379 2.22961 3.07564
397 1 6.01929 4.19765 0.925068
398 1 9.17997 4.30722 1.7106
399 1 7.11962 2.13658 3.76903
400 1 3.04877 5.90285 2.37637
401 1 4.04141 2.20211 7.62703
402 1 1.68588 4.34912 0.343086
403 1 4.02007 3.93441 3.44838
404 1 0.942355 6.51518 8.05519
405 1 3.90845 3.93098 6.59054
406 1 7.21472 8.94941 0.2149
407 1 6.37806 0.297178 6.92389
408 1 2.01909 2.42409 8.91179
409 1 3.29152 2.51712 4.31018
410 1 0.53509 2.13942 7.70099
411 1 4.78805 7.92549 3.43191
412 1 1.13963 0.255041 4.78964
413 1 1.67814 7.17486 1.82356
414 1 7.038 0.876137 8.73134
415 1 8.80578 0.819292 8.9318
416 1 0.244709 1.71369 0.538616
417 1 9.21099 4.42389 4.52352
418 1 2.9092 1.89282 5.9958
419 1 6.9908 2.82134 1.89272
420 1 0.903368 4.81911 5.09868
421 1 6.12831 5.66933 4.36194
422 1 8.57654 3.22067 6.70481
423 1 9.30774 3.16505 4.04474
424 1 4.13082 8.05836 2.50599
425 1 2.0838 3.55432 7.21345
426 1 4.12182 1.53565 6.82344
427 1 9.07734 4.08273 7.12312
428 1 2.49963 7.23022 5.85545
429 1 5.53759 0.154954 2.23168
430 1 6.37447 4.68557 4.47906
431 1 8.12406 2.08156 6.58011
432 1 5.14096 0.593054 9.14999
433 1 2.18304 8.28952 4.41684
434 1 7.27481 7.03862 9.10872
435 1 1.60732 3.28917 9.3279
436 1 0.0816703 6.28388 2.24708
437 1 6.46108 6.98353 1.65659
438 1 2.25587 8.00624 2.28278
439 1 2.0633 8.1152 3.20313
440 1 5.81783 6.39531 2.40831
441 1 5.32436 2.52037 2.06403
442 1 6.5789 3.68697 4.6819
443 1 2.06543 6.21148 1.67429
444 1 8.7527 5.84998 4.16238
445 1 5.31663 2.15602 0.451881
446 1 8.0997 0.708093 5.93751
447 1 1.63933 4.94481 2.82476
448 1 0.884358 8.23069 9.33074
449 1 4.3218 5.37375 7.72962
450 1 3.835 4.96866 6.83661
451 1 5.03525 7.49133 8.08016
452 1 4.25917 8.40527 8.04053
453 1 2.57997 0.942932 6.37094
454 1 3.49173 9.04093 7.68244
455 1 8.36069 4.92821 4.37552
456 1 8.2038 3.96346 4.97524
457 1 6.78802 9.19006 8.57768
458 1 2.37095 6.36917 3.46567
459 1 8.51738 3.25751 0.273859
460 1 6.64354 2.55809 7.80468
461 1 8.20366 3.7893 1.39405
462 1 3.61747 7.44762 1.10066
463 1 4.25669 2.23185 9.28788
464 1 0.0650175 3.7483 7.98745
465 1 1.07827 7.53371 7.22525
466 1 3.06165 1.49124 7.5348
467 1 7.01508 1.00276 3.75699
468 1 9.12854 7.53787 4.83897
469 1 7.17059 0.686047 5.45764
470 1 0.12544 2.89828 7.18997
471 1 5.10852 8.54201 5.74811
472 1 8.30759 3.04892 4.36459
473 1 4.72194 3.02193 0.511657
474 1 8.53245 0.962773 1.85342
475 1 2.76784 2.42842 7.83743
476 1 0.344139 1.14252 7.27836
477 1 3.15118 1.5622 1.53761
478 1 4.29099 8.09363 0.588694
479 1 1.11305 2.74097 2.95088
480 1 6.27739 3.2168 8.53518
481 1 3.01025 6.71488 1.52475
482 1 1.38737 5.6818 5.43566
483 1 4.68194 6.23667 4.59361
484 1 5.00227 0.153906 5.69095
485 1 5.3314 5.36488 8.10585
486 1 8.79356 2.30755 3.83758
487 1 8.89637 5.53781 2.71895
488 1 7.73177 6.75667 4.01005
489 1 1.30753 1.24093 0.513983
490 1 4.27295 8.44903 4.2142
491 1 7.76465 0.219181 4.04694
492 1 8.58008 6.62645 6.04621
493 1 6.26609 1.62 8.30973
494 1 6.99633 1.48878 4.71944
495 1 4.91171 3.52438 3.74942
496 1 2.34738 1.9611 6.97057
497 1 2.31199 0.782088 0.801911
498 1 8.22805 8.96605 0.401366
499 1 4.09525 2.88823 3.56661
500 1 5.61268 6.13368 8.90781
501 1 4.83802 7.49935 5.85561
502 1 0.358728 3.48475 2.67075
503 1 4.29081 5.48509 5.22362
504 1 5.14042 1.04498 1.71259
505 1 8.46456 5.41575 0.319301
506 1 1.98348 8.27663 5.47898
507 1 7.89215 0.224834 8.97671
508 1 2.8221 8.24751 1.40336
509 1 8.90133 1.0653 7.83928
510 1 0.399992 0.70376 5.49016
511 1 7.25685 5.22458 4.68202
512 1 0.101727 6.35451 3.30861
513 1 2.18427 7.31723 4.82996
514 1 8.11589 6.66432 5.07087
515 1 6.18692 6.02513 3.3555
516 1 4.61702 6.80606 3.34619
517 1 7.89741 1.27289 9.24577
518 1 3.34345 2.30456 6.81305
519 1 0.809657 3.92429 4.54012
520 1 3.95989 3.27437 7.63669
521 1 7.88121 8.70554 4.59996
522 1 5.24309 3.72404 5.74807
523 1 2.27751 4.01352 3.37844
524 1 8.6561 5.21878 8.42834
525 1 8.37654 3.33264 8.52195
526 1 4.11133 4.88437 0.295662
527 1 5.29841 7.02235 4.99596
528 1 3.89582 4.39646 5.24487
529 1 5.45569 1.00218 5.1295
530 1 7.03 6.34461 7.56665
531 1 0.101408 6.65558 8.64467
532 1 4.58414 5.64458 0.822247
533 1 7.7154 0.166131 2.08592
534 1 6.83572 8.20532 1.97638
535 1 8.14085 8.77827 5.69245
536 1 9.13142 5.03479 3.68419
537 1 0.216759 2.32021 8.97392
538 1 4.89323 2.25182 6.64464
539 1 5.58636 3.28681 6.62116
540 1 1.02283 3.40525 0.808126
541 1 0.188371 2.95421 0.490076
542 1 0.369798 3.37468 1.59019
543 1 2.40793 9.09407 5.93167
544 1 4.61572 0.0451329 4.01749
545 1 7.39194 4.19357 4.3864
546 1 3.6366 6.37284 5.07424
547 1 7.82088 6.47059 6.87734
548 1 7.03511 8.03301 4.8503
549 1 3.8339 0.0535715 4.71809
550 1 8.79297 8.14549 4.03825
551 1 3.78917 3.50893 8.60916
552 1 1.04115 3.24685 7.66595
553 1 7.61135 3.02863 6.17649
554 1 0.799901 3.99692 6.97303
555 1 4.94401 2.61557 4.3924
556 1 2.19831 4.28023 7.89166
557 1 0.519365 7.08295 4.16506
558 1 5.79966 3.01448 5.11789
559 1 4.08599 5.99593 2.73414
560 1 2.41128 2.55499 5.21742
561 1 1.35304 4.54239 3.93124
562 1 7.18806 3.9055 6.46695
563 1 5.34361 4.7755 2.50149
564 1 6.32945 8.69289 7.20585
565 1 9.1592 1.52895 5.3817
566 1 4.51587 7.68115 1.61303
567 1 8.36396 7.92837 8.33474
568 1 3.65686 5.32497 8.8818
569 1 6.31844 2.28221 2.80404
570 1 8.42865 6.22679 2.03784
571 1 8.38761 6.08684 8.89708
572 1 3.62756 5.0857 2.26356
573 1 7.71921 2.32702 4.67259
574 1 2.93658 0.637167 4.85507
575 1 5.05046 3.69426 1.2147
576 1 7.37655 3.08725 8.36857
577 1 5.14041 8.25257 7.40797
578 1 5.52278 1.79954 5.89278
579 1 9.07534 0.366592 4.82733
580 1 0.445436 9.0594 5.45655
581 1 2.03604 0.627221 5.4657
582 1 5.93138 3.01132 0.454733
583 1 1.45207 0.114579 1.10126
584 1 1.42326 3.35153 1.91499
585 1 8.33322 7.26171 7.27722
586 1 4.41877 2.8891 1.59896
587 1 4.45164 6.66146 7.79497
588 1 9.31001 9.12654 2.45458
589 1 2.90629 3.5397 5.19325
590 1 1.47712 7.24752 8.57983
591 1 0.756331 0.0593322 3.10933
592 1 9.17834 3.85695 0.813589
593 1 8.74997 2.25295 0.275685
594 1 4.17205 1.00934 4.94829
595 1 6.00576 3.14238 1.54995
596 1 0.923115 3.80197 8.5005
597 1 8.07773 0.302145 7.58483
598 1 8.64795 4.77517 6.43763
599 1 2.73584 3.35896 2.57366
600 1 3.84377 8.42902 1.56309
601 1 8.41881 8.11666 1.13199
602 1 3.07614 6.82404 0.497128
603 1 9.04591 9.35141 6.00779
604 1 7.36946 8.66947 6.69537
605 1 3.07259 2.17043 0.0558788
606 1 9.13438 6.49972 5.11417
607 1 2.59097 7.62438 8.92713
608 1 9.08034 7.44028 0.698829
609 1 2.95313 0.546648 8.17627
610 1 1.71461 0.38673 6.47684
611 1 1.4521 5.28331 1.81708
612 1 0.103788 5.62061 8.01384
613 1 5.88274 8.7455 8.09206
614 1 1.21465 0.755084 7.8649
615 1 8.7564 7.20741 2.60679
616 1 7.77041 5.2178 9.00208
617 1 3.18401 4.36423 3.99641
618 1 6.89698 4.89943 3.64409
619 1 5.39974 4.42253 8.8262
620 1 0.674542 4.77627 3.07882
621 1 7.07939 9.18609 7.64951
622 1 5.9614 2.27519 3.77145
623 1 3.20972 8.33294 3.96936
624 1 7.76514 5.60532 3.77562
625 1 2.44361 3.39198 1.52581
626 1 8.16615 4.73026 3.36846
627 1 7.94707 7.65791 4.66184
628 1 0.657743 4.44135 1.16854
629 1 9.20272 8.53065 0.347743
630 1 2.44074 0.0871272 8.95943
631 1 1.78014 7.13176 3.14166
632 1 6.55022 6.57628 5.43837
633 1 0.130788 8.60933 3.41587
634 1 4.45573 0.390403 2.40717
635 1 4.83373 1.91649 1.37226
636 1 7.19042 6.23399 3.20215
637 1 4.17664 3.50108 5.67776
638 1 1.91185 6.24286 4.441
639 1 8.63607 3.96773 3.81184
640 1 6.0197 2.32533 9.02704
641 1 1.66483 0.861406 8.87451
642 1 9.34338 2.53565 2.08749
643 1 4.14514 0.386238 6.40782
644 1 0.679524 2.96006 4.90837
645 1 2.74363 2.44017 1.06789
646 1 5.04476 5.98709 7.02832
647 1 7.60934 7.64222 6.52547
648 1 6.46744 1.46201 5.72193
649 1 8.10368 7.51621 3.36287
650 1 4.83275 3.61721 4.75743
651 1 8.70795 4.23309 9.15265
652 1 6.00817 6.47761 7.08806
653 1 5.53603 0.0565723 7.3958
654 1 7.49597 4.60114 1.46583
655 1 3.80532 7.34903 8.35681
656 1 3.44312 1.48417 8.51706
657 1 6.16167 8.38752 5.525
658 1 0.134608 7.30218 5.74278
659 1 8.49757 4.25428 8.01455
660 1 1.69596 4.58796 7.04044
661 1 2.17625 1.59581 1.43485
662 1 1.14163 8.48772 6.80423
663 1 2.16651 8.38851 7.23533
664 1 4.5679 1.08643 3.18306
665 1 2.5798 7.76747 0.556982
666 1 8.36203 3.07361 3.18447
667 1 5.81356 7.97635 0.196015
668 1 5.03605 4.5511 0.564964
669 1 7.78071 4.91999 5.61688
670 1 5.58965 0.284764 4.29158
671 1 0.505069 8.16093 4.20108
672 1 6.01245 4.4325 5.41947
673 1 6.65133 9.20835 6.09389
674 1 1.55687 2.26807 2.12514
675 1 0.140421 8.01953 2.54322
676 1 5.84933 6.01409 1.464
677 1 7.82339 5.65752 8.00324
678 1 8.81952 3.43264 2.31349
679 1 4.97221 2.97931 7.44855
680 1 1.88117 5.48284 9.39103
681 1 3.05437 8.1095 2.9039
682 1 6.23182 3.35978 2.64859
683 1 5.92955 1.59081 2.27677
684 1 6.83104 7.89436 0.330966
685 1 7.00688 6.30748 4.56153
686 1 0.868049 7.98849 5.76293
687 1 1.8305 5.59018 6.62517
688 1 9.23423 1.1474 6.28165
689 1 8.15574 1.20142 5.06236
690 1 7.31263 7.72011 1.18719
691 1 3.25465 8.02278 7.23568
692 1 8.92537 6.53962 0.271562
693 1 1.65942 5.51614 3.66775
694 1 1.99773 6.84319 0.918015
695 1 3.4975 0.601358 7.18983
696 1 0.435366 5.23802 2.15029
697 1 5.97107 3.45665 7.5166
698 1 8.28713 1.07007 6.89502
699 1 0.0979735 5.09312 7.04568
700 1 9.0573 0.694007 2.79461
701 1 7.84884 8.82326 8.20411
702 1 1.3238 8.97029 5.91185
703 1 2.55806 9.06656 2.56201
704 1 2.67939 5.56438 4.14653
705 1 5.82069 1.06439 7.48806
706 1 1.69345 3.31255 4.81023
707 1 0.932728 3.78308 5.5191
708 1 5.23545 8.19666 1.02806
709 1 3.7824 3.34184 2.59134
710 1 4.06287 2.67049 4.95868
711 1 2.63304 9.33392 7.01631
712 1 8.47345 7.1354 1.47271
713 1 3.81436 5.0161 3.43823
714 1 3.27338 0.23409 5.78627
715 1 5.78688 5.01352 3.43707
716 1 7.09595 5.77885 6.54707
717 1 1.80047 7.80296 6.37831
718 1 4.1635 6.60324 0.956061
719 1 1.16359 1.13354 4.19495
720 1 6.30499 5.86752 8.03123
721 1 2.48563 6.90073 2.34431
722 1 2.97463 8.5692 9.32552
723 1 4.8084 3.77385 8.18685
724 1 0.993536 8.10669 1.88347
725 1 9.01838 8.67346 4.82288
726 1 2.39857 2.77295 6.3282
727 1 6.96019 4.58709 9.32773
728 1 0.562881 3.09489 6.26775
729 1 1.01813 3.05682 3.88997
730 1 9.20837 7.80683 9.00239
731 1 0.171263 4.56868 8.62614
732 1 4.91808 6.25891 1.762
733 1 0.629826 5.51683 3.8245
734 1 0.819322 9.15424 1.79523
735 1 8.71111 6.98704 4.0432
736 1 2.39072 9.05127 0.723482
737 1 3.26638 4.24349 2.88692
738 1 0.536568 7.18909 0.0647808
739 1 1.49521 2.69654 6.80261
740 1 6.50735 4.86434 1.61506
741 1 6.29031 0.666077 2.72553
742 1 9.10446 2.26949 6.06595
743 1 6.85797 9.38474 1.1039
744 1 4.32535 0.33253 0.390249
745 1 3.43328 3.03252 1.67917
746 1 4.84561 2.09636 3.4314
747 1 8.49574 8.85372 1.90036
748 1 3.5259 6.95463 7.29785
749 1 9.18663 0.210103 1.53816
750 1 7.54809 8.68469 2.60557
751 1 3.57126 6.14612 7.99681
752 1 7.86831 2.04558 3.00712
753 1 6.44799 1.4419 6.76028
754 1 1.87792 3.34307 8.27982
755 1 4.89283 8.89865 0.291735
756 1 3.25352 4.63316 5.97989
757 1 8.34389 6.20385 1.00529
758 1 6.69762 2.53453 4.57425
759 1 6.8312 2.82458 6.79544
760 1 3.80176 3.49508 4.48494
761 1 0.632839 9.18174 7.42453
762 1 6.85965 6.0096 1.03588
763 1 7.5547 4.56118 7.79565
764 1 2.76412 8.20899 6.32089
765 1 1.64616 9.34978 7.38677
766 1 9.36665 3.43902 8.94402
767 1 5.84769 2.25015 7.17116
768 1 8.49327 4.60183 0.914545
769 1 7.12353 4.25966 5.37645
770 1 1.6147 7.51828 0.158531
771 1 1.57513 0.324905 2.32926
772 1 3.84986 0.809807 3.98172
773 1 3.7752 6.59314 3.94882
774 1 5.57087 2.56713 8.09012
775 1 5.17115 5.78873 2.89721
776 1 4.43931 2.60257 2.65097
777 1 5.14971 5.21654 4.32403
778 1 2.60374 1.28606 9.14021
779 1 6.99319 1.43896 2.79445
780 1 7.22207 0.11512 3.14838
781 1 2.06537 5.87326 2.67392
782 1 8.50257 8.15716 6.63622
783 1 1.42802 4.6766 6.02964
784 1 0.177659 0.614015 3.88277
785 1 7.65675 8.72775 1.28717
786 1 1.08906 2.03708 3.7688
787 1 0.0499711 8.46383 1.54216
788 1 8.43923 1.98158 1.42979
789 1 7.97739 0.983073 8.29576
790 1 1.28393 1.19758 1.71082
791 1 4.31194 1.1745 8.892
792 1 0.974885 5.15095 0.171828
793 1 5.93177 1.91382 1.29624
794 1 2.56541 5.97865 0.709116
795 1 4.48097 4.61688 6.1126
796 1 7.37419 3.29838 5.13754
797 1 2.58606 3.10321 0.326534
798 1 2.1388 1.49012 8.21392
799 1 1.06324 1.10897 3.14293
800 1 0.510662 0.650017 2.24844
801 2 1.76694 0.817363 4.61768
802 2 0.892694 4.8135 6.79449
803 2 5.05515 0.234305 6.5228
804 2 6.6877 0.694021 6.11497
805 2 5.33597 5.97382 6.07075
806 2 2.08567 7.02115 4.00237
807 2 9.15289 0.0239367 3.27217
808 2 8.62958 0.286201 8.26762
809 2 7.58787 6.55857 6.00957
810 2 3.04666 9.29531 4.32877
811 2 5.39928 0.911153 2.54989
812 2 0.120956 6.31185 4.2012
813 2 7.50412 1.57704 5.43903
814 2 0.735878 3.18682 9.22568
815 2 0.220339 2.40969 4.00932
816 2 1.77175 9.18389 5.26368
817 2 4.50055 8.77357 1.12652
818 2 5.3759 3.76299 0.328605
819 2 2.32373 4.62832 6.32219
820 2 1.16556 8.66089 1.08828
821 2 8.62133 2.5498 7.22036
822 2 2.55312 7.38636 1.55094
823 2 2.90931 1.12753 5.5313
824 2 3.33562 8.11862 0.675566
825 2 5.20106 2.54867 9.12092
826 2 6.96036 5.48263 0.000140366
827 2 0.78627 2.81682 2.2372
828 2 1.17646 0.407652 5.80869
829 2 7.4343 7.1985 7.31662
830 2 7.74266 5.56745 7.10627
831 2 4.76377 4.5976 7.78745
832 2 7.07262 5.21112 2.12357
833 2 4.2304 1.92596 8.44742
834 2 8.58801 0.23768 2.18495
835 2 7.10797 7.38646 2.04189
836 2 4.37379 3.09421 9.14075
837 2 1.51681 4.887 7.97963
838 2 0.290269 0.997415 4.6631
839 2 7.80088 3.72303 7.91663
840 2 6.94062 5.76334 3.83855
841 2 7.20242 2.14597 2.41982
842 2 6.56118 2.85051 3.64169
843 2 1.82512 1.2232 6.67234
844 2 4.30632 5.78607 9.30742
845 2 2.78626 2.01478 8.63204
846 2 1.55017 4.20751 4.79661
847 2 0.286817 5.51456 3.06961
848 2 9.16186 4.82209 7.73791
849 2 5.33242 1.79233 4.1295
850 2 0.337611 5.96951 7.16843
851 2 4.04396 1.18304 2.43681
852 2 7.73516 3.35859 9.15643
853 2 6.80218 2.55269 8.71065
854 2 6.07406 9.40025 1.4783
855 2 7.44668 0.786626 4.53314
856 2 7.08651 0.703851 2.30202
857 2 2.70449 5.82851 8.09271
858 2 2.02589 8.36897 0.359442
859 2 7.86973 5.95845 4.54403
860 2 8.58361 1.5975 3.56604
861 2 6.79482 8.40849 7.94705
862 2 3.04154 7.02373 5.20481
863 2 6.40783 0.960008 5.10038
864 2 6.9198 3.7027 8.87904
865 2 1.25885 5.37256 4.4425
866 2 5.344 5.6365 2.06609
867 2 9.20535 2.22395 1.01624
868 2 4.79993 6.545 2.55544
869 2 1.08023 0.256568 3.94612
870 2 5.62992 0.191635 0.38869
871 2 3.09371 7.43466 7.85746
872 2 2.14628 3.34237 5.63725
873 2 5.45422 2.10548 2.87251
874 2 3.99414 7.15759 2.71711
875 2 6.21368 5.0276 8.05673
876 2 1.84534 9.00155 6.63293
877 2 6.42904 1.60521 3.39105
878 2 4.52511 3.36399 2.99508
879 2 1.33675 5.03185 0.899378
880 2 1.40186 4.08325 7.58669
881 2 4.93399 8.00876 6.59431
882 2 6.0849 0.615776 3.70103
883 2 6.53013 8.403 6.40018
884 2 1.52683 6.58108 2.56095
885 2 3.39191 3.63334 6.00478
886 2 1.14991 1.65144 8.10484
887 2 0.514362 6.84739 5.02099
888 2 7.39491 3.67592 1.41692
889 2 0.703594 8.74147 2.60212
890 2 8.50777 2.01247 4.57395
891 2 1.40366 1.87107 2.94083
892 2 1.70071 7.46173 5.55661
893 2 1.93174 3.51604 0.801664
894 2 6.45354 8.59471 9.25628
895 2 0.0700818 2.86491 5.59247
896 2 8.13237 2.51474 8.30808
897 2 5.69362 7.68265 5.59608
898 2 4.10992 7.25811 0.361784
899 2 1.27606 6.19885 6.12966
900 2 3.26408 9.11395 8.66222
901 2 2.7873 2.53212 3.62998
902 2 4.04502 0.384502 5.52178
903 2 7.97997 8.86638 7.33776
904 2 1.60725 3.74803 4.00678
905 2 3.41997 8.47751 2.21411
906 2 9.1332 1.86479 7.88918
907 2 8.66472 2.57251 2.57471
908 2 4.18112 3.73494 1.76925
909 2 4.8378 0.444964 4.78864
910 2 3.25089 1.44812 6.64426
911 2 8.31525 3.91011 2.86157
912 2 4.10856 8.60594 7.17078
913 2 3.84346 8.38998 3.3064
914 2 7.07044 7.14408 4.63017
915 2 8.86296 0.771517 5.522
916 2 0.56453 5.40912 5.61218
917 2 4.91464 4.32402 1.86335
918 2 2.82165 1.45261 0.682016
919 2 9.26706 1.50923 9.18623
920 2 4.88872 6.73921 8.63466
921 2 7.57287 2.30596 1.42636
922 2 7.65153 1.2609 7.40722
923 2 5.34768 8.00162 1.85214
924 2 5.24728 2.70002 1.1209
925 2 6.15836 6.68514 4.62025
926 2 6.4223 3.58086 6.7757
927 2 6.2966 0.080258 7.82709
928 2 1.86774 3.20589 2.72454
929 2 0.499652 8.22312 7.42861
930 2 1.47557 7.7398 2.57816
931 2 6.36383 7.20808 9.2985
932 2 4.42207 6.95198 4.99398
933 2 4.78202 0.677107 1.0086
934 2 5.17025 6.47904 0.974819
935 2 5.02333 8.06702 0.137284
936 2 3.03907 0.105983 3.21268
937 2 9.1752 5.79321 0.721119
938 2 7.46657 0.265626 8.23043
939 2 8.82447 2.72078 8.96663
940 2 3.71447 8.60703 4.7736
941 2 5.66372 3.83067 4.84645
942 2 6.91174 5.38794 2.95298
943 2 1.27172 6.86508 4.37003
944 2 5.61245 5.15641 5.06018
945 2 8.83085 7.90234 1.90824
946 2 0.322713 2.99463 8.12018
947 2 8.52843 5.56013 3.4416
948 2 8.47302 8.16632 5.12527
949 2 3.10537 3.47745 1.05041
950 2 1.32457 1.93024 1.0415
951 2 3.17081 6.89629 9.03609
952 2 3.31281 7.32351 6.44078
953 2 2.57243 5.95705 6.24466
954 2 1.81549 6.06638 7.37999
955 2 5.68863 3.71079 8.25539
956 2 4.52228 5.11541 2.78117
957 2 2.79369 5.64864 1.51967
958 2 6.93909 4.35501 0.803733
959 2 4.1768 0.31976 3.21606
960 2 6.4074 6.92467 7.73719
961 2 8.83547 7.18506 8.04684
962 2 4.53099 0.0163542 9.00652
963 2 8.98388 7.09871 6.71525
964 2 8.67229 3.41803 7.68093
965 2 2.87348 7.70445 4.45781
966 2 6.87876 8.53059 0.943752
967 2 0.182416 4.35105 5.27745
968 2 0.5152 4.82805 4.32675
969 2 9.11507 3.45833 3.19889
970 2 6.81755 2.02507 6.26684
971 2 8.3228 0.537377 0.264336
972 2 2.62077 4.40823 1.61249
973 2 0.988918 0.39527 0.369593
974 2 7.00191 8.50985 3.28717
975 2 6.15694 2.00745 0.377394
976 2 8.46603 1.49247 6.10905
977 2 0.577603 8.64363 6.19957
978 2 2.19801 2.74708 7.16469
979 2 3.97732 6.23312 6.20124
980 2 6.93301 3.89268 2.73805
981 2 7.49918 9.34123 5.93792
982 2 3.27089 8.72611 5.75634
983 2 2.04724 0.51548 8.16666
984 2 5.77452 4.69562 0.175857
985 2 6.30043 8.49834 2.61499
986 2 8.8814 8.95749 1.06594
987 2 7.30803 7.09138 3.34307
988 2 6.06178 7.27608 6.81964
989 2 7.84666 8.72113 9.06875
990 2 2.82855 1.30696 4.39631
991 2 0.299574 8.19423 5.16128
992 2 6.52892 7.98116 4.13474
993 2 2.24395 4.72617 3.9378
994 2 5.42567 5.74909 3.73398
995 2 2.57013 2.99029 4.53545
996 2 7.93409 2.51413 3.79077
997 2 0.926806 0.486808 7.09575
998 2 7.68459 8.17569 0.631023