#bin. KALJ data file T=0.5

1000 atoms
2 atom types

0 9.4 xlo xhi
0 9.4 ylo yhi
0 9.4 zlo zhi

Masses

1 1.0
2 1.0

Atoms

1 1 3.73117 7.19474 2.07639
2 1 4.12515 4.64881 2.66054
3 1 2.42006 4.03321 6.22264
4 1 3.4674 3.86053 0.478574
5 1 2.21733 8.97803 2.42518
6 1 3.86877 6.65123 4.7499
7 1 6.3859 5.69101 7.69035
8 1 8.49511 1.66672 6.89888
9 1 1.13045 6.52568 5.98715
10 1 9.06636 5.57769 0.202297
11 1 2.05478 0.80846 5.66533
12 1 7.74452 2.48688 7.06749
13 1 8.38894 8.20218 7.96701
14 1 3.40181 5.71024 7.14096
15 1 8.2648 8.34121 9.08082
16 1 8.53704 6.47402 8.27998
17 1 5.90667 0.0656445 1.88691
18 1 6.77174 7.72578 5.02062
19 1 9.09562 7.4783 1.7869
20 1 7.16867 3.16368 1.37252
21 1 8.65427 2.234 0.0275445
22 1 6.24687 9.1335 9.0903
23 1 8.00566 0.0138375 9.00287
24 1 2.50308 5.20048 9.02804
25 1 3.65152 8.38748 1.29793
26 1 7.40013 0.721662 2.99328
27 1 6.51879 3.53733 8.60085
28 1 5.58293 3.02485 2.27194
29 1 0.997438 6.08482 6.94851
30 1 0.456673 1.30617 4.45492
31 1 9.37717 1.3473 1.73315
32 1 6.95826 5.59073 5.1024
33 1 8.07636 7.48273 0.630121
34 1 2.77984 8.299 0.801607
35 1 4.55483 5.3622 5.77152
36 1 3.05404 8.82698 3.13005
37 1 7.95523 4.76862 8.38273
38 1 0.225622 0.356235 1.51457
39 1 4.99887 7.92941 3.94676
40 1 4.41024 0.300075 7.62667
41 1 3.58764 0.881048 6.33576
42 1 1.69494 0.163247 4.2561
43 1 5.39389 0.449785 8.94938
44 1 3.79761 0.0684864 3.69712
45 1 1.80849 7.06861 9.0471
46 1 0.240948 3.90239 3.15035
47 1 6.26179 8.47535 1.40967
48 1 4.20464 1.3845 5.57066
49 1 1.79842 3.34537 6.60741
50 1 6.96659 1.76009 4.49922
51 1 6.65312 6.61131 2.4809
52 1 4.673 8.06102 0.810023
53 1 8.74219 9.18214 0.297908
54 1 7.25562 0.0584929 4.04397
55 1 1.01088 5.41765 3.28524
56 1 3.39937 7.51417 4.3413
57 1 3.2762 4.59127 5.73955
58 1 4.48728 4.90394 3.67289
59 1 5.13939 6.37283 6.99343
60 1 2.48446 1.77827 5.27929
61 1 3.71801 5.55417 3.44173
62 1 4.42067 8.13261 1.92702
63 1 0.201338 3.5667 6.67388
64 1 1.29013 8.2919 2.87095
65 1 7.15181 1.59427 2.3718
66 1 1.30383 2.17275 8.92657
67 1 0.0732509 4.74837 6.66638
68 1 4.78426 7.44572 7.22196
69 1 9.10997 6.53079 3.38638
70 1 8.43645 5.63029 3.73957
71 1 7.38501 8.09913 7.6188
72 1 3.02969 2.12527 9.1124
73 1 3.75531 5.60207 2.41511
74 1 6.13296 1.83707 2.70016
75 1 4.60807 2.79762 2.67782
76 1 7.28144 6.26521 7.26209
77 1 1.55821 3.95638 5.68292
78 1 5.2568 7.1952 1.07958
79 1 6.70037 0.213868 8.10754
80 1 0.361266 2.31121 9.36346
81 1 4.22757 4.59919 7.44808
82 1 4.21534 9.22707 1.75174
83 1 5.81918 7.21095 5.35103
84 1 1.19177 5.72031 7.98386
85 1 8.15471 2.73574 8.66828
86 1 5.42411 5.53226 7.52972
87 1 1.31954 3.41255 4.85949
88 1 8.61328 0.682999 1.36026
89 1 5.68057 7.04143 2.48031
90 1 5.81919 5.89318 2.69059
91 1 0.829412 6.64724 3.92795
92 1 8.40285 0.879632 0.179788
93 1 2.54627 1.23414 6.41165
94 1 2.62434 4.6503 4.44407
95 1 7.29473 7.05311 4.30454
96 1 5.82739 7.34573 7.3582
97 1 1.15609 4.26981 8.83184
98 1 5.49905 7.87702 1.78803
99 1 6.84 9.08321 6.12431
100 1 4.92015 5.60751 9.19841
101 1 5.4566 4.7043 9.30973
102 1 1.96164 2.8131 2.69149
103 1 4.62 6.05329 3.88077
104 1 7.15313 6.35957 6.21646
105 1 0.471446 5.97127 4.83621
106 1 8.50627 8.18983 5.26251
107 1 4.10156 3.76234 3.39077
108 1 8.78651 8.90722 3.37515
109 1 7.16268 4.22041 9.02874
110 1 8.90126 7.25367 7.68807
111 1 6.33569 8.34063 0.311142
112 1 7.91101 3.11568 0.126294
113 1 3.37309 5.10656 0.0615467
114 1 6.58803 3.63356 2.07649
115 1 4.88457 1.68624 2.67299
116 1 6.02431 2.3406 9.29089
117 1 8.89914 8.99874 8.60277
118 1 8.6859 3.44278 0.897509
119 1 4.05964 2.73558 6.46979
120 1 2.21765 8.50519 7.66064
121 1 3.52713 1.84942 4.91776
122 1 2.74337 8.20228 3.85677
123 1 3.97461 6.23282 0.140647
124 1 0.0120148 8.99054 6.74402
125 1 6.09307 4.67597 6.05516
126 1 7.76579 4.44561 1.22421
127 1 4.30924 8.75417 5.64818
128 1 7.86518 6.2797 5.26462
129 1 8.84363 7.30511 9.34064
130 1 3.47547 2.43287 0.827951
131 1 6.98537 1.58727 3.45977
132 1 7.98289 8.25257 2.57147
133 1 5.36913 2.37195 3.23101
134 1 0.539901 8.94816 8.49031
135 1 8.5215 7.56964 4.37057
136 1 7.2216 1.69578 7.66815
137 1 2.67319 4.99559 6.47228
138 1 5.25085 8.13837 5.51259
139 1 2.26578 2.24066 6.21058
140 1 0.28122 4.77524 8.67548
141 1 1.99505 8.90584 3.4092
142 1 5.41037 0.995664 5.71399
143 1 4.43802 2.40576 0.927523
144 1 3.38847 0.87741 4.20033
145 1 9.05569 2.2818 8.49965
146 1 1.33294 2.13225 2.08686
147 1 7.2379 2.77819 8.10645
148 1 0.939153 7.72043 4.44309
149 1 2.27734 0.645957 2.74934
150 1 0.749218 8.55551 5.11178
151 1 7.37996 8.06863 6.44376
152 1 6.09966 0.0412904 5.47047
153 1 2.26188 6.19665 0.393431
154 1 4.2177 5.72797 1.26322
155 1 7.98956 0.415681 4.67858
156 1 7.59404 0.452165 6.02254
157 1 6.48762 5.09572 9.2021
158 1 3.53533 8.09214 8.67622
159 1 1.93842 6.45543 7.50124
160 1 6.18842 6.39845 6.83667
161 1 1.50728 2.29133 7.00838
162 1 0.267503 3.52797 1.9999
163 1 6.53112 0.86827 7.17295
164 1 2.72431 0.198067 7.95003
165 1 1.30747 6.66659 4.88312
166 1 6.48534 6.39048 8.85828
167 1 4.38444 9.06733 0.697295
168 1 7.3527 4.44349 2.45236
169 1 1.86592 4.71728 0.372974
170 1 8.38563 2.79778 3.20414
171 1 5.3318 9.22003 6.98592
172 1 3.40063 7.07336 8.91311
173 1 3.25498 5.16471 1.63594
174 1 4.40878 4.4496 9.4121
175 1 7.3435 3.84535 8.02386
176 1 2.70076 1.78504 4.27082
177 1 6.03067 6.52815 1.48587
178 1 6.24777 3.57859 1.11052
179 1 5.88253 3.33619 3.65922
180 1 0.619567 0.495932 6.64033
181 1 8.83394 5.73308 1.19637
182 1 3.05076 9.05878 4.35157
183 1 3.88516 4.8256 0.869836
184 1 5.56548 6.52145 7.96323
185 1 9.31302 7.91051 6.83176
186 1 0.375525 2.42396 1.8041
187 1 1.73332 2.35405 4.86236
188 1 1.16319 6.1723 0.0942427
189 1 3.11453 5.41861 5.13354
190 1 4.75815 5.18593 1.92919
191 1 4.97212 3.20084 5.05299
192 1 3.39733 2.00404 6.07392
193 1 3.81927 1.82106 2.85093
194 1 1.77029 8.56645 4.48334
195 1 5.8186 7.97413 4.61886
196 1 1.27369 0.0186645 2.80962
197 1 5.61888 4.20784 1.73024
198 1 7.38671 0.922451 9.35982
199 1 4.96572 8.76594 4.61664
200 1 1.67268 9.07526 8.34498
201 1 4.84026 1.64638 3.82379
202 1 2.65624 6.35079 3.13914
203 1 3.73147 1.70244 7.00813
204 1 6.24514 7.49991 1.02457
205 1 3.4552 0.933882 7.89142
206 1 4.36368 0.0983255 6.61293
207 1 6.34642 4.82109 2.98737
208 1 0.838269 5.74161 1.85727
209 1 6.05895 0.35388 6.41232
210 1 0.87645 2.40075 7.84702
211 1 6.01418 9.27753 0.876981
212 1 4.73937 7.10249 2.15048
213 1 2.0638 6.22377 3.97248
214 1 7.923 2.61126 2.26758
215 1 5.69533 6.27571 3.84432
216 1 7.8065 3.74129 6.8909
217 1 2.39297 0.449339 7.03773
218 1 2.16762 2.08852 3.46788
219 1 0.81955 4.785 0.30618
220 1 8.67062 0.65475 8.51932
221 1 5.45065 7.18848 6.38575
222 1 5.04546 6.26546 1.65926
223 1 3.96137 0.579546 0.21266
224 1 6.05188 5.27892 4.40511
225 1 2.08137 3.24819 7.58926
226 1 2.80257 2.1169 7.07282
227 1 8.0109 5.34424 4.71264
228 1 6.45956 0.884259 9.0126
229 1 8.78583 2.61987 6.90899
230 1 6.70782 0.473691 0.621352
231 1 7.78001 3.88914 5.74318
232 1 6.72949 4.77659 7.99737
233 1 8.91529 9.38094 2.17417
234 1 5.84303 8.49318 3.50554
235 1 7.11132 8.09839 0.992341
236 1 7.9876 3.59508 3.96804
237 1 6.46894 0.706847 3.83196
238 1 7.47793 0.935765 8.34872
239 1 6.95205 5.39378 6.71129
240 1 0.26755 1.16208 8.18583
241 1 2.76572 5.21211 3.05809
242 1 4.85016 5.01738 8.37073
243 1 5.93966 9.31879 4.15874
244 1 7.53422 4.37666 4.7365
245 1 6.8379 4.7854 1.64233
246 1 7.61663 2.3497 4.01526
247 1 5.53882 3.21834 0.191621
248 1 6.24814 8.35621 5.79246
249 1 5.56503 3.90157 5.61232
250 1 5.13216 4.10144 3.47959
251 1 7.58733 3.08443 4.9918
252 1 8.91718 5.85313 5.21952
253 1 2.40807 6.57435 1.29913
254 1 6.18791 3.94704 0.0353956
255 1 4.82498 3.90828 2.46575
256 1 0.466691 5.78072 0.787293
257 1 0.0160407 8.34395 4.20533
258 1 3.39349 6.32967 1.65616
259 1 4.40084 2.44629 4.40523
260 1 3.77519 3.65427 2.42612
261 1 1.17664 8.31654 7.88186
262 1 6.62553 1.78746 8.62852
263 1 6.73917 3.48524 5.49527
264 1 6.62779 2.68271 4.63007
265 1 3.3384 2.97798 1.73418
266 1 0.211389 6.66922 0.0941733
267 1 5.8649 3.97052 2.74268
268 1 5.79595 0.939094 1.15482
269 1 3.15095 5.81115 0.849894
270 1 8.96991 8.37173 2.36436
271 1 1.68616 8.05516 0.888812
272 1 1.83444 3.09233 1.02262
273 1 9.19608 4.8337 3.30837
274 1 3.52027 2.90362 8.40857
275 1 4.32593 0.613354 8.62109
276 1 9.09483 8.1678 0.335507
277 1 6.62158 2.56427 2.09726
278 1 4.25672 2.44035 5.5158
279 1 0.382613 3.02962 8.62648
280 1 2.33705 1.21369 7.86657
281 1 4.1854 7.64852 2.95777
282 1 1.01664 8.72561 3.81292
283 1 2.1739 6.36647 5.56441
284 1 6.89143 6.67086 5.25767
285 1 0.0676632 0.817882 5.31424
286 1 0.527103 1.71714 6.05995
287 1 4.57184 0.378183 5.63771
288 1 0.583296 6.91204 1.83382
289 1 8.10947 1.68079 1.83683
290 1 5.38911 4.26512 7.75975
291 1 8.21903 3.09513 7.71152
292 1 6.95537 3.11016 7.03428
293 1 8.18409 4.60867 3.96554
294 1 1.06779 3.33212 7.38446
295 1 5.514 3.35204 7.21227
296 1 8.11831 5.72532 9.02344
297 1 9.10213 5.08715 4.56243
298 1 9.09949 3.97437 5.79154
299 1 4.38777 8.66198 7.23282
300 1 1.53597 1.45101 6.40649
301 1 5.69391 9.28614 8.06888
302 1 8.8482 7.54918 6.03718
303 1 3.93357 3.21092 4.89552
304 1 0.507762 6.03574 8.63645
305 1 5.39371 8.30613 7.66642
306 1 1.42046 9.08482 0.847585
307 1 6.06478 1.68332 4.04146
308 1 2.77517 8.78833 8.62859
309 1 0.22007 6.45776 7.68763
310 1 7.92048 6.47815 3.34102
311 1 0.735253 8.26657 0.195444
312 1 3.63213 7.75808 0.231033
313 1 5.01836 6.97236 3.26235
314 1 5.09718 0.484154 0.562078
315 1 5.87387 5.60489 8.54552
316 1 9.04897 3.94118 8.28077
317 1 8.26132 6.57241 4.35428
318 1 8.53764 2.82628 4.33964
319 1 2.21933 1.7513 2.49741
320 1 2.52631 7.0944 3.99455
321 1 0.295773 3.93663 9.37761
322 1 5.25917 9.09614 5.87617
323 1 9.17912 1.38239 9.06305
324 1 8.95194 5.56453 8.47162
325 1 0.939558 7.66271 8.73872
326 1 3.82086 1.83312 3.91666
327 1 2.29302 2.5436 1.754
328 1 5.90938 3.47898 4.72851
329 1 0.350489 7.62525 0.931009
330 1 4.31526 3.12656 1.69834
331 1 9.1126 0.0731972 5.92462
332 1 3.25979 3.10622 7.3215
333 1 1.23545 3.95763 0.676262
334 1 2.07296 6.93067 6.64817
335 1 7.60571 6.1041 1.23886
336 1 7.47271 5.30598 3.14569
337 1 8.40779 0.755518 3.43832
338 1 4.33809 0.936136 4.57036
339 1 6.66419 5.7002 1.10539
340 1 3.52889 7.13689 6.40796
341 1 6.3409 7.34753 0.00757025
342 1 0.677417 2.56668 4.35434
343 1 2.38237 7.94484 2.88444
344 1 2.7717 4.23378 9.07314
345 1 0.149661 4.92301 5.43394
346 1 8.90217 3.2245 9.25478
347 1 7.23773 5.55033 8.52942
348 1 7.99859 1.72305 2.93727
349 1 2.76219 3.46802 2.45148
350 1 2.27821 4.24736 7.2473
351 1 5.19576 8.86586 1.34916
352 1 4.35903 5.50789 6.85595
353 1 7.68751 7.36353 5.28077
354 1 2.60819 6.71532 8.26038
355 1 8.58564 7.88763 3.32003
356 1 6.86583 2.11037 6.55362
357 1 1.46627 4.73215 4.82539
358 1 5.30069 4.29454 6.65991
359 1 1.12035 6.80823 8.12523
360 1 5.60321 2.21843 0.803501
361 1 8.44087 0.2967 6.66957
362 1 1.76627 8.38606 5.54828
363 1 9.19795 6.29343 2.0861
364 1 9.2676 3.07714 3.69536
365 1 4.50051 6.48442 8.71966
366 1 2.3713 9.22968 1.20028
367 1 9.38766 2.73119 6.0005
368 1 4.52053 7.88197 6.13484
369 1 7.41402 7.34041 2.45046
370 1 1.42472 1.2432 2.90164
371 1 0.332368 9.35886 3.33903
372 1 5.95683 2.85764 5.55921
373 1 5.86888 1.42628 6.65823
374 1 7.04329 9.1304 1.17013
375 1 2.65165 7.88072 9.16798
376 1 4.57591 4.15557 1.34363
377 1 6.43567 9.11174 7.29226
378 1 2.60671 6.02734 2.17797
379 1 6.81598 6.83163 3.46394
380 1 7.70769 4.66598 7.36745
381 1 2.78028 3.14869 0.138034
382 1 4.64756 1.09809 6.44304
383 1 2.8197 0.840779 1.91545
384 1 2.66743 8.23449 4.96137
385 1 4.57098 7.16901 0.174763
386 1 2.85643 0.293877 6.08567
387 1 9.22573 2.46162 0.817943
388 1 2.90489 1.13178 0.0989013
389 1 4.86228 1.9508 6.94864
390 1 1.20092 5.71687 4.27431
391 1 6.7432 7.86978 3.9852
392 1 2.18829 5.44232 1.18641
393 1 4.11807 9.30508 4.75865
394 1 3.31135 3.63319 4.021
395 1 6.65895 1.58614 0.40899
396 1 2.38283 2.85769 8.64347
397 1 6.55385 5.84658 3.44661
398 1 8.94335 4.68296 0.733894
399 1 7.99794 1.86847 4.89768
400 1 8.44037 3.79748 4.91586
401 1 5.96044 5.91022 0.257864
402 1 9.0614 4.06369 4.05557
403 1 8.91331 2.03831 2.39222
404 1 1.40342 0.229373 1.78683
405 1 2.15591 4.842 5.59461
406 1 4.22727 2.12788 1.90336
407 1 5.23809 8.02259 2.72924
408 1 1.6339 2.01063 1.09229
409 1 8.69801 6.9344 5.15405
410 1 5.9593 4.40935 8.51768
411 1 5.38833 4.84373 2.60209
412 1 2.87053 5.56652 4.02683
413 1 1.83085 8.22171 6.57248
414 1 7.13143 8.32536 1.96595
415 1 7.94272 8.59241 0.692584
416 1 8.10995 7.90697 1.59329
417 1 8.5371 1.61112 0.837555
418 1 5.5273 2.88531 8.57415
419 1 2.6224 3.05227 3.47475
420 1 7.54272 6.4336 8.30925
421 1 0.244708 6.83819 6.70253
422 1 6.22449 0.859611 4.84645
423 1 7.80579 5.28514 1.96236
424 1 3.77299 2.75607 3.34729
425 1 8.7928 5.04693 2.07929
426 1 9.25655 1.87451 7.52675
427 1 7.23781 2.05739 1.26573
428 1 1.80619 7.86987 3.72576
429 1 4.47841 1.36229 7.68113
430 1 6.66666 9.11708 3.2243
431 1 0.315494 5.28867 7.62865
432 1 0.709952 6.43721 2.7877
433 1 7.25021 4.3305 3.52371
434 1 0.0856739 2.75947 2.76795
435 1 6.6142 8.65591 4.75689
436 1 1.75421 7.58456 7.43982
437 1 1.82108 4.02612 2.42774
438 1 1.59693 6.4751 2.11473
439 1 2.84572 3.86783 8.00837
440 1 1.04226 0.66011 0.737824
441 1 5.28081 2.44981 7.66939
442 1 2.65729 8.87297 6.66429
443 1 1.92108 4.27532 1.47568
444 1 8.47316 4.44088 6.5289
445 1 0.848456 8.36688 6.93414
446 1 8.20355 1.54484 8.82425
447 1 0.197601 3.86554 0.955973
448 1 0.899255 7.44947 3.32837
449 1 6.44686 0.825373 2.655
450 1 1.20991 0.0329009 9.22575
451 1 0.406369 4.16998 7.54982
452 1 0.0638113 7.3524 2.70583
453 1 4.78538 1.43054 0.910503
454 1 1.0561 7.27906 0.317048
455 1 4.34088 7.19801 3.93353
456 1 2.3567 5.50653 7.26136
457 1 6.44205 4.39078 4.98436
458 1 1.93528 7.54951 4.70933
459 1 6.58255 1.34035 5.93667
460 1 1.87347 4.02482 4.16649
461 1 1.27812 2.46704 6.02269
462 1 7.23368 7.08235 1.38491
463 1 0.730075 1.34159 9.38557
464 1 9.37895 8.07204 8.62698
465 1 8.5539 8.51123 6.31224
466 1 1.51032 0.868152 7.2931
467 1 5.00733 1.46212 8.59428
468 1 6.59467 7.36289 6.03103
469 1 9.402 1.03574 3.46782
470 1 9.20559 8.95546 5.02376
471 1 8.82938 8.70154 1.24836
472 1 8.83601 1.79337 5.79187
473 1 6.40369 3.81794 7.5901
474 1 1.891 7.36163 5.75931
475 1 8.80186 1.01075 2.51145
476 1 3.14914 4.75186 7.54421
477 1 2.45839 0.828965 4.62848
478 1 3.20317 6.83025 0.555611
479 1 1.32018 5.04551 7.14014
480 1 1.86402 8.03683 8.60028
481 1 5.25595 3.13906 1.22896
482 1 4.77148 3.07499 3.70514
483 1 2.91731 6.32965 4.58908
484 1 2.00325 0.918111 1.22805
485 1 0.152284 7.04721 8.55604
486 1 7.16132 9.0209 0.115859
487 1 7.90855 7.07921 6.25125
488 1 8.4132 6.41725 7.12492
489 1 9.20993 0.844548 7.30648
490 1 4.88036 8.91272 3.49964
491 1 4.00936 8.39148 3.85575
492 1 3.01166 2.41259 2.61923
493 1 0.988346 4.89061 6.05979
494 1 5.15778 1.53908 4.85252
495 1 3.39912 0.538111 5.1806
496 1 3.39681 4.03122 6.7575
497 1 1.98967 5.04309 8.13816
498 1 1.59643 2.91483 3.9087
499 1 4.43756 8.19649 8.15199
500 1 6.14902 1.8465 7.55706
501 1 5.48267 5.14716 3.5617
502 1 9.15528 1.0444 6.29155
503 1 5.26191 0.805353 7.26494
504 1 7.03849 7.26043 6.95198
505 1 4.58618 4.24149 5.28528
506 1 8.46859 7.06553 2.66607
507 1 1.04013 0.767022 3.70589
508 1 5.00807 8.9911 2.39973
509 1 5.8342 1.03253 8.12878
510 1 9.22918 6.69151 1.11831
511 1 8.48467 1.80395 3.88137
512 1 8.85096 2.86664 1.84335
513 1 8.87904 4.11862 1.65622
514 1 8.81453 4.84101 7.54736
515 1 4.81305 9.05136 8.60116
516 1 3.14556 7.36673 3.152
517 1 0.717506 1.49528 7.15692
518 1 3.91394 2.70981 9.38293
519 1 1.83738 5.72378 2.77361
520 1 3.04851 6.06243 9.06951
521 1 5.28782 0.342128 4.91532
522 1 1.88037 9.24772 6.13424
523 1 1.97019 5.16603 3.84851
524 1 2.21136 1.59885 8.79421
525 1 6.85116 0.946193 1.6288
526 1 3.92537 3.72364 8.89725
527 1 2.5702 7.10344 2.2766
528 1 2.93424 1.29363 3.27734
529 1 2.99445 3.10028 6.30311
530 1 7.86886 9.03188 1.74012
531 1 0.844943 1.91489 5.11311
532 1 1.33333 4.32383 3.33918
533 1 4.00356 7.26324 8.02151
534 1 5.91145 7.41209 3.49422
535 1 3.618 7.78475 5.58211
536 1 4.09736 1.01153 3.39086
537 1 4.97235 2.26214 0.0303161
538 1 5.10392 1.98635 5.88647
539 1 8.60501 5.83415 2.74964
540 1 3.58031 6.28778 8.0687
541 1 3.21739 1.84606 1.71302
542 1 3.58762 5.50825 6.12008
543 1 1.96466 8.62652 0.0830422
544 1 3.28717 0.341443 8.81249
545 1 7.70675 6.35514 2.31068
546 1 5.43455 8.22876 6.57542
547 1 0.909592 8.98319 6.06324
548 1 0.600378 9.3436 4.42022
549 1 2.02597 2.18476 7.80748
550 1 1.1092 4.06819 6.61938
551 1 3.94309 5.52373 8.69136
552 1 0.240407 5.00231 1.41597
553 1 3.8678 3.57027 5.85317
554 1 4.47474 3.95325 4.28034
555 1 1.28381 1.78655 4.06267
556 1 1.26979 5.60218 5.3525
557 1 3.8519 7.84601 7.07624
558 1 7.06329 2.24664 5.51225
559 1 4.16751 6.50824 2.88398
560 1 2.35439 3.28486 4.55708
561 1 3.1094 4.47657 2.47748
562 1 0.594362 7.46666 7.52386
563 1 4.16131 6.82432 1.11362
564 1 6.49214 2.5288 3.65595
565 1 1.03377 0.822756 5.77598
566 1 1.28669 5.28 8.92738
567 1 8.30641 7.75877 6.96758
568 1 1.00159 1.20019 1.75742
569 1 1.40427 3.11856 8.37688
570 1 4.69141 6.1037 5.05397
571 1 8.37427 4.67772 5.37865
572 1 6.82257 5.54881 2.32508
573 1 1.31227 3.21683 1.89902
574 1 3.20197 2.6762 4.30947
575 1 1.19641 2.22884 3.13177
576 1 6.1441 3.61637 6.42757
577 1 4.52639 8.25907 9.20841
578 1 0.11439 8.50782 7.67613
579 1 6.04478 8.64449 2.39849
580 1 2.79778 7.15652 5.18798
581 1 5.69434 0.0541761 3.13931
582 1 5.87188 5.31952 1.81159
583 1 0.121237 2.04148 3.68459
584 1 5.28061 4.10342 0.637123
585 1 8.79282 9.37719 7.67212
586 1 5.1574 7.05556 4.5017
587 1 7.8712 0.688395 2.04392
588 1 7.68531 8.70044 3.54482
589 1 1.4204 8.56267 1.89091
590 1 7.1691 4.65167 5.74446
591 1 3.48892 6.55605 3.6896
592 1 8.20274 9.21833 5.49959
593 1 8.76546 5.32676 6.06398
594 1 7.04415 4.66762 0.589374
595 1 8.28696 6.83623 1.52657
596 1 8.13325 5.41838 6.85506
597 1 1.54717 9.20636 7.18321
598 1 1.47689 4.07588 7.84199
599 1 0.624902 7.93136 2.10685
600 1 7.01114 0.0293902 2.20407
601 1 0.00884718 7.73093 5.04816
602 1 8.79708 3.60043 2.66832
603 1 3.03275 3.819 5.10885
604 1 6.36258 8.44328 8.13167
605 1 4.47426 5.8831 7.8054
606 1 4.47514 3.64081 6.88213
607 1 2.11446 0.519449 8.80575
608 1 5.61882 8.35047 8.74145
609 1 0.435162 1.6463 2.62773
610 1 8.06318 4.20489 0.318441
611 1 4.90468 0.495454 1.61872
612 1 1.96864 3.66967 9.22236
613 1 5.64605 1.09716 2.17733
614 1 1.31118 1.53289 8.09828
615 1 1.9977 1.1355 3.73287
616 1 9.3347 3.27426 4.81104
617 1 0.198143 5.68709 3.85293
618 1 7.03568 3.5146 0.448874
619 1 6.03054 4.80343 7.12272
620 1 8.07847 5.24681 0.530709
621 1 8.80943 1.12664 4.5643
622 1 6.66185 8.02454 2.91597
623 1 6.42761 8.10799 6.86807
624 1 8.17997 2.55704 1.10834
625 1 1.29204 5.07789 1.19205
626 1 0.569165 4.73968 3.98216
627 1 0.249523 8.27732 3.18084
628 1 1.1192 3.08453 0.0175485
629 1 3.86292 5.64362 4.42727
630 1 4.11572 6.68952 7.19974
631 1 3.94276 1.08564 2.01318
632 1 2.09886 5.6341 4.82097
633 1 0.522683 8.89343 2.34268
634 1 4.79796 5.13508 4.61457
635 1 2.68487 3.52743 1.19375
636 1 7.22898 8.72781 8.54147
637 1 1.98809 6.00617 8.70961
638 1 5.37857 6.19365 5.84994
639 1 1.81023 1.3253 0.318143
640 1 7.02257 2.63311 9.20572
641 1 3.09637 6.98457 7.46638
642 1 8.25819 1.98561 7.89242
643 1 7.61965 8.1214 4.43409
644 1 3.31955 9.34745 0.892425
645 1 3.85008 3.69884 7.81928
646 1 5.89974 6.25123 4.95917
647 1 5.56043 1.38051 0.150988
648 1 6.2915 4.31988 3.87615
649 1 4.36623 6.36543 6.08725
650 1 4.17111 2.52365 7.6067
651 1 5.00876 6.30889 0.602682
652 1 3.37991 0.129413 7.18164
653 1 7.16349 0.0381533 5.13063
654 1 5.01836 7.45612 8.52117
655 1 3.06345 7.46291 1.37039
656 1 6.56302 2.58361 0.711989
657 1 5.34533 8.89394 0.210365
658 1 1.36772 7.14288 1.32715
659 1 0.42919 2.44029 6.92021
660 1 4.74485 5.62474 2.97702
661 1 5.91815 4.94777 0.757454
662 1 6.88512 4.29452 6.72496
663 1 3.57533 8.8506 0.00390488
664 1 0.306234 5.76845 5.91165
665 1 3.44611 0.50421 2.68183
666 1 1.31188 9.3979 5.20765
667 1 7.62001 1.11327 1.01312
668 1 6.28113 6.98529 4.40372
669 1 1.12778 3.28537 2.97967
670 1 6.11116 1.88738 5.07385
671 1 1.19529 4.94301 2.3757
672 1 4.92179 5.22741 0.792112
673 1 2.60728 1.79979 0.858216
674 1 1.12343 7.43426 6.65386
675 1 2.6383 0.0501852 0.134147
676 1 7.46686 6.94766 9.33287
677 1 7.83072 7.11706 7.6231
678 1 8.5247 3.28842 6.14884
679 1 7.85788 1.74275 6.02897
680 1 9.3693 7.46337 3.75191
681 1 3.33737 8.10352 2.33909
682 1 3.61527 4.58922 4.6029
683 1 4.06207 1.62225 0.250076
684 1 7.33803 7.98914 9.32302
685 1 7.75238 5.46849 5.89538
686 1 2.94284 5.51025 8.15408
687 1 5.42671 4.38637 4.41187
688 1 7.63013 7.51515 3.48569
689 1 0.105355 8.35554 5.88983
690 1 4.73561 0.563303 2.78762
691 1 3.51939 1.06465 0.946311
692 1 8.10547 9.33047 2.72594
693 1 8.19239 0.919779 7.66894
694 1 2.27982 7.31776 0.564305
695 1 4.50953 2.5084 8.55061
696 1 8.25861 4.64681 2.95677
697 1 4.72963 7.15948 5.45245
698 1 4.24828 4.57109 6.36047
699 1 0.188463 6.79601 5.64551
700 1 7.94555 8.74041 7.06351
701 1 3.27599 8.50634 7.68667
702 1 8.49117 2.6161 5.41141
703 1 6.35368 5.79446 5.96027
704 1 8.7569 4.6246 9.05615
705 1 5.82865 2.55272 6.64242
706 1 3.05217 2.76111 5.35252
707 1 7.26017 2.45019 2.97624
708 1 4.36524 7.92366 4.86526
709 1 2.74994 7.84879 7.01347
710 1 1.4824 6.10771 1.11167
711 1 2.02299 2.4744 0.197608
712 1 2.50552 4.17738 3.323
713 1 9.3045 5.79721 6.84095
714 1 0.59361 4.20591 4.93988
715 1 5.53886 5.28798 5.33244
716 1 5.07062 0.483357 3.864
717 1 5.3605 5.25907 6.44671
718 1 5.03889 3.06879 6.15638
719 1 8.02809 5.62179 7.81196
720 1 7.34863 5.93292 4.10509
721 1 2.32228 4.99398 2.1371
722 1 7.97634 3.6419 1.79012
723 1 8.80088 3.78462 7.21994
724 1 7.52424 1.21173 6.85644
725 1 5.48662 6.63125 9.10424
726 1 8.43752 8.7538 4.37777
727 1 2.76187 6.19096 6.5718
728 1 7.82818 0.157174 0.723991
729 1 1.72803 7.58452 2.19523
730 1 0.944217 4.17915 1.66703
731 1 0.855086 2.87874 0.912539
732 1 7.65929 1.07698 3.99386
733 1 3.15605 9.16049 1.97937
734 1 0.269641 4.50326 2.3637
735 1 7.35173 1.11091 5.1863
736 1 8.15161 7.37113 8.58171
737 1 0.807802 3.67268 3.9968
738 1 2.43878 8.18875 1.79586
739 1 3.64897 4.55661 8.51504
740 1 7.34667 0.189297 7.04827
741 1 3.37462 8.91228 5.39011
742 1 6.94564 3.48476 4.09179
743 1 0.604411 9.34568 7.54439
744 1 1.51946 1.1478 4.85186
745 1 4.45737 3.42854 0.546448
746 1 0.364046 0.651717 2.54768
747 1 0.626038 1.74516 0.97833
748 1 5.08097 3.88297 8.83831
749 1 6.68748 6.61632 0.676388
750 1 8.47016 0.858471 5.53975
751 1 6.05074 7.46438 8.39441
752 1 4.77485 3.33265 7.99154
753 1 6.54111 6.75057 7.82801
754 1 3.84194 9.10754 8.2664
755 1 0.714873 3.41668 5.72444
756 1 3.24327 6.3767 5.60425
757 1 9.37735 0.850754 0.607915
758 1 2.64886 7.96048 6.0043
759 1 3.4227 4.61958 3.58296
760 1 4.05514 8.85158 2.78093
761 1 9.21273 2.09116 4.75715
762 1 5.41815 7.79095 0.138675
763 1 8.10878 3.81371 8.69015
764 1 2.8283 4.58183 0.853069
765 1 0.465749 8.68483 1.30648
766 1 7.60162 2.85337 6.10979
767 1 5.43342 2.44091 4.3245
768 1 3.56628 4.05736 1.53739
769 1 0.930986 7.59432 5.52263
770 1 2.70523 7.66728 8.12819
771 1 6.3057 1.82064 1.52654
772 1 5.62831 1.15896 3.30827
773 1 3.68667 8.62767 6.48439
774 1 2.14766 3.01062 5.57254
775 1 0.228715 5.53467 2.6659
776 1 3.90993 1.55268 8.56307
777 1 6.48438 7.55452 2.01458
778 1 8.38898 6.49129 0.333751
779 1 2.7062 0.33829 3.58477
780 1 6.95043 5.00945 4.22996
781 1 7.60117 1.95653 0.247814
782 1 0.297036 0.474827 8.96597
783 1 8.82764 6.40199 6.11666
784 1 2.3494 9.2561 5.0897
785 1 1.7726 6.93991 3.02017
786 1 1.76432 5.56222 6.25181
787 1 0.379615 9.32257 0.465939
788 1 7.51068 8.39199 5.44758
789 1 1.1171 0.525698 8.27476
790 1 6.15613 2.82319 7.7879
791 1 7.74258 3.5445 2.77382
792 1 9.30554 6.74495 4.38485
793 1 7.83481 9.36799 7.95853
794 1 7.26604 5.92077 0.142008
795 1 0.0887476 3.10251 7.69263
796 1 6.72384 3.41091 3.07472
797 1 9.03403 0.185591 4.10848
798 1 3.00378 1.96213 8.1393
799 1 5.38676 2.05966 1.97991
800 1 7.09967 7.42306 8.42864
801 2 2.15003 4.03896 4.9898
802 2 8.95441 5.66965 7.63967
803 2 3.21567 1.36862 2.41995
804 2 7.38693 2.74236 0.678044
805 2 6.951 8.69643 3.99028
806 2 6.11113 5.5916 6.81275
807 2 2.71383 3.64085 6.98396
808 2 1.0378 7.19266 2.45857
809 2 4.75219 3.02476 9.189
810 2 7.6844 8.8566 6.12899
811 2 0.167276 3.18652 0.436247
812 2 2.76064 4.28005 1.76147
813 2 0.433135 1.85611 8.58278
814 2 2.55488 2.70476 0.916616
815 2 6.69237 2.79358 6.11039
816 2 0.6327 0.803484 7.57936
817 2 3.74048 0.0879449 5.96899
818 2 1.95041 4.76266 2.98529
819 2 8.24535 1.08265 6.2857
820 2 0.958373 3.01574 6.59401
821 2 4.67205 0.0954939 9.32981
822 2 6.6716 1.19364 7.97806
823 2 5.67655 5.81932 1.16954
824 2 2.74099 7.00745 6.0471
825 2 5.11843 4.64833 5.89537
826 2 3.75974 2.76057 2.47405
827 2 6.39342 6.08526 4.30491
828 2 7.03958 0.768628 4.50094
829 2 6.20547 4.56173 2.21176
830 2 7.60317 5.01961 9.25869
831 2 9.0509 0.325351 3.00887
832 2 6.72901 0.462259 5.78321
833 2 1.60535 1.68788 5.58302
834 2 5.84468 6.74484 0.621915
835 2 7.16029 3.62311 6.25408
836 2 7.71259 8.0451 8.48686
837 2 4.28206 0.567831 1.02802
838 2 0.307216 7.55101 6.10793
839 2 9.26353 1.93035 6.50038
840 2 8.85925 3.95212 0.202278
841 2 2.13435 3.64143 8.40786
842 2 4.18537 5.36464 0.219717
843 2 1.87931 0.362206 7.85254
844 2 6.03039 6.6552 3.14846
845 2 3.86205 6.94301 5.62567
846 2 5.65642 3.50657 8.09503
847 2 8.06322 7.89637 5.98204
848 2 8.43683 7.07531 3.68202
849 2 9.01539 5.96652 4.33852
850 2 2.30454 1.66235 1.61879
851 2 4.73199 3.83871 6.06521
852 2 8.99244 2.0704 1.49268
853 2 1.67971 5.52344 1.94178
854 2 6.18963 2.79812 2.89222
855 2 5.89716 4.98184 7.9279
856 2 8.00197 6.21385 6.22267
857 2 8.1477 4.45841 2.01221
858 2 4.41021 4.2443 8.33226
859 2 5.3246 1.59216 7.64811
860 2 6.64926 8.22632 8.91031
861 2 5.11008 5.90555 8.32203
862 2 4.18016 7.5253 8.88085
863 2 7.57765 4.77352 6.4945
864 2 7.71338 8.90562 4.7422
865 2 0.492842 0.0188596 5.43752
866 2 7.83584 3.49926 0.890665
867 2 5.06653 0.570932 8.17314
868 2 9.13062 4.27952 4.88333
869 2 2.30104 2.78717 6.94614
870 2 4.00535 3.1391 4.03044
871 2 6.04544 2.12897 5.96514
872 2 2.80213 1.05938 8.54135
873 2 5.96387 2.71678 1.54826
874 2 8.15114 0.0233568 3.83631
875 2 4.49131 7.06295 6.51432
876 2 1.6018 7.01238 3.9502
877 2 0.529844 4.2879 5.95854
878 2 1.19958 8.53393 8.88829
879 2 4.79175 2.80152 7.01867
880 2 3.03981 1.12569 5.67231
881 2 8.53626 3.90198 3.38161
882 2 2.61724 6.75795 9.20938
883 2 3.60156 0.396169 1.65213
884 2 0.4859 2.69288 5.2662
885 2 3.88612 1.74653 1.1285
886 2 4.49729 2.29883 3.43611
887 2 1.07387 8.12639 6.16508
888 2 4.69368 8.63975 6.47899
889 2 0.931909 4.00619 2.60438
890 2 8.34365 4.99427 1.28004
891 2 2.76841 0.686157 0.867098
892 2 7.11201 7.39073 0.589374
893 2 3.15398 1.05226 7.03907
894 2 0.687698 6.66062 0.884419
895 2 1.82541 0.433707 0.391933
896 2 3.23763 3.72238 3.14553
897 2 5.84278 2.00575 8.35876
898 2 7.18299 5.32076 7.54407
899 2 6.87992 2.38824 7.37466
900 2 2.56774 8.85441 5.73572
901 2 7.15183 8.93581 7.73606
902 2 1.67564 6.72777 0.509428
903 2 5.03852 4.90566 7.21359
904 2 8.93899 6.32186 9.03432
905 2 4.6848 6.69915 7.89617
906 2 8.794 3.15269 8.39384
907 2 2.57592 5.32146 0.442959
908 2 3.52235 8.40749 4.64133
909 2 3.82666 5.33511 7.84527
910 2 1.9447 7.19243 8.14851
911 2 7.18899 0.109873 8.85796
912 2 5.64431 0.9463 4.23998
913 2 0.821172 0.643982 4.8612
914 2 7.01418 4.00552 1.22017
915 2 3.92487 5.82422 5.29419
916 2 1.79795 0.342557 3.45614
917 2 8.83919 7.15155 6.79541
918 2 5.26342 3.27492 3.06974
919 2 0.6111 3.81843 8.39063
920 2 6.59163 7.71626 7.72972
921 2 1.33895 6.20176 3.39951
922 2 4.10411 0.941517 7.06611
923 2 5.31204 2.38491 5.18451
924 2 2.71906 2.74267 7.81348
925 2 1.0041 7.93718 1.40602
926 2 5.22271 3.54057 4.24899
927 2 7.46327 2.05493 8.48434
928 2 6.25997 6.58157 5.9601
929 2 0.937793 6.84207 8.99315
930 2 0.0912689 3.0903 1.34839
931 2 5.66023 8.33057 0.83315
932 2 2.0635 1.58307 7.1208
933 2 1.46263 1.15631 8.87066
934 2 4.23587 6.39917 2.01922
935 2 8.30579 6.02322 1.8271
936 2 1.95941 4.5859 8.91086
937 2 5.18035 6.43149 2.56889
938 2 3.00562 3.49796 8.74693
939 2 7.25093 3.14388 2.2028
940 2 4.07496 7.66653 1.39017
941 2 3.74404 3.25127 1.01764
942 2 0.525352 7.04925 4.80601
943 2 6.35114 3.13378 9.32991
944 2 7.42198 5.26452 1.17408
945 2 8.26352 4.01922 7.88076
946 2 8.82929 7.79068 1.053
947 2 5.89501 0.339107 7.43461
948 2 3.573 8.19689 3.13786
949 2 5.80414 8.78002 5.06117
950 2 7.37163 8.78019 2.75924
951 2 0.863302 2.67923 2.42887
952 2 1.8526 4.67072 6.57273
953 2 2.12556 3.46156 1.84899
954 2 4.30637 1.93183 6.29403
955 2 7.06721 8.71066 6.86382
956 2 0.606704 2.78947 3.52512
957 2 3.64098 6.2997 6.55852
958 2 3.06896 2.21817 3.49458
959 2 2.11767 7.49695 1.3746
960 2 1.21545 6.91562 7.27707
961 2 0.792414 1.52974 3.42508
962 2 4.68245 1.12441 9.34874
963 2 0.583557 5.36027 6.79788
964 2 4.05237 4.82825 1.7526
965 2 6.87169 6.33721 1.74517
966 2 8.9161 1.62669 3.16275
967 2 8.78531 8.49948 7.18035
968 2 8.71078 0.188637 4.95138
969 2 4.93159 9.11041 7.76787
970 2 5.39813 5.75727 4.41867
971 2 5.95063 0.651688 0.347995
972 2 7.37025 3.36159 8.82722
973 2 6.4356 2.6253 8.51919
974 2 8.33043 2.36199 6.26823
975 2 1.01656 4.86856 8.07819
976 2 3.55783 4.89981 6.79055
977 2 2.16558 3.97923 0.627384
978 2 1.49032 7.86098 9.38991
979 2 1.99607 3.49701 3.22834
980 2 0.477488 5.53209 9.35072
981 2 1.07605 2.2251 0.370322
982 2 0.745949 5.18261 4.84109
983 2 1.64687 5.55427 0.479651
984 2 5.17163 0.404409 6.39353
985 2 7.17048 6.19842 2.99118
986 2 8.85433 1.45735 8.14045
987 2 6.01391 8.85568 6.52127
988 2 7.46363 3.029 3.54041
989 2 2.36403 2.53788 4.17176
990 2 0.143829 8.78008 9.24436
991 2 3.34774 6.61136 2.60647
992 2 0.253015 7.58727 9.4011
993 2 4.83378 1.36848 1.85181
994 2 9.28051 1.72347 0.433318
995 2 2.56552 5.64212 5.82792
996 2 2.83021 6.14206 7.62112
997 2 0.10349 0.309412 8.11583
998 2 2.11956 6.61064 4.7548