#bin. KALJ data file T=0.5

1000 atoms
2 atom types

0 9.4 xlo xhi
0 9.4 ylo yhi
0 9.4 zlo zhi

Masses

1 1.0
2 1.0

Atoms

1 1 0.952243 3.79908 8.34
2 1 7.35808 3.59375 7.67186
3 1 2.41614 4.34517 2.14118
4 1 7.96162 7.02747 8.74521
5 1 1.31362 0.936258 4.89011
6 1 6.34162 0.422092 7.59651
7 1 9.30494 8.37703 0.0163765
8 1 4.19971 1.73208 4.6247
9 1 2.78869 3.19224 5.53264
10 1 9.10118 6.97496 7.66216
11 1 6.82995 0.825737 8.30596
12 1 7.65167 1.19402 2.23189
13 1 0.579043 2.80116 0.760115
14 1 3.34164 5.29203 2.72049
15 1 9.05841 2.57992 0.221993
16 1 1.05268 0.139161 6.55734
17 1 0.539699 3.56838 9.32995
18 1 8.00642 6.13854 1.93046
19 1 5.23587 4.29885 7.48603
20 1 6.9247 5.70758 7.6626
21 1 8.49895 3.30949 3.36276
22 1 3.17774 2.05944 6.15802
23 1 6.48484 1.88184 8.43955
24 1 3.10813 0.767303 7.36132
25 1 7.5895 2.03409 6.3834
26 1 9.21144 6.31231 3.07525
27 1 8.33838 7.97423 8.94744
28 1 3.32373 4.35666 4.59085
29 1 0.938575 2.5132 5.81734
30 1 0.816932 1.99799 3.10083
31 1 2.37576 4.7618 1.16804
32 1 4.92684 -0.00212845 5.26842
33 1 1.3919 1.11439 8.45841
34 1 4.983 8.09922 2.80962
35 1 8.21257 1.50816 3.10243
36 1 1.94573 1.43112 1.57626
37 1 6.28446 1.62523 1.0977
38 1 0.696167 8.41066 4.28994
39 1 1.26475 9.1116 5.65395
40 1 0.187292 1.30029 8.19146
41 1 8.16826 6.81275 7.05124
42 1 3.69102 7.55842 5.20901
43 1 1.8793 1.86493 0.586457
44 1 4.0571 3.69154 4.23921
45 1 4.90788 1.69319 7.37141
46 1 1.64448 5.47841 3.69446
47 1 2.7401 6.93571 8.44593
48 1 5.82014 5.74579 3.92943
49 1 3.33852 3.89603 7.20828
50 1 2.33366 1.00113 2.68956
51 1 2.46709 6.0536 4.1295
52 1 4.53614 1.40511 9.31647
53 1 6.37959 3.37485 3.85474
54 1 8.04954 6.01496 8.82924
55 1 1.09037 3.85927 5.00675
56 1 2.40616 4.46139 7.13604
57 1 1.76071 9.09028 8.37882
58 1 7.57105 8.6596 9.22991
59 1 8.87124 9.31081 3.42054
60 1 1.49614 5.18169 0.633672
61 1 5.25648 4.5115 2.24214
62 1 8.98902 0.373537 1.26799
63 1 4.94207 6.49749 9.00018
64 1 6.56848 6.84389 0.113792
65 1 6.3029 4.72798 6.01905
66 1 3.6809 3.52838 8.13553
67 1 3.2701 8.99844 2.89481
68 1 3.46216 7.1317 9.20991
69 1 3.15639 4.58178 0.573168
70 1 0.556808 4.53603 4.35857
71 1 8.50006 4.42675 9.20209
72 1 5.92892 8.44641 7.05159
73 1 1.87955 8.04203 0.494877
74 1 7.6339 7.60602 6.4723
75 1 9.22091 0.73645 7.21715
76 1 6.94093 2.36879 0.804925
77 1 2.94184 3.39413 4.54532
78 1 1.9331 6.81438 1.768
79 1 5.60267 8.43228 2.11692
80 1 8.33249 6.89069 4.47792
81 1 3.18795 0.630273 3.33838
82 1 8.0868 1.33806 5.01445
83 1 3.48581 8.3812 4.50853
84 1 1.50272 6.82818 8.61293
85 1 2.23012 2.91555 0.137056
86 1 5.80545 5.47185 0.7604
87 1 6.53546 3.13047 5.07099
88 1 0.847489 7.52936 8.10032
89 1 0.413372 3.64846 2.361
90 1 6.21607 7.59056 4.15581
91 1 1.58468 6.58039 6.8497
92 1 9.23956 8.04255 8.21555
93 1 1.07574 8.78207 2.46298
94 1 8.95507 7.58287 1.66332
95 1 4.24011 5.20546 3.3363
96 1 4.33994 9.00827 9.0223
97 1 2.94068 3.73951 1.40061
98 1 6.60318 8.65701 2.30237
99 1 2.93825 0.449481 5.52172
100 1 4.29426 0.711878 4.92511
101 1 3.31182 6.29966 2.42187
102 1 6.90305 0.1843 9.19391
103 1 0.474101 0.903853 1.75883
104 1 2.82193 9.10419 8.41482
105 1 6.94685 8.41796 6.6263
106 1 5.46067 2.92364 4.9239
107 1 7.19761 8.12978 2.97759
108 1 7.91691 0.503667 5.69024
109 1 6.80591 3.65821 2.10614
110 1 0.463802 6.05327 6.44875
111 1 2.92028 8.33424 7.68284
112 1 5.60264 1.56696 3.34098
113 1 1.57518 5.28269 8.75642
114 1 3.50802 6.43123 4.42869
115 1 4.71666 1.1495 5.81165
116 1 5.22296 6.88949 7.4468
117 1 7.09927 5.37257 8.6351
118 1 8.67874 0.490364 8.15369
119 1 8.78276 6.58237 1.12803
120 1 5.33233 7.31259 3.62519
121 1 5.77902 7.61207 5.52728
122 1 7.67039 0.638962 0.490752
123 1 1.42145 2.60961 3.81416
124 1 2.83513 7.24176 1.77382
125 1 7.0014 4.06639 3.25911
126 1 0.962506 5.12623 7.4495
127 1 2.26108 9.03496 5.39545
128 1 4.4066 0.608423 0.666828
129 1 3.47328 4.60794 1.74912
130 1 3.32545 5.39097 0.00512585
131 1 0.349966 1.29861 4.65817
132 1 6.93471 5.50376 4.04108
133 1 7.26517 5.98698 0.118293
134 1 4.08749 1.90292 5.81643
135 1 5.82157 1.39085 5.77844
136 1 0.951074 8.95348 9.19893
137 1 3.18452 5.97312 8.39214
138 1 5.77844 5.00037 7.00332
139 1 1.66382 8.30834 4.92835
140 1 1.53744 4.12331 6.16306
141 1 4.26073 8.93235 6.48686
142 1 1.51098 2.9974 7.7559
143 1 4.03818 8.28866 7.28285
144 1 0.610958 4.39082 6.68294
145 1 5.66349 5.87494 7.58134
146 1 6.79509 9.03509 3.2772
147 1 2.27109 7.63836 6.9157
148 1 6.06523 3.26139 6.77135
149 1 9.1796 7.472 2.64177
150 1 5.0062 8.92918 7.19644
151 1 1.67876 7.44036 5.43039
152 1 4.52656 7.81794 0.991107
153 1 9.30705 6.08599 0.437646
154 1 5.86065 3.95093 8.30727
155 1 7.43507 7.37869 4.35945
156 1 5.14223 0.50247 3.18982
157 1 7.68044 0.885293 6.60832
158 1 4.06815 1.45853 6.88281
159 1 8.59968 8.22399 3.35611
160 1 7.12275 0.0816763 6.99642
161 1 8.68654 4.55394 1.39731
162 1 8.64815 0.840393 0.16204
163 1 8.4045 3.38868 7.30983
164 1 6.68395 7.18142 3.24079
165 1 7.98103 7.25858 1.38521
166 1 9.37394 5.46371 5.74181
167 1 3.49025 7.41101 0.804416
168 1 6.45692 4.60402 8.96954
169 1 4.56266 5.93779 5.87193
170 1 2.80078 0.353938 9.24688
171 1 8.99398 2.78321 2.52073
172 1 4.2173 1.83525 2.09731
173 1 6.0314 6.2782 1.35596
174 1 2.51092 4.03956 3.9475
175 1 4.47974 8.89113 0.624222
176 1 0.247891 0.70465 6.23835
177 1 1.4543 8.85118 3.75801
178 1 8.5912 7.78815 6.93908
179 1 5.3138 6.19828 2.24418
180 1 2.49324 9.2519 7.37738
181 1 9.02763 5.7131 1.64822
182 1 5.10263 2.45299 9.25457
183 1 4.00283 8.06421 0.0223791
184 1 2.76169 1.60275 8.08459
185 1 0.306408 4.48417 7.84886
186 1 8.68845 7.27683 5.41116
187 1 3.68802 2.78462 1.0501
188 1 1.74325 5.70818 1.58464
189 1 0.507673 2.98454 4.86236
190 1 8.59272 4.96313 4.17874
191 1 6.37025 4.0032 7.42438
192 1 8.65196 5.86398 7.12125
193 1 3.53511 6.76132 6.3734
194 1 4.49445 3.01884 8.50715
195 1 8.1987 0.454331 2.73758
196 1 2.33101 1.10711 3.88005
197 1 1.60414 4.50329 4.31643
198 1 2.84707 3.1887 7.70275
199 1 1.85077 5.5799 4.80556
200 1 3.4558 1.32231 5.28609
201 1 7.02098 6.40676 8.58858
202 1 9.04899 2.91011 4.34262
203 1 1.76706 5.56633 6.96337
204 1 6.04424 3.6004 5.80183
205 1 8.93264 5.19012 7.9007
206 1 0.271899 3.01849 3.32709
207 1 6.55041 1.7985 6.41796
208 1 7.83789 5.65507 5.48099
209 1 5.38276 1.14385 0.393119
210 1 1.84005 4.52033 8.09908
211 1 2.94318 2.72814 2.8482
212 1 6.21423 8.15652 1.31311
213 1 3.29175 1.05451 6.31253
214 1 7.11369 3.3952 0.482198
215 1 1.00463 6.57851 4.92012
216 1 5.17735 3.94947 6.54959
217 1 6.42048 8.94826 0.479168
218 1 3.99118 3.53182 1.60766
219 1 5.55667 4.67161 9.36238
220 1 9.12972 3.66067 1.44123
221 1 0.580199 8.6602 6.83436
222 1 4.98601 3.62861 1.61846
223 1 1.53441 8.57216 1.48984
224 1 5.84697 5.33115 1.86829
225 1 2.78411 4.91075 5.29308
226 1 8.96672 7.55602 0.598461
227 1 4.64901 9.32472 2.38968
228 1 6.1218 3.71346 0.16769
229 1 1.96283 0.76599 5.90423
230 1 3.64753 0.407172 2.32124
231 1 1.09334 5.22321 6.31803
232 1 4.66814 5.49839 8.0314
233 1 0.218943 7.86907 7.27987
234 1 0.819177 0.844392 9.30956
235 1 6.79225 5.19322 5.09226
236 1 3.80975 0.63714 9.25114
237 1 7.59761 1.6648 8.37843
238 1 5.35745 7.28928 8.37987
239 1 2.53854 6.68275 6.70193
240 1 5.83668 0.0197245 6.77547
241 1 4.92454 5.54874 1.43339
242 1 7.52445 2.42118 5.32313
243 1 3.52745 8.41979 0.906637
244 1 7.92873 1.6538 0.0954307
245 1 6.83504 2.81814 2.70567
246 1 0.358891 5.27756 0.975398
247 1 8.01069 2.5202 3.05616
248 1 7.68938 7.17446 5.52311
249 1 9.37996 5.1845 6.80545
250 1 3.11484 8.03261 3.45592
251 1 9.16924 2.10144 5.12909
252 1 4.21219 4.40674 2.51379
253 1 0.848963 5.6409 5.30797
254 1 8.69184 1.83358 4.20612
255 1 6.82843 7.7133 7.52639
256 1 0.490364 5.5017 8.49833
257 1 2.6856 8.00916 8.61342
258 1 3.78781 1.38728 3.72149
259 1 3.77298 5.55623 7.47539
260 1 5.03111 1.97324 6.33119
261 1 6.30708 3.53869 1.15537
262 1 3.77799 2.14697 2.95833
263 1 8.35441 2.98041 5.22895
264 1 7.66717 4.95404 3.63494
265 1 5.95497 4.9134 4.59224
266 1 8.40553 6.31252 6.06244
267 1 2.84398 1.72044 1.14817
268 1 5.06168 2.9215 6.82399
269 1 2.68086 5.1312 8.54212
270 1 6.75286 8.70932 7.6407
271 1 0.0278894 9.00019 8.61365
272 1 6.76951 4.14991 5.29392
273 1 7.98587 4.02988 3.81411
274 1 6.38437 6.64529 7.72642
275 1 4.37477 6.53331 7.92154
276 1 8.21145 6.60913 2.91127
277 1 5.62436 4.11337 3.3042
278 1 1.67469 3.22137 5.63332
279 1 1.27681 0.269878 2.88581
280 1 4.78693 2.62943 0.958939
281 1 5.2316 7.73774 4.61127
282 1 5.60079 9.01307 3.03095
283 1 8.51854 8.79776 4.22843
284 1 6.66735 7.50178 6.09789
285 1 5.16805 4.97975 3.86963
286 1 8.8783 8.75642 6.58519
287 1 5.14569 9.12232 8.21007
288 1 0.614844 9.30157 1.5945
289 1 5.90737 1.90189 4.51407
290 1 2.08696 9.2596 6.42717
291 1 3.02589 8.38468 5.50407
292 1 2.11913 4.9455 6.25745
293 1 2.42963 8.52056 4.15004
294 1 0.245512 4.57511 8.9867
295 1 6.88142 4.91392 6.91157
296 1 5.57229 6.54765 0.40164
297 1 2.48701 3.81265 0.563816
298 1 4.1234 6.62269 5.27987
299 1 4.40006 7.20498 4.49126
300 1 6.2509 4.43975 2.46941
301 1 8.34086 9.3348 7.27446
302 1 9.22972 0.554877 4.14547
303 1 1.50862 8.09368 8.90151
304 1 5.50811 2.76342 3.18804
305 1 3.67622 1.18918 1.53003
306 1 0.48545 9.2227 3.62017
307 1 6.48558 0.899761 1.89713
308 1 5.88742 0.287134 5.68992
309 1 1.35975 4.05221 7.35339
310 1 2.58955 2.13787 5.30088
311 1 8.19302 8.44496 1.61358
312 1 0.777785 5.62375 1.94344
313 1 7.10714 0.143731 1.37213
314 1 5.05257 4.58818 8.41359
315 1 3.31863 4.80905 6.77461
316 1 1.27031 3.20625 2.9966
317 1 8.96672 1.80416 7.48719
318 1 8.8937 5.41889 9.03837
319 1 3.20921 0.0367908 6.55109
320 1 6.24289 8.71281 4.10195
321 1 2.52144 5.05567 4.26023
322 1 2.17827 8.85193 9.35581
323 1 5.29568 8.40039 3.82709
324 1 5.35707 4.51223 1.06537
325 1 6.34958 4.58249 0.628008
326 1 2.00786 8.23726 6.08953
327 1 4.55192 8.38173 1.89055
328 1 3.50093 1.56859 8.91897
329 1 8.24242 2.98213 1.8183
330 1 3.3248 8.84067 9.26575
331 1 3.8924 1.50463 7.92006
332 1 2.19874 2.48557 8.47818
333 1 5.56173 5.28041 2.97397
334 1 3.53527 5.8834 5.68509
335 1 6.26972 2.64458 1.72503
336 1 0.574928 4.61375 5.421
337 1 3.53483 7.53917 7.96751
338 1 8.24863 2.43313 7.96484
339 1 0.049462 5.31309 4.64983
340 1 8.09626 8.80453 2.64747
341 1 7.38309 9.2461 8.33906
342 1 4.70034 5.95612 0.466548
343 1 2.32052 3.59389 2.98981
344 1 3.14339 9.25402 4.0102
345 1 5.25948 6.58797 5.38742
346 1 7.97263 2.72995 0.628072
347 1 3.51065 3.65527 0.438064
348 1 8.09968 5.03539 8.41998
349 1 6.35637 2.93094 7.82149
350 1 4.45238 5.86074 4.15323
351 1 7.81789 4.17819 1.86847
352 1 3.26951 0.691478 8.41397
353 1 9.05618 2.43307 1.36
354 1 0.812988 0.207769 8.42696
355 1 7.93185 5.98505 0.886581
356 1 4.20705 4.52172 7.74771
357 1 8.06228 9.10103 0.758446
358 1 6.41815 6.62566 4.09549
359 1 4.19438 4.26245 8.74782
360 1 2.17295 4.00641 5.14749
361 1 3.27517 3.40929 3.57042
362 1 4.86435 3.61338 2.73799
363 1 7.43462 4.35976 0.712508
364 1 2.35985 2.23636 7.35752
365 1 0.59902 2.48467 9.1242
366 1 6.71206 7.20083 5.05725
367 1 0.818679 4.38803 0.712915
368 1 2.32657 0.15936 4.51119
369 1 6.26517 4.97047 8.04645
370 1 5.46304 0.119767 0.520263
371 1 1.54387 4.77728 5.3926
372 1 2.82354 4.20123 8.08443
373 1 7.00367 7.57843 0.861182
374 1 7.73334 4.84402 4.81692
375 1 4.75179 7.52332 5.47296
376 1 1.74573 0.405992 9.1567
377 1 1.72841 6.14017 0.0195892
378 1 5.39863 2.05918 1.59639
379 1 8.51639 5.291 6.23341
380 1 6.2618 4.83813 3.63328
381 1 2.34021 0.90162 0.646925
382 1 7.50642 6.43484 3.74289
383 1 0.881697 7.14319 6.14344
384 1 4.01114 8.20477 2.83166
385 1 4.80977 8.17031 8.5781
386 1 1.21442 1.48746 4.00076
387 1 9.00014 1.18028 5.57995
388 1 8.6446 1.47245 8.63817
389 1 5.95916 3.85091 4.7047
390 1 2.89564 6.71558 3.4465
391 1 4.69005 1.55047 1.05963
392 1 7.66167 1.63812 3.99805
393 1 0.492588 6.57681 8.36381
394 1 8.01254 3.60746 1.04546
395 1 9.067 1.00209 3.13435
396 1 3.60345 2.50554 3.99956
397 1 3.68065 5.08909 8.47081
398 1 7.28877 4.74587 2.51367
399 1 7.7545 3.44734 2.57665
400 1 8.14859 7.66423 2.42976
401 1 2.30049 1.54929 6.54841
402 1 8.93938 9.0542 2.03853
403 1 1.38527 4.76818 1.5599
404 1 6.07919 6.65637 6.01584
405 1 4.15345 2.51844 6.56618
406 1 5.56125 0.880095 1.33031
407 1 6.99674 1.28274 9.33265
408 1 0.87776 3.642 1.41984
409 1 3.80746 3.53422 5.25475
410 1 1.02922 2.1008 4.77872
411 1 6.25419 0.688077 3.14112
412 1 8.26721 0.81683 3.85728
413 1 1.4822 9.3398 0.705287
414 1 7.85633 1.66231 7.31949
415 1 0.14524 1.06264 0.750929
416 1 7.01105 1.99148 1.96944
417 1 8.75632 5.99735 5.03448
418 1 3.33845 0.749383 4.44447
419 1 7.14965 1.83582 2.982
420 1 0.580152 1.51788 5.63057
421 1 6.21429 6.21547 4.99094
422 1 6.46523 2.05349 5.36089
423 1 0.437985 2.79741 1.77608
424 1 5.18657 0.126987 4.16057
425 1 1.90137 3.19656 4.55036
426 1 5.83031 1.30581 7.87658
427 1 8.0727 5.01615 7.13729
428 1 2.87436 8.46599 6.53974
429 1 4.98242 7.3996 1.92538
430 1 4.08436 0.340592 3.88842
431 1 8.52718 1.46604 6.59822
432 1 4.97322 0.309773 6.32147
433 1 4.88401 8.0821 6.52665
434 1 7.29826 7.92519 1.93051
435 1 2.50476 2.00389 2.32887
436 1 8.46306 9.31821 9.06489
437 1 7.97968 8.01849 0.538211
438 1 8.40328 8.71243 8.22157
439 1 3.49766 7.34734 2.62727
440 1 6.76007 4.66607 1.62632
441 1 5.11023 2.37487 4.01674
442 1 5.78711 2.54989 5.97946
443 1 3.91169 6.91653 1.51628
444 1 9.17442 6.80494 6.67479
445 1 4.36982 2.02336 8.55898
446 1 9.14493 4.37508 6.0917
447 1 2.47211 4.79107 3.19289
448 1 6.06367 7.34173 6.87125
449 1 0.757461 7.82119 0.301446
450 1 3.21308 4.24959 9.0566
451 1 6.6178 8.47523 8.90184
452 1 5.15971 7.09411 6.46064
453 1 4.19404 7.95026 3.80791
454 1 6.33341 8.50049 5.57742
455 1 7.52947 5.63593 6.48337
456 1 7.30251 6.38133 4.75444
457 1 5.08409 9.2773 1.432
458 1 2.38411 7.19003 2.70177
459 1 9.34153 6.66053 2.05714
460 1 5.81619 2.22569 7.07195
461 1 8.7811 3.80834 2.42731
462 1 2.32726 0.0839062 3.36342
463 1 3.73355 1.43882 0.554043
464 1 9.34648 3.37422 6.73983
465 1 1.84234 8.12843 7.84374
466 1 7.19955 0.205914 2.55603
467 1 4.4271 3.23515 0.120113
468 1 7.44972 0.709293 4.59711
469 1 8.95791 3.93787 4.06847
470 1 1.29705 2.23103 6.89991
471 1 5.13377 0.600679 7.39218
472 1 4.99671 5.0207 6.15919
473 1 8.06041 3.4514 8.3655
474 1 2.82282 8.12851 2.492
475 1 3.44467 2.47198 8.3101
476 1 9.37605 0.596728 8.87351
477 1 0.124116 7.40993 8.99964
478 1 9.35151 9.07165 4.72518
479 1 1.432 2.71626 1.32297
480 1 7.84712 8.39649 7.37237
481 1 3.58999 7.93189 1.79092
482 1 5.84484 6.45236 3.22477
483 1 4.65181 5.31404 9.06752
484 1 8.16912 2.54124 9.00244
485 1 6.29146 5.69174 9.26929
486 1 0.427109 4.12106 3.39146
487 1 0.835232 5.7301 4.23589
488 1 8.03205 5.7835 4.3349
489 1 0.272015 8.30775 1.79289
490 1 7.58647 5.81533 2.85486
491 1 7.75916 7.36182 3.41013
492 1 1.05936 7.70434 1.35616
493 1 8.133 6.92648 0.411631
494 1 5.34626 3.4616 3.99365
495 1 3.42329 2.38047 1.9622
496 1 4.46328 2.94241 3.46105
497 1 8.95505 8.50759 0.987101
498 1 7.2887 2.6812 8.24913
499 1 4.36964 2.80037 4.56835
500 1 6.82157 5.42664 0.901377
501 1 6.34068 5.83928 6.62894
502 1 1.38052 2.34627 2.30876
503 1 3.18501 7.35783 4.23722
504 1 6.41016 6.41014 2.39567
505 1 8.74233 4.24128 8.20636
506 1 2.43559 6.03204 5.81575
507 1 7.44626 6.80297 7.77337
508 1 3.90903 6.32338 3.46355
509 1 1.55612 2.03962 9.07814
510 1 5.29961 1.27279 2.38153
511 1 5.03648 2.05416 5.24471
512 1 8.29122 5.09077 2.34935
513 1 1.86889 8.23009 2.97305
514 1 0.755314 5.83494 3.08963
515 1 8.11075 8.03394 4.80918
516 1 2.24834 7.53732 3.73714
517 1 0.146346 1.853 2.19001
518 1 0.502975 2.61009 7.38754
519 1 3.6388 4.34394 5.90081
520 1 3.40966 2.23583 7.27611
521 1 0.139429 1.75321 6.68779
522 1 5.81061 8.36303 8.08407
523 1 1.79973 7.79791 2.04155
524 1 0.846386 0.73622 7.42934
525 1 9.35211 2.39997 8.29021
526 1 6.07899 1.89695 9.36375
527 1 5.83271 0.876324 4.05985
528 1 5.92047 5.56963 5.64446
529 1 7.42651 4.82272 5.84682
530 1 7.38996 8.17565 5.65208
531 1 7.18231 8.54003 1.11299
532 1 2.79491 6.40998 9.38209
533 1 4.45967 7.31225 3.06181
534 1 6.05049 8.08493 3.18201
535 1 7.84341 8.98321 6.43943
536 1 8.77051 7.06508 3.60667
537 1 1.41509 3.46076 0.520586
538 1 4.44072 8.74736 4.36616
539 1 4.01763 0.348535 5.93915
540 1 1.45156 3.07157 8.87502
541 1 6.24597 1.82161 2.55886
542 1 8.86149 3.5271 0.43554
543 1 3.55477 9.20039 7.59039
544 1 9.03276 7.89098 4.34765
545 1 8.65874 4.89761 5.32279
546 1 1.37243 6.27988 5.91419
547 1 1.24343 7.82469 6.93269
548 1 0.0454132 7.79779 6.23168
549 1 8.7524 2.4818 6.6625
550 1 8.39493 8.08477 5.95543
551 1 6.75331 3.58592 8.72689
552 1 1.21343 0.933007 0.944162
553 1 1.82696 0.580798 7.09203
554 1 0.812405 4.83607 2.72125
555 1 6.69871 1.39236 3.87297
556 1 2.11466 2.5614 6.24482
557 1 0.279669 4.54329 1.82935
558 1 8.71478 4.56459 3.19563
559 1 1.48445 7.03023 0.591981
560 1 2.05379 2.07801 4.45472
561 1 9.30864 3.68148 5.14432
562 1 1.65168 1.77696 5.70164
563 1 4.86701 6.07026 3.20714
564 1 6.66273 0.682531 6.23976
565 1 7.49503 3.49701 5.62127
566 1 2.12786 9.04483 2.40599
567 1 0.276657 6.03092 7.46926
568 1 4.58524 4.23205 0.318745
569 1 7.24238 2.98792 1.52914
570 1 7.06364 5.73295 1.83518
571 1 2.33745 6.17549 7.51522
572 1 2.67342 0.635556 1.74947
573 1 8.52415 3.50741 6.13301
574 1 4.83494 2.71783 2.15967
575 1 7.96612 2.64096 4.18361
576 1 4.27101 5.02215 5.35075
577 1 3.78347 8.54478 8.29519
578 1 3.71202 9.20251 5.10332
579 1 0.984997 8.18491 5.94379
580 1 1.60304 7.19612 4.42298
581 1 0.226728 9.02462 5.96469
582 1 5.93976 2.89467 8.84351
583 1 8.69323 1.70833 0.678763
584 1 1.39168 4.0159 2.289
585 1 2.68992 9.131 0.830735
586 1 5.75897 3.39375 2.34306
587 1 5.33899 8.49718 0.644654
588 1 8.63834 5.31774 0.635418
589 1 3.49051 4.41319 3.47626
590 1 5.53373 5.50976 8.54936
591 1 4.3275 7.27578 8.68118
592 1 7.49767 4.32816 8.77306
593 1 0.363033 2.17656 4.03466
594 1 4.80585 2.03324 2.93572
595 1 6.93116 2.52297 9.14013
596 1 0.77589 5.52273 0.0216347
597 1 6.35389 2.30386 3.59688
598 1 8.68735 0.421825 6.39909
599 1 2.49539 2.67417 3.76176
600 1 2.86184 7.94791 0.195835
601 1 7.82239 0.809644 8.8369
602 1 4.2569 4.39832 6.75549
603 1 1.01826 3.59408 3.96498
604 1 4.29803 0.380168 8.07382
605 1 1.05388 2.12915 8.20498
606 1 0.587283 7.58402 5.17093
607 1 2.08829 3.48146 6.84259
608 1 8.98176 6.12857 8.25005
609 1 1.54553 0.428329 1.75832
610 1 4.09652 0.452414 6.93851
611 1 3.97348 3.15969 2.58612
612 1 0.0126739 1.65644 9.32436
613 1 6.45897 7.27021 1.74934
614 1 8.39724 2.0109 5.77632
615 1 0.583808 8.64306 0.804939
616 1 0.000882103 3.32715 7.94504
617 1 3.22494 3.92863 2.60871
618 1 7.03332 6.3537 5.74374
619 1 5.30894 3.11655 7.80392
620 1 2.26987 4.70981 0.0218478
621 1 6.45243 1.04959 4.93056
622 1 4.70179 5.38082 2.4481
623 1 1.28015 7.5394 3.41005
624 1 5.63178 8.83721 4.85738
625 1 4.94552 0.447263 9.04238
626 1 8.25093 3.9651 4.95868
627 1 9.38652 6.90107 4.58704
628 1 1.71517 5.13624 2.4859
629 1 7.51258 8.13074 8.24906
630 1 0.28242 0.183422 2.59975
631 1 0.742995 6.84697 2.78391
632 1 5.36233 2.17069 8.21597
633 1 1.73928 6.61239 3.53371
634 1 4.76128 1.18534 3.96483
635 1 4.54517 8.98509 3.36031
636 1 5.49621 7.46127 1.02128
637 1 4.58552 4.02208 5.70185
638 1 8.27979 7.59969 7.94736
639 1 6.92476 4.34831 4.24173
640 1 7.89726 4.17733 6.63173
641 1 9.31613 8.9597 7.55017
642 1 5.59778 0.353719 2.27983
643 1 5.54457 8.88012 9.09793
644 1 2.91372 1.77465 3.34532
645 1 4.45901 4.56967 1.51767
646 1 5.94978 6.53897 8.69227
647 1 6.89653 8.18482 4.6688
648 1 6.96248 2.38511 4.43423
649 1 9.30656 5.31894 2.52532
650 1 5.92275 0.920989 8.84245
651 1 7.34434 4.63943 7.75849
652 1 5.53207 4.51961 5.4206
653 1 6.3629 7.56299 8.50085
654 1 7.79104 5.0799 1.31065
655 1 1.86638 7.09424 7.64715
656 1 2.1248 3.02993 2.13675
657 1 3.86335 7.91247 6.20793
658 1 0.87071 8.59551 7.97045
659 1 1.33877 4.37221 9.1826
660 1 2.71454 4.03776 6.25887
661 1 2.59517 2.79827 1.22292
662 1 2.83646 7.54902 5.99627
663 1 0.748016 6.62185 9.32763
664 1 9.29996 9.35015 0.311441
665 1 4.01757 5.14515 0.829838
666 1 0.130069 5.12659 3.56743
667 1 2.16477 7.29214 9.2192
668 1 4.27864 6.1908 6.80978
669 1 6.79013 2.78046 6.01202
670 1 7.00628 9.24399 5.90883
671 1 9.29309 8.27192 5.31756
672 1 6.60876 5.52985 2.94831
673 1 4.43058 8.59614 5.54123
674 1 2.5312 5.64493 0.653782
675 1 0.247289 7.68316 3.47618
676 1 2.68479 5.32016 2.01971
677 1 4.73325 5.27374 7.04633
678 1 7.82394 2.0901 1.42169
679 1 4.35661 2.61686 7.58768
680 1 2.15791 6.08709 8.50377
681 1 5.47664 8.82374 5.9826
682 1 5.26955 3.46429 0.605666
683 1 6.49712 0.629181 0.651449
684 1 6.15159 9.19661 1.51007
685 1 8.96385 4.23883 7.07717
686 1 3.2815 7.52732 6.99308
687 1 5.287 6.02635 6.58502
688 1 7.23731 7.628 9.21475
689 1 7.69114 0.618233 7.66365
690 1 7.08884 6.59487 1.00569
691 1 2.52624 8.15356 1.31105
692 1 9.37697 2.79519 5.85252
693 1 0.733701 6.69747 3.82751
694 1 0.357643 7.06701 1.02271
695 1 1.49392 9.03383 7.38492
696 1 7.8618 5.89693 7.69152
697 1 4.26386 7.28088 7.04302
698 1 7.58058 3.11161 6.68137
699 1 0.738468 6.95617 7.23452
700 1 7.28738 1.28602 1.21467
701 1 7.66831 9.02905 5.04671
702 1 0.460239 0.40865 5.26685
703 1 3.29188 0.520242 0.845721
704 1 5.15027 5.50885 4.88945
705 1 5.74646 1.16184 6.73331
706 1 2.99656 5.79724 6.6335
707 1 3.92342 3.4995 6.43842
708 1 3.93474 9.35941 1.42977
709 1 3.69641 2.5774 9.2246
710 1 3.03969 6.67156 5.29023
711 1 4.97365 1.11764 8.29551
712 1 0.962532 6.60367 1.75369
713 1 3.44855 5.44421 4.78058
714 1 6.63952 9.31621 4.89418
715 1 5.23197 6.49747 4.27983
716 1 1.19424 1.17065 6.52995
717 1 2.06556 6.58186 5.06295
718 1 7.76306 5.08998 0.0845283
719 1 3.06744 1.72121 4.41186
720 1 6.94065 6.71647 6.78304
721 1 3.59859 6.15045 0.739117
722 1 5.05519 7.91539 7.50888
723 1 2.85997 2.05066 0.184645
724 1 0.867493 1.78373 0.430805
725 1 8.54514 0.39214 4.8727
726 1 5.1775 3.6772 8.97249
727 1 7.01211 2.31163 7.27906
728 1 0.681871 3.57821 5.91115
729 1 1.86154 1.87455 3.21315
730 1 6.16727 9.33742 8.41951
731 1 2.97133 3.21864 8.85118
732 1 4.36006 6.94209 0.428129
733 1 2.52076 7.63416 4.90883
734 1 3.01429 9.02404 1.87427
735 1 1.55177 6.2419 2.50605
736 1 2.53228 6.97594 0.845364
737 1 2.93033 6.17987 1.45765
738 1 1.27621 5.99404 7.9102
739 1 1.59174 1.4955 7.47975
740 1 3.79268 5.63005 1.78928
741 1 8.60788 9.01176 5.54181
742 1 4.27358 1.04756 2.82314
743 1 6.16457 7.78297 0.312267
744 1 4.56533 4.23719 3.56524
745 1 1.88732 3.75965 1.4304
746 1 7.45285 3.52029 4.6133
747 1 0.660227 0.829187 3.43508
748 1 5.10405 7.56586 0.0446926
749 1 7.66341 8.36837 3.93725
750 1 7.72503 9.29802 3.58196
751 1 2.77897 5.29535 7.58329
752 1 7.93191 3.52772 9.37083
753 1 6.83435 1.30827 7.35155
754 1 8.47572 1.99055 2.23569
755 1 5.81252 7.27615 2.56284
756 1 2.17037 3.82564 8.82215
757 1 8.52051 5.57625 3.24424
758 1 7.29981 3.15033 3.54671
759 1 8.95636 3.24628 8.82445
760 1 4.26103 4.80894 4.32416
761 1 8.90739 1.03098 2.16176
762 1 5.91563 2.67786 0.623453
763 1 9.21824 4.45542 0.574579
764 1 3.41058 6.55774 7.4541
765 1 0.996629 6.10327 0.833643
766 1 1.04546 3.25783 6.77738
767 1 4.69053 3.00786 5.76244
768 1 6.85651 3.91026 6.39427
769 1 3.95082 6.24108 8.98795
770 1 0.0668715 8.53932 2.87991
771 1 8.29566 1.04865 1.3567
772 1 6.72406 0.35355 3.98217
773 1 4.37049 6.49137 2.37176
774 1 2.25864 1.30281 9.0218
775 1 4.99406 6.58849 1.30032
776 1 1.58407 4.2638 3.34584
777 1 4.884 4.11861 4.70706
778 1 1.47019 0.464928 3.92838
779 1 4.55085 0.796256 1.80969
780 1 7.15295 1.36124 5.63447
781 1 2.44907 5.91812 3.03249
782 1 2.24512 0.707609 8.16501
783 1 3.57738 2.46629 5.1116
784 1 1.09005 9.26795 4.65387
785 1 7.30998 6.91175 2.47879
786 1 3.30499 1.36579 2.46343
787 1 9.11556 6.04303 4.00688
788 1 9.18198 1.94919 3.19416
789 1 7.41109 0.893327 3.28246
790 1 1.24281 1.29767 2.43987
791 1 8.05699 0.123437 1.80223
792 1 3.01699 2.95874 6.66061
793 1 4.3999 3.55767 7.41541
794 1 8.88112 6.62925 9.09767
795 1 3.37308 5.52241 3.69363
796 1 0.127708 6.54195 5.61369
797 1 0.73922 1.86757 1.41624
798 1 2.37068 1.14229 4.96912
799 1 5.27895 1.05865 4.91588
800 1 0.775774 7.83625 2.49769
801 2 9.01483 2.72046 7.52958
802 2 8.21529 2.19236 4.88266
803 2 3.06736 1.17902 0.148445
804 2 3.55185 9.00556 5.92453
805 2 5.13224 6.867 2.83187
806 2 4.24467 7.53299 2.253
807 2 9.2273 4.49801 4.80956
808 2 0.590336 2.68471 2.63878
809 2 2.73404 5.92821 4.97104
810 2 0.696159 8.59584 5.1945
811 2 3.59369 7.30606 3.46282
812 2 7.67963 6.64628 6.32627
813 2 6.9594 6.32834 3.16636
814 2 8.56404 8.63647 0.202749
815 2 2.6583 1.37557 5.70294
816 2 2.71374 7.13783 7.60571
817 2 6.63748 7.67228 2.49564
818 2 4.04679 5.80912 2.82732
819 2 2.52851 0.671526 6.5553
820 2 3.37631 4.68603 7.64019
821 2 1.76296 0.274836 5.18898
822 2 0.432241 7.34331 1.84418
823 2 3.90059 4.77573 9.3226
824 2 9.14355 1.38131 1.47363
825 2 7.55085 2.59235 2.28308
826 2 3.74175 4.29956 1.05071
827 2 1.64115 1.1342 0.212665
828 2 8.77735 8.36445 7.54679
829 2 1.94421 5.41401 7.82601
830 2 5.87608 7.51711 7.71093
831 2 5.2938 2.0062 0.569506
832 2 6.37414 5.78443 8.28783
833 2 3.652 3.10114 7.26782
834 2 4.89987 3.79878 8.1735
835 2 7.40932 6.75713 9.32128
836 2 1.86504 1.76892 8.24926
837 2 0.541073 3.82733 7.35675
838 2 9.24628 1.99869 5.96879
839 2 6.73841 4.26845 8.23177
840 2 6.93589 4.04912 9.37259
841 2 6.83296 5.43891 6.0901
842 2 0.267117 6.21347 1.2792
843 2 5.55348 0.465692 8.16361
844 2 2.04537 6.33581 1.05578
845 2 0.638275 1.74622 7.55508
846 2 4.47042 7.38315 7.84221
847 2 8.33622 4.37051 0.60941
848 2 8.82691 7.25766 8.43515
849 2 0.126742 9.36737 6.71812
850 2 8.83409 1.16712 4.69605
851 2 3.06233 2.91646 0.32472
852 2 8.42452 6.0911 0.192174
853 2 5.55118 2.24527 2.48564
854 2 2.74058 0.199898 2.64279
855 2 5.81893 7.17964 9.21166
856 2 7.10775 0.551959 5.37241
857 2 4.89104 5.11936 0.43029
858 2 1.53683 4.79829 6.83352
859 2 0.115293 0.379287 7.99833
860 2 4.43524 6.75024 6.04133
861 2 4.16474 5.82249 5.05941
862 2 0.699271 9.30336 7.51138
863 2 4.73089 8.35509 0.00781672
864 2 0.927758 4.70881 8.51145
865 2 7.95769 1.31182 5.89581
866 2 4.33897 2.12045 0.455832
867 2 1.11273 0.542698 5.78605
868 2 0.0586055 3.87617 8.56739
869 2 3.51906 7.90908 8.78642
870 2 4.42444 3.54415 0.901144
871 2 5.88727 6.93982 4.71022
872 2 3.95746 2.01278 1.25157
873 2 7.10504 7.21777 8.39687
874 2 0.669537 0.515457 4.33991
875 2 8.52222 7.2389 6.31462
876 2 1.41205 8.70504 6.53067
877 2 8.65821 2.52066 3.64547
878 2 3.11582 3.14094 2.12008
879 2 0.305003 3.59554 0.766593
880 2 2.07539 2.72982 2.95915
881 2 2.56582 8.64984 3.2988
882 2 0.87359 8.37442 3.32068
883 2 5.86473 0.331543 4.74244
884 2 0.246819 6.09857 4.85935
885 2 3.99699 5.22649 6.16108
886 2 4.88384 1.10396 6.66352
887 2 1.52571 0.357985 7.93097
888 2 6.92405 8.23876 0.308986
889 2 0.139577 6.03495 8.98895
890 2 7.35923 8.89041 1.94336
891 2 4.91547 4.74545 3.0409
892 2 1.76269 4.25803 0.654389
893 2 5.82539 9.11876 7.61301
894 2 3.91951 8.92857 2.29878
895 2 3.01866 4.01658 5.3854
896 2 6.56445 6.14918 0.587168
897 2 5.53799 4.32458 4.15961
898 2 8.76216 8.27015 2.50226
899 2 1.55783 6.28186 4.2538
900 2 6.08712 2.76643 4.44993
901 2 8.02005 2.45836 7.09058
902 2 7.15658 9.06054 4.18693
903 2 9.26134 8.5688 3.80907
904 2 2.37093 1.15914 7.39496
905 2 6.07263 4.07622 6.54865
906 2 3.79287 9.3137 0.435209
907 2 2.09627 3.81241 7.70719
908 2 4.13959 1.09224 8.57389
909 2 8.03976 2.76301 6.08812
910 2 5.54287 3.06434 1.39376
911 2 4.68967 6.73008 3.64402
912 2 1.51663 7.19455 2.55125
913 2 7.10275 3.85651 1.30126
914 2 5.41951 5.79475 9.35349
915 2 0.730574 7.48403 4.32173
916 2 2.49737 6.91484 4.43213
917 2 3.71796 8.66148 3.51579
918 2 7.13917 1.60382 4.74246
919 2 6.87927 1.09923 2.67716
920 2 2.33252 5.59551 9.22112
921 2 0.47435 2.60413 6.56258
922 2 0.808962 1.59786 8.93698
923 2 0.0239531 5.16201 0.182043
924 2 1.32279 2.58343 0.383181
925 2 2.92805 9.05653 4.8283
926 2 4.05589 4.27452 4.98093
927 2 1.73914 2.48123 5.09454
928 2 0.78027 2.962 8.2931
929 2 6.84268 3.11913 7.19712
930 2 2.09359 8.55011 7.08245
931 2 1.74331 7.3845 6.27568
932 2 0.03159 6.89865 0.285703
933 2 6.32501 3.54994 2.96196
934 2 5.61104 8.02611 8.81754
935 2 5.26118 6.38922 8.21096
936 2 1.19432 3.20483 2.10067
937 2 1.08258 6.0802 8.78306
938 2 9.08045 0.355056 5.62231
939 2 8.29568 6.68601 7.86824
940 2 7.90322 0.0836102 4.3695
941 2 3.74682 2.86566 5.89196
942 2 6.37179 8.93327 6.35204
943 2 5.7539 3.96751 1.73437
944 2 8.24196 7.72172 4.01464
945 2 6.12702 8.02613 4.86476
946 2 2.08851 2.2876 1.6689
947 2 3.67717 6.72279 8.34629
948 2 4.34746 8.00579 4.79679
949 2 3.15863 5.32685 1.16539
950 2 1.60995 1.02004 3.2293
951 2 6.78082 8.0732 3.75182
952 2 7.7071 7.48521 7.29215
953 2 1.65374 7.9973 4.12106
954 2 0.559453 8.31724 8.79445
955 2 5.22192 8.22296 5.35929
956 2 3.63874 9.36567 8.6203
957 2 0.0394255 1.41949 3.83517
958 2 3.75464 3.38818 8.94628
959 2 1.91036 7.50749 1.20453
960 2 6.96115 5.15034 0.0919009
961 2 1.97513 7.56151 8.40399
962 2 2.90457 2.52276 4.56025
963 2 4.32756 2.09462 3.63231
964 2 5.90497 6.54021 6.96915
965 2 5.19783 8.24264 1.41684
966 2 7.2165 9.20703 0.564896
967 2 3.88688 0.223242 3.08007
968 2 1.86372 3.39557 3.73273
969 2 8.38402 6.34152 3.76327
970 2 5.24685 1.62363 8.9567
971 2 6.27278 9.38879 2.6341
972 2 3.00415 5.1536 6.04786
973 2 2.46658 6.36634 2.28698
974 2 3.96158 3.74869 3.18444
975 2 0.994694 7.41166 8.96757
976 2 8.31502 1.26104 7.8924
977 2 4.54924 8.53377 7.86264
978 2 8.64102 5.9313 2.47087
979 2 8.08225 4.22205 7.55638
980 2 9.33699 4.4172 2.56728
981 2 7.30135 2.32437 3.63182
982 2 8.31881 3.391 4.28399
983 2 8.40167 0.878092 7.15688
984 2 5.65308 6.91448 1.82507
985 2 6.2793 7.01586 0.973763
986 2 8.53627 6.9151 2.1062
987 2 6.01664 0.181402 9.2975
988 2 0.1735 2.06894 0.833016
989 2 0.211584 7.87429 1.03043
990 2 0.546848 0.312155 0.828378
991 2 1.69569 5.53785 5.69876
992 2 5.77633 8.02775 6.27624
993 2 1.14048 5.11013 4.67131
994 2 0.990873 4.83592 3.58191
995 2 5.39101 5.0318 7.81029
996 2 2.33447 6.84593 5.84247
997 2 5.98283 0.0418007 3.63279
998 2 0.424331 1.23775 2.63585