#bin. KALJ data file T=0.5

1000 atoms
2 atom types

0 9.4 xlo xhi
0 9.4 ylo yhi
0 9.4 zlo zhi

Masses

1 1.0
2 1.0

Atoms

1 1 3.43228 6.25607 2.57329
2 1 3.58062 4.71276 3.43212
3 1 1.83143 3.76593 5.20003
4 1 2.64604 3.8268 8.2654
5 1 2.13126 9.29398 3.14305
6 1 3.78082 6.84855 5.24962
7 1 6.86455 5.94196 7.9864
8 1 8.92563 1.47661 6.77115
9 1 1.15301 6.79936 6.40556
10 1 9.31672 5.79807 0.416453
11 1 1.98741 9.26936 5.10494
12 1 9.10167 1.92011 7.71149
13 1 9.04274 8.17496 7.31639
14 1 2.78448 4.08672 7.20105
15 1 9.16247 0.0909277 0.20777
16 1 8.70216 6.49522 7.98323
17 1 6.70909 9.01994 1.46076
18 1 6.24552 8.00174 4.29907
19 1 8.63184 6.9129 2.13927
20 1 7.08394 5.13418 8.67219
21 1 0.0752545 3.02292 9.39786
22 1 6.77841 8.27643 0.84163
23 1 6.65087 0.3417 7.95591
24 1 1.35194 5.25262 9.00159
25 1 2.84646 7.4087 1.47715
26 1 6.3665 0.387678 3.30333
27 1 7.48342 4.03688 7.25134
28 1 6.44016 3.50741 2.71499
29 1 9.01753 4.68337 7.20341
30 1 8.57813 1.64755 3.79454
31 1 9.01094 0.928683 2.10665
32 1 6.10254 5.06475 6.2921
33 1 8.42626 7.74713 1.39654
34 1 2.33175 8.07955 0.603368
35 1 4.59477 5.73636 6.20497
36 1 3.79344 8.51449 4.15591
37 1 8.81401 5.89147 8.9867
38 1 1.02951 9.25105 2.73477
39 1 4.40809 7.9029 3.62438
40 1 5.69938 0.37611 8.38558
41 1 3.52766 9.3722 6.04737
42 1 1.22614 0.0543821 3.71903
43 1 5.26154 1.31739 7.85693
44 1 3.90269 2.04324 3.01467
45 1 1.14 6.88759 8.94532
46 1 0.763046 3.63419 3.77879
47 1 5.87221 8.37713 1.68449
48 1 5.57331 1.17295 5.59165
49 1 2.38351 2.85894 5.8258
50 1 5.74959 1.87543 3.37532
51 1 5.82856 6.18929 1.91711
52 1 4.7176 7.58617 0.723567
53 1 8.56833 0.805281 8.66517
54 1 7.10695 0.680193 5.07061
55 1 1.28211 5.30088 3.1149
56 1 3.04731 7.89546 5.21196
57 1 3.21574 4.4368 5.38207
58 1 4.08983 5.39015 2.45989
59 1 5.26875 6.07457 6.93884
60 1 3.80387 2.94776 4.48444
61 1 3.54922 3.61503 3.4677
62 1 4.27233 7.47954 1.63794
63 1 0.382493 3.43213 5.13533
64 1 1.61852 8.32156 2.95995
65 1 6.57857 0.597561 2.30369
66 1 1.63093 0.788855 8.68899
67 1 9.08534 5.26225 6.38167
68 1 5.53872 7.11057 6.82715
69 1 8.77289 6.93768 3.17892
70 1 8.45326 4.5299 4.00937
71 1 7.99373 8.32712 7.07193
72 1 2.06785 2.65144 9.31963
73 1 3.21719 4.78361 1.66175
74 1 6.645 1.4222 3.15423
75 1 6.69465 2.47123 1.93933
76 1 6.96327 5.58904 7.03298
77 1 2.82416 3.32039 5.01069
78 1 4.4314 6.36365 0.833467
79 1 6.8906 0.143584 7.02179
80 1 0.627379 2.08164 0.543866
81 1 3.6406 3.67026 7.82926
82 1 4.27402 9.12742 0.625384
83 1 6.61225 8.06899 5.32571
84 1 1.15151 6.02269 7.28482
85 1 8.35053 3.27021 7.97245
86 1 5.97206 5.32795 7.33596
87 1 1.14479 1.90261 4.54986
88 1 7.42206 0.660259 3.08085
89 1 4.8726 7.34744 2.59132
90 1 5.09971 5.89833 2.79021
91 1 0.90067 6.70727 3.9252
92 1 8.10789 0.713255 0.174806
93 1 3.33229 1.30629 5.09053
94 1 1.64415 4.84439 4.07973
95 1 7.08394 7.34338 4.34336
96 1 6.33482 7.45964 6.16161
97 1 0.840427 3.69092 8.75217
98 1 4.8066 8.49081 1.43873
99 1 6.97401 0.0683689 5.86325
100 1 5.00457 5.10552 9.05368
101 1 6.02482 5.13675 8.34639
102 1 2.58607 3.27683 3.01264
103 1 5.9841 6.66642 2.95587
104 1 7.16483 6.59669 6.33463
105 1 0.249158 6.28907 4.76436
106 1 8.70565 8.52799 5.35453
107 1 5.43739 4.31969 3.91059
108 1 7.45294 9.31207 2.319
109 1 7.61533 4.90815 7.73899
110 1 8.34587 7.48273 7.81656
111 1 6.21965 8.34312 9.34861
112 1 7.40522 1.98325 0.598624
113 1 4.40006 4.3209 8.53757
114 1 5.66577 4.32499 2.87646
115 1 5.23255 1.95842 2.05889
116 1 5.73571 2.35855 9.28466
117 1 8.21124 9.27393 9.13677
118 1 7.73643 3.28121 1.48231
119 1 4.52644 1.17133 5.56855
120 1 2.71031 8.56881 8.01883
121 1 4.08978 2.03462 4.94295
122 1 2.96331 7.07744 4.59077
123 1 4.29772 5.9943 9.14066
124 1 0.265301 0.00887301 6.29686
125 1 4.19626 4.13705 5.7199
126 1 5.96153 3.17284 1.59889
127 1 5.02347 9.32094 5.54301
128 1 6.74082 6.23279 4.56709
129 1 9.19116 7.62361 0.651103
130 1 3.50592 2.76819 1.34107
131 1 7.09492 1.1028 4.06026
132 1 7.25171 8.27421 2.41439
133 1 4.89656 2.55726 2.89918
134 1 0.611067 8.93085 9.04743
135 1 9.1013 6.93884 4.1649
136 1 7.24432 2.88865 7.40753
137 1 1.71993 5.0637 6.1661
138 1 5.69642 8.31751 5.91563
139 1 3.5486 4.02516 4.47724
140 1 0.136226 4.20228 9.29637
141 1 2.90895 7.88663 3.99604
142 1 5.3591 0.624743 6.33764
143 1 4.96606 1.76289 0.27531
144 1 4.13964 1.07507 4.50619
145 1 0.901754 2.58864 8.94336
146 1 1.11303 2.45177 2.59594
147 1 8.19122 2.35335 7.32864
148 1 0.588806 7.26338 4.82016
149 1 3.54257 0.56686 2.03179
150 1 1.06775 8.09532 5.47514
151 1 7.81809 8.1148 6.02737
152 1 6.26784 0.570167 4.4944
153 1 1.88113 6.23954 0.303142
154 1 4.16446 5.25834 0.502942
155 1 0.333851 9.24263 4.30309
156 1 6.16541 2.88823 7.74521
157 1 6.61582 6.05659 9.00461
158 1 3.43794 9.28539 7.81929
159 1 1.76717 6.52223 8.011
160 1 6.02685 6.50212 7.59175
161 1 2.89236 2.88474 7.64105
162 1 0.237476 2.97043 3.13249
163 1 6.42366 2.52331 6.76497
164 1 2.81266 0.378328 6.94694
165 1 0.461233 5.91132 6.53102
166 1 6.8141 6.91595 8.32273
167 1 3.15957 8.86596 0.393342
168 1 6.85633 4.69286 1.44175
169 1 1.65946 4.66511 0.406688
170 1 7.43985 3.14186 2.5053
171 1 6.11001 9.14801 6.47637
172 1 3.37538 6.8853 8.90963
173 1 3.08835 5.17065 0.684528
174 1 5.60464 4.18949 8.85439
175 1 8.54162 3.53784 0.735506
176 1 2.89579 1.62779 3.21443
177 1 4.9355 5.79121 1.67434
178 1 7.34036 1.53285 2.24643
179 1 6.50844 3.11992 3.74433
180 1 1.00898 1.06795 7.62705
181 1 8.27216 5.18758 1.88148
182 1 3.13567 9.02112 3.48351
183 1 4.69111 4.25196 0.143968
184 1 5.7016 6.83599 8.58488
185 1 1.1856 7.88018 6.49102
186 1 0.0336279 2.83533 2.09171
187 1 2.15379 1.50138 4.577
188 1 0.805191 6.0649 0.037701
189 1 3.59976 5.74654 5.24943
190 1 4.17647 3.46949 1.81181
191 1 4.69018 3.92124 4.74559
192 1 3.73671 0.846011 6.85293
193 1 4.43614 1.78189 1.18248
194 1 1.88156 8.59905 3.91745
195 1 5.41943 8.45869 3.81424
196 1 0.691079 0.758065 2.30783
197 1 5.03422 2.98656 1.95499
198 1 6.4848 0.709131 8.98633
199 1 4.7077 9.00802 4.54385
200 1 1.44324 8.736 8.28061
201 1 4.48001 2.37174 3.84167
202 1 3.3627 5.66337 3.39681
203 1 4.38258 2.47959 6.31455
204 1 5.37514 6.68323 0.397772
205 1 3.73771 1.96323 7.0976
206 1 5.74657 9.11673 7.53191
207 1 6.39263 4.85648 3.47529
208 1 1.0757 5.62217 2.16239
209 1 5.86288 0.613055 7.27327
210 1 1.74139 4.30311 8.79577
211 1 6.54464 0.0295934 0.506084
212 1 4.40157 6.54558 2.13001
213 1 2.6384 6.37899 3.90111
214 1 7.93911 2.22077 2.53047
215 1 6.99403 6.58041 3.54065
216 1 8.3158 3.29156 6.83863
217 1 2.02979 0.10505 6.22412
218 1 1.99604 2.12236 2.05644
219 1 8.07719 4.32826 1.3294
220 1 7.48203 0.503864 8.58816
221 1 5.86871 8.14612 6.92845
222 1 3.91532 5.63427 1.35783
223 1 2.71445 0.399014 0.706691
224 1 6.68677 4.25774 4.4559
225 1 1.78462 3.26636 8.5265
226 1 3.471 2.08788 8.09281
227 1 7.60426 6.07078 5.34272
228 1 7.16652 8.90365 9.17602
229 1 9.17579 2.56321 6.74031
230 1 7.16897 0.98703 0.597175
231 1 8.64818 4.35125 5.08248
232 1 6.82053 4.29899 8.14795
233 1 9.36899 9.23818 2.35534
234 1 5.38514 8.40579 2.7391
235 1 5.80082 7.74617 0.760644
236 1 9.04415 3.74212 3.49156
237 1 6.98656 1.7273 4.87415
238 1 7.60143 0.606684 7.5441
239 1 5.03824 4.69578 6.00495
240 1 0.93233 1.57923 9.0482
241 1 2.91587 5.19534 2.56102
242 1 4.33826 5.33185 8.13179
243 1 5.5018 0.859404 3.80082
244 1 7.18691 5.16658 4.81618
245 1 6.55573 4.56624 2.43914
246 1 7.76248 2.50884 4.3307
247 1 4.76612 2.60091 8.87614
248 1 5.73601 8.8462 4.89399
249 1 6.46391 4.66802 5.4154
250 1 4.75973 4.78013 2.97992
251 1 7.70684 4.19774 4.65294
252 1 0.311815 5.51195 5.57987
253 1 2.0303 6.78767 1.2538
254 1 5.20268 2.57549 0.995126
255 1 4.62029 3.51037 2.7166
256 1 0.267932 5.36933 1.34824
257 1 9.06107 8.75923 3.78384
258 1 3.56819 6.66828 1.5791
259 1 4.84558 2.86104 4.6346
260 1 4.11195 2.41697 2.00857
261 1 1.20469 7.71375 8.38749
262 1 7.42414 2.26411 8.20955
263 1 6.80856 4.19666 6.33337
264 1 6.01547 1.5811 4.67793
265 1 3.49995 1.50295 1.61289
266 1 0.274097 6.62645 0.878337
267 1 5.43028 5.06566 2.15195
268 1 4.76375 0.802721 0.836657
269 1 3.70389 4.52023 -0.00355612
270 1 8.2637 7.78591 2.74254
271 1 1.4189 8.25389 1.29266
272 1 1.53392 3.05469 1.80558
273 1 9.03082 5.05194 3.33314
274 1 4.52453 3.32061 8.1155
275 1 4.74236 0.77938 9.1761
276 1 8.81849 8.43755 0.069145
277 1 6.84649 3.65083 1.73374
278 1 3.17097 3.5624 5.9895
279 1 0.923522 3.9079 0.404346
280 1 2.85807 1.44687 6.86556
281 1 3.82119 7.36616 2.53742
282 1 1.21082 7.74419 4.09638
283 1 2.02921 6.11152 6.16053
284 1 6.13043 7.21442 5.07548
285 1 1.1132 0.605963 5.93356
286 1 1.26937 1.92054 6.97554
287 1 4.29325 8.73144 5.97198
288 1 0.381716 6.35642 1.88186
289 1 8.10313 1.32986 1.66036
290 1 5.1842 4.71169 7.99701
291 1 9.03738 3.18501 5.89823
292 1 5.45465 2.78762 6.31505
293 1 8.19453 5.27095 4.76282
294 1 0.580624 2.66003 7.31281
295 1 5.43389 4.40561 6.99958
296 1 7.84095 5.36139 9.38136
297 1 0.200742 4.45545 5.49055
298 1 8.95401 4.1534 6.30534
299 1 3.97139 9.13965 6.99723
300 1 2.57592 1.88122 5.74226
301 1 5.44202 7.49328 7.81231
302 1 8.95243 6.93207 5.23981
303 1 5.0189 5.41095 4.35281
304 1 0.908353 5.95109 8.37917
305 1 6.7041 8.55603 7.36426
306 1 0.835614 9.05158 1.61813
307 1 5.666 2.58183 4.08446
308 1 3.51692 8.90062 8.79969
309 1 0.231679 6.46815 7.56999
310 1 8.02398 6.88047 3.93503
311 1 0.299646 8.5526 0.813325
312 1 3.24016 7.89881 0.121545
313 1 5.6624 7.55487 3.31104
314 1 5.77116 0.736283 0.405786
315 1 5.25609 5.78072 7.96857
316 1 8.43839 4.45624 0.369374
317 1 6.23033 5.9185 3.70757
318 1 7.59383 1.84087 3.37266
319 1 1.27828 1.48872 1.74859
320 1 1.83979 7.00528 4.46511
321 1 9.32717 4.32586 0.86038
322 1 6.03237 0.246541 5.44155
323 1 0.0588086 2.0092 8.8278
324 1 0.178291 5.16806 8.83885
325 1 0.312095 7.92161 8.87252
326 1 3.15038 2.57449 3.61246
327 1 1.22226 2.96985 0.698325
328 1 5.8211 4.05438 5.97039
329 1 0.103131 7.38289 1.66108
330 1 4.01964 3.48473 0.676369
331 1 0.229259 0.500871 5.10038
332 1 3.14839 2.59366 6.53025
333 1 0.835961 4.80055 8.18956
334 1 2.11901 5.63641 7.02464
335 1 6.78236 5.84039 1.42587
336 1 7.62019 5.87451 4.13289
337 1 8.01669 0.882431 4.50238
338 1 3.63392 0.158986 4.18818
339 1 6.94347 5.17952 0.496509
340 1 3.63383 6.89322 7.02294
341 1 6.3096 7.06333 0.114963
342 1 1.25572 0.564646 4.64778
343 1 2.97437 7.06085 3.13416
344 1 3.35435 4.57905 8.35195
345 1 8.04207 5.98182 6.33415
346 1 8.7776 3.62629 1.73231
347 1 7.81451 6.02267 8.52157
348 1 9.3346 3.02609 4.20785
349 1 2.6523 3.06553 1.94965
350 1 1.40119 2.94517 6.68556
351 1 5.34559 9.34336 1.00931
352 1 3.65743 6.18254 8.1932
353 1 7.7481 8.18633 4.9576
354 1 2.28198 6.94864 8.90363
355 1 8.02483 8.6508 3.15481
356 1 6.0908 1.4721 6.56243
357 1 1.02039 4.19529 4.83138
358 1 4.47421 3.07608 5.52522
359 1 0.195913 6.657 8.67779
360 1 6.28511 2.52764 0.767773
361 1 0.233621 0.260696 7.34002
362 1 2.72781 8.7085 5.65422
363 1 8.50264 5.97458 2.7318
364 1 8.97887 1.46395 5.02142
365 1 4.62029 6.61347 8.30873
366 1 2.0624 9.09066 0.983898
367 1 0.477553 2.4109 5.19385
368 1 4.86333 7.87885 6.41285
369 1 6.68277 7.43827 2.69889
370 1 1.24905 1.5076 2.90695
371 1 0.164423 0.27019 3.34851
372 1 5.56001 3.20999 5.37448
373 1 4.75285 0.577932 7.24362
374 1 7.6173 8.47854 1.50025
375 1 3.11336 7.70394 8.47302
376 1 4.9778 3.69664 1.08802
377 1 7.67732 9.09252 6.42671
378 1 2.9121 5.7138 1.55972
379 1 8.19816 8.81108 4.28729
380 1 8.65669 4.7929 8.87462
381 1 2.73088 1.89842 8.88303
382 1 4.39801 0.390253 6.26376
383 1 2.51725 0.287789 1.76595
384 1 2.04735 7.97321 4.84612
385 1 4.31896 7.00767 9.25396
386 1 3.02934 8.66893 6.76721
387 1 9.31749 1.76853 1.26445
388 1 2.30263 2.95372 1.01722
389 1 5.41579 2.0842 7.11862
390 1 1.67086 5.91584 4.24805
391 1 6.45748 8.26595 3.31173
392 1 2.15807 5.46616 0.9833
393 1 2.92258 1.01087 4.05366
394 1 2.73192 5.52437 4.45637
395 1 6.40665 1.57859 0.239655
396 1 3.01705 2.97894 8.67499
397 1 6.21115 5.55309 2.69064
398 1 7.70547 5.74323 1.02802
399 1 7.1938 3.32973 4.46639
400 1 9.13198 5.36376 4.41476
401 1 6.19732 6.00964 0.564781
402 1 8.39682 3.49063 4.39354
403 1 8.88434 2.14945 2.77572
404 1 1.43223 0.449685 1.52248
405 1 2.63208 5.41166 5.54188
406 1 5.60513 1.63461 1.12351
407 1 4.36066 8.26802 2.36646
408 1 0.787131 2.43275 1.54428
409 1 8.07568 7.1733 4.89893
410 1 6.15971 3.27184 9.3507
411 1 3.91485 4.43338 2.36283
412 1 3.63442 5.06054 4.50402
413 1 2.09567 8.49431 6.52779
414 1 7.48532 7.62242 0.944389
415 1 8.61559 8.70992 1.01279
416 1 7.59962 7.41886 2.05849
417 1 8.81818 0.834678 0.906864
418 1 6.90266 2.5259 9.20926
419 1 1.73509 3.73467 4.13637
420 1 7.1314 6.69293 7.37461
421 1 0.290344 7.41245 6.72331
422 1 6.58003 1.2343 5.71405
423 1 7.26156 5.2615 2.21009
424 1 3.54653 3.13248 2.52643
425 1 8.6565 4.35562 2.47053
426 1 9.1815 3.5303 7.2894
427 1 6.69788 1.58856 1.30701
428 1 2.05345 7.4765 3.56329
429 1 4.52422 2.36826 7.94705
430 1 6.21606 9.05582 4.03098
431 1 0.323187 5.37866 7.47944
432 1 0.720284 6.27477 2.95278
433 1 8.03608 4.00405 3.2302
434 1 0.151427 1.97183 4.19779
435 1 6.77811 9.03792 4.89465
436 1 2.15737 7.57897 7.98345
437 1 1.88725 3.84425 2.48643
438 1 1.45116 6.53153 2.24031
439 1 1.27064 3.5292 7.65814
440 1 2.11089 1.21648 1.1902
441 1 5.57671 2.17065 8.18337
442 1 3.91479 7.93399 6.7785
443 1 1.54663 4.00356 1.38072
444 1 7.86701 4.19154 6.23573
445 1 1.4235 8.25344 7.37494
446 1 8.06687 1.51531 8.02254
447 1 8.46968 2.73123 0.0883945
448 1 1.10898 7.36562 3.07023
449 1 5.48688 0.965598 2.81547
450 1 2.24049 9.06673 9.22716
451 1 9.30955 4.30885 8.13452
452 1 0.190065 7.14989 2.67283
453 1 4.00644 1.41135 0.284241
454 1 0.766553 7.74662 0.406946
455 1 4.58178 6.65889 4.33081
456 1 1.49521 4.075 6.79209
457 1 7.0284 3.83574 5.37033
458 1 1.49079 7.09954 5.42113
459 1 7.0509 2.14633 6.08484
460 1 2.45422 4.38491 4.54271
461 1 2.22317 2.28238 6.64844
462 1 6.16274 6.81451 1.19678
463 1 1.75029 0.466311 0.329431
464 1 8.87842 8.39258 8.38069
465 1 9.05279 8.51192 6.29555
466 1 2.0631 9.12115 7.3302
467 1 6.4574 1.91879 8.5942
468 1 7.15752 6.99854 5.30677
469 1 0.796031 1.18737 3.81007
470 1 0.33894 8.87736 5.3845
471 1 9.28447 0.004318 1.28177
472 1 8.99879 2.03267 5.88236
473 1 6.9043 3.21492 8.39977
474 1 2.1722 7.76357 5.82576
475 1 8.2762 1.26121 2.81803
476 1 2.39488 3.33416 6.69901
477 1 2.32541 0.179404 4.13916
478 1 3.48033 6.16846 0.422339
479 1 0.502453 3.45704 6.60112
480 1 2.10652 7.99512 8.90284
481 1 4.25034 2.46837 0.43531
482 1 5.52746 3.32022 3.33048
483 1 2.15196 6.29314 5.10507
484 1 1.69572 2.08481 0.945504
485 1 0.156665 7.45631 7.88439
486 1 7.82375 8.41042 0.437343
487 1 8.05513 6.98924 5.86202
488 1 8.08034 6.79274 7.0119
489 1 0.0897836 1.05793 8.27691
490 1 4.53374 8.8448 3.36033
491 1 3.49639 8.18521 3.09128
492 1 3.15 2.18725 2.35124
493 1 0.590616 2.14798 6.22646
494 1 4.99945 1.71979 4.60549
495 1 2.96509 0.225418 5.05377
496 1 3.63737 1.65983 6.04676
497 1 1.26586 5.06623 7.17598
498 1 2.00316 2.43056 4.0774
499 1 4.63248 7.70085 8.38538
500 1 7.00687 1.26823 8.09263
501 1 7.49437 4.84387 3.84039
502 1 0.522769 1.16238 6.59398
503 1 6.21507 1.58417 7.57163
504 1 7.26254 7.62687 6.74592
505 1 4.44236 4.92692 5.12376
506 1 7.76513 6.80058 2.9187
507 1 1.74192 0.66118 2.50417
508 1 4.52574 0.11597 1.65846
509 1 5.7139 9.23893 9.29895
510 1 8.75457 6.06092 1.51151
511 1 9.24002 1.19228 3.11789
512 1 8.57891 2.52118 1.69186
513 1 8.52328 3.11586 2.68358
514 1 8.58115 5.3677 8.00605
515 1 4.6315 9.16041 8.94162
516 1 2.57712 7.85219 2.57874
517 1 1.82589 2.57339 7.65761
518 1 4.03034 3.32474 9.04689
519 1 2.07608 5.7047 2.48253
520 1 2.38137 5.43234 9.36435
521 1 5.11152 0.614038 4.74717
522 1 1.17472 0.251901 6.90416
523 1 2.30333 5.34899 3.44886
524 1 1.9853 0.916826 7.63899
525 1 5.2532 0.910754 1.78579
526 1 5.02473 3.2455 0.19044
527 1 2.51337 6.68 2.16187
528 1 2.60856 1.32907 2.14358
529 1 3.56082 2.69456 5.60635
530 1 8.3947 8.70882 2.18486
531 1 1.90355 2.46832 5.07158
532 1 1.32285 4.23482 3.22489
533 1 3.83104 7.1612 7.96351
534 1 7.14601 8.41545 4.12785
535 1 4.0155 7.73871 5.71245
536 1 5.9022 2.5741 2.58035
537 1 4.5887 1.61127 8.70834
538 1 4.61672 1.45869 6.62943
539 1 8.75264 6.11404 3.70691
540 1 2.58731 6.00693 8.50388
541 1 2.76143 2.06932 1.32804
542 1 2.85873 4.94131 6.54554
543 1 1.40203 8.52007 0.165299
544 1 4.08772 0.457458 8.43667
545 1 6.81895 6.42557 2.4051
546 1 6.4738 7.50602 7.41892
547 1 1.20368 8.79345 4.6349
548 1 0.331202 8.21028 4.52695
549 1 2.51011 1.85877 7.7923
550 1 1.01696 3.9687 5.87071
551 1 3.33917 5.42986 9.01139
552 1 0.207664 4.30906 1.85636
553 1 3.73053 5.03283 6.04376
554 1 5.45756 4.47325 5.0073
555 1 1.9182 0.934563 3.61428
556 1 0.646992 4.85694 6.3534
557 1 4.87269 8.24057 7.41848
558 1 7.32579 2.75523 5.37434
559 1 3.64245 7.20421 3.84662
560 1 2.64039 3.39694 3.99469
561 1 2.86305 4.17538 2.46516
562 1 1.20207 7.16588 7.41496
563 1 3.71411 7.20917 0.682416
564 1 7.63006 2.99237 3.4886
565 1 1.83245 1.22355 6.50834
566 1 0.668301 4.93727 0.393787
567 1 8.62358 7.59768 6.5707
568 1 0.41057 0.798792 1.25971
569 1 2.66928 4.41434 9.29965
570 1 4.65357 6.04469 5.23996
571 1 8.22014 5.02903 5.82166
572 1 5.9747 5.17878 1.12652
573 1 0.847722 3.56124 2.40331
574 1 4.50174 3.41734 3.85001
575 1 2.08516 2.28713 3.12598
576 1 8.1153 3.56088 5.37999
577 1 4.27814 8.21297 9.37589
578 1 0.530537 8.52876 7.96812
579 1 5.79057 7.345 2.18643
580 1 2.84305 6.77386 5.74905
581 1 5.46947 9.36802 3.20787
582 1 4.92468 4.14038 1.98921
583 1 9.31815 0.88719 4.18269
584 1 5.08622 4.7603 1.10755
585 1 8.28004 9.34037 8.03516
586 1 4.83314 8.23002 5.19786
587 1 7.26159 0.579733 1.58487
588 1 7.36809 0.105464 4.12479
589 1 1.79643 9.00886 2.13647
590 1 8.13606 5.03523 6.83123
591 1 3.56021 6.21644 4.30235
592 1 8.56343 0.0254498 5.88944
593 1 8.8252 5.8246 7.18933
594 1 6.59489 4.21408 9.15391
595 1 7.77554 6.34963 1.99263
596 1 7.1777 5.23969 6.02731
597 1 0.908097 0.202188 8.24102
598 1 0.532428 4.21397 7.2486
599 1 0.738139 8.11683 2.29653
600 1 5.52036 9.3303 2.03069
601 1 8.84071 7.81709 4.62936
602 1 7.56461 4.23892 2.30037
603 1 2.30216 4.19188 6.08303
604 1 6.24563 8.86808 8.49605
605 1 4.25557 6.12033 7.29181
606 1 4.53126 4.05956 7.43619
607 1 2.44465 0.117412 8.2875
608 1 5.28291 8.4562 8.53898
609 1 0.267534 1.70167 2.29038
610 1 7.51099 3.02972 0.52336
611 1 3.66855 0.409616 9.38187
612 1 1.90532 3.73531 0.415027
613 1 4.54144 0.523156 2.74115
614 1 0.728878 1.92941 8.03185
615 1 3.60567 1.85292 4.0757
616 1 0.949461 2.31389 3.6493
617 1 8.45039 6.26162 4.65804
618 1 6.61518 3.57268 0.763237
619 1 6.5182 4.50729 7.2414
620 1 7.41362 4.24573 0.358497
621 1 8.00604 1.87019 5.17989
622 1 6.39249 8.99175 2.52297
623 1 6.81352 8.46428 6.23546
624 1 8.38198 1.93374 0.820704
625 1 1.2879 5.02569 1.29269
626 1 0.603102 4.77398 3.79089
627 1 0.795567 8.4804 3.41379
628 1 1.75063 2.03693 8.52626
629 1 5.24634 6.38733 3.63629
630 1 4.57158 7.21259 7.29716
631 1 3.70149 0.566352 1.02675
632 1 1.7622 5.06263 5.09121
633 1 9.24243 8.19985 2.84574
634 1 5.52202 5.49993 5.46274
635 1 3.29545 3.78403 1.45202
636 1 7.91003 8.25911 8.77954
637 1 1.80888 5.46598 8.04863
638 1 5.5266 6.62395 5.8351
639 1 1.93227 1.43916 0.0501958
640 1 7.7749 3.1648 8.82056
641 1 2.88733 6.86842 7.91988
642 1 8.4668 2.4187 8.45221
643 1 8.50292 7.8262 3.68097
644 1 3.28474 9.08947 1.47733
645 1 3.75858 3.99585 6.6801
646 1 5.62798 6.32277 4.69195
647 1 5.64703 1.38313 8.91596
648 1 6.12816 5.26214 4.53774
649 1 4.46086 6.82869 6.28808
650 1 4.11861 2.9416 7.17144
651 1 5.11722 5.66689 0.539084
652 1 4.13107 0.282207 5.14658
653 1 7.20466 0.930566 6.4235
654 1 5.29074 7.61889 9.22547
655 1 2.72594 7.00972 0.466304
656 1 7.41001 1.43396 9.12278
657 1 5.20972 8.49448 0.298386
658 1 1.05114 7.22008 1.277
659 1 1.52111 1.93524 5.84154
660 1 4.3742 6.60843 3.15333
661 1 5.92454 4.22817 1.60989
662 1 6.09149 3.5114 6.84438
663 1 3.95312 8.38595 7.81093
664 1 0.815125 5.32893 4.68757
665 1 3.77161 0.968187 3.36142
666 1 2.71034 8.71376 4.52883
667 1 8.32732 0.211977 1.61194
668 1 5.18517 7.51251 4.35954
669 1 1.52456 3.13605 3.30875
670 1 6.06103 2.13406 5.68599
671 1 1.17668 4.54096 2.24963
672 1 6.02196 5.05503 0.0204348
673 1 1.16017 1.22152 0.713215
674 1 2.04345 7.44276 6.85842
675 1 2.67236 0.764286 9.08742
676 1 8.93096 6.78004 0.184122
677 1 7.31363 7.76157 7.89466
678 1 8.1517 2.64667 6.02267
679 1 7.97041 1.77075 6.37844
680 1 0.222938 7.64543 3.67146
681 1 2.81035 8.91927 2.44473
682 1 4.42109 5.69938 3.60052
683 1 3.53666 1.22919 8.77502
684 1 8.22131 7.49475 0.155628
685 1 8.78072 5.88282 5.56247
686 1 1.80422 4.42523 7.77557
687 1 5.43042 5.24174 3.45918
688 1 7.39216 7.70147 3.36006
689 1 1.17828 8.89444 6.13062
690 1 4.2406 1.38298 2.2477
691 1 2.97615 1.36083 0.438372
692 1 7.10915 9.04353 3.27157
693 1 8.70939 0.797208 7.62009
694 1 1.7527 7.3415 0.366598
695 1 5.4908 3.21092 8.50548
696 1 8.02537 5.06474 2.98007
697 1 4.82251 7.11754 5.34
698 1 4.76016 3.61306 6.50137
699 1 1.25198 5.88896 5.49249
700 1 8.61111 9.16471 6.99317
701 1 4.24148 1.32629 7.78435
702 1 8.69944 2.689 5.01131
703 1 6.18307 6.11038 6.51398
704 1 8.59397 5.27083 0.867803
705 1 6.47674 3.0974 5.87559
706 1 2.93568 2.26317 4.72861
707 1 6.84374 2.4436 2.95399
708 1 4.13614 7.68542 4.62681
709 1 2.69688 6.57738 6.91857
710 1 1.17276 6.13211 1.11015
711 1 3.19871 0.995228 7.8321
712 1 2.38102 4.26156 3.41848
713 1 0.3814 6.56733 5.67775
714 1 0.0340311 4.19506 4.36242
715 1 6.46729 5.84959 5.50482
716 1 4.61828 0.424296 3.85333
717 1 4.70159 5.13855 7.18047
718 1 5.05238 2.16779 5.51475
719 1 7.83639 5.89068 7.49393
720 1 6.14744 6.92992 4.06251
721 1 2.09823 4.81217 1.8616
722 1 7.57051 2.24748 1.54061
723 1 8.31321 4.27155 7.92807
724 1 7.2319 1.75262 7.13599
725 1 5.57444 5.96049 9.10201
726 1 8.75434 0.114231 4.79605
727 1 3.22529 5.76659 7.30529
728 1 7.58976 9.30231 0.837347
729 1 1.69131 7.601 2.08317
730 1 0.547943 3.48542 1.30913
731 1 9.2226 2.82371 0.975628
732 1 6.78669 2.10792 3.9444
733 1 3.89602 8.23268 0.997139
734 1 0.307221 4.29197 2.94034
735 1 7.90429 0.797718 5.7013
736 1 8.8898 7.3861 8.70144
737 1 1.15914 2.96866 4.49027
738 1 2.34882 8.33474 1.61278
739 1 3.67232 4.81782 7.35678
740 1 8.1927 0.660649 6.68939
741 1 3.73575 8.76983 5.10345
742 1 8.57253 2.67949 3.69929
743 1 0.501539 8.60093 6.95005
744 1 2.03488 0.907777 5.44029
745 1 3.04171 3.52244 0.415601
746 1 8.4174 0.289771 2.70098
747 1 0.676736 0.554246 9.22375
748 1 5.70627 4.12522 0.485508
749 1 7.03232 6.64469 0.675762
750 1 9.20396 0.902826 5.91782
751 1 6.28854 7.76963 8.44542
752 1 5.23778 3.18627 7.3536
753 1 7.09177 7.7393 9.28304
754 1 4.74261 9.19844 7.89255
755 1 1.2083 2.96084 5.67318
756 1 3.63832 6.21483 6.2498
757 1 9.27334 1.18475 0.0451605
758 1 3.05933 7.71009 6.28578
759 1 4.44622 4.56742 3.97321
760 1 3.35781 8.23524 1.97853
761 1 0.596421 1.42961 5.44481
762 1 5.16079 6.88828 1.3972
763 1 8.7339 3.68278 8.97689
764 1 2.52701 4.38042 0.953604
765 1 9.23993 8.3789 1.77906
766 1 7.37378 3.26945 6.31466
767 1 6.40606 2.69071 4.84128
768 1 4.10878 4.50423 1.28113
769 1 0.0136375 7.7689 5.63454
770 1 3.10677 7.78215 7.42674
771 1 6.19479 0.634636 1.34851
772 1 4.77237 1.52982 3.34069
773 1 5.04764 8.94629 6.70301
774 1 2.876 0.853983 6.03863
775 1 9.29997 5.39689 2.3158
776 1 3.79904 2.23184 9.01386
777 1 6.68653 7.62349 1.65236
778 1 8.04653 6.79383 1.10008
779 1 3.80717 9.10784 2.55077
780 1 7.13127 5.58822 3.21678
781 1 8.4252 1.69478 9.19998
782 1 9.358 3.05859 8.37332
783 1 8.94416 6.64758 6.3571
784 1 2.81279 0.554796 2.79224
785 1 1.74997 6.30775 3.26792
786 1 2.67294 4.99069 7.69845
787 1 0.957271 0.0168069 0.702175
788 1 7.79098 9.2706 5.11973
789 1 9.23894 0.0337723 8.41887
790 1 5.91045 3.90769 7.81464
791 1 7.01618 3.93733 3.43775
792 1 0.378267 5.84027 3.76385
793 1 7.41247 8.81963 8.12923
794 1 7.82872 6.46368 0.121476
795 1 7.70506 4.23958 8.82238
796 1 5.82943 3.58453 4.44538
797 1 8.46486 0.2807 3.73476
798 1 3.15956 2.50187 0.287643
799 1 6.21785 1.55403 2.19965
800 1 7.7944 7.17609 8.63647
801 2 1.73615 3.54202 6.09622
802 2 8.44558 6.65604 8.76318
803 2 3.53045 1.93314 0.84046
804 2 7.94557 0.659585 1.00507
805 2 6.13421 8.14757 2.51007
806 2 6.01507 6.09348 8.33219
807 2 2.37249 2.55033 8.33987
808 2 0.876486 7.20186 2.19797
809 2 4.17207 5.11582 8.93241
810 2 8.14438 1.34326 7.18964
811 2 0.772192 4.34497 1.173
812 2 2.37298 3.83314 1.57272
813 2 1.37031 3.25089 9.31098
814 2 1.38392 2.14536 0.0867647
815 2 6.43661 6.63429 5.79576
816 2 0.873791 1.03764 8.45093
817 2 4.06255 0.463346 7.59916
818 2 2.10012 4.77812 2.79804
819 2 9.32681 8.94013 7.53944
820 2 0.407221 3.64793 7.95437
821 2 4.88858 0.760148 8.30341
822 2 6.0522 1.10869 8.23682
823 2 7.12349 6.79975 9.20741
824 2 1.97519 6.96111 6.09237
825 2 5.27447 5.33596 6.54438
826 2 4.41704 2.93746 1.24917
827 2 5.71013 8.00206 5.00004
828 2 7.41356 1.53275 5.65916
829 2 6.422 5.28604 1.91806
830 2 7.1853 5.9307 0.191524
831 2 7.78079 0.792468 2.28428
832 2 6.21299 1.26301 3.88786
833 2 1.8269 8.49187 5.52933
834 2 6.47636 4.47066 0.554308
835 2 7.29415 4.78404 6.89436
836 2 8.49422 0.070673 0.702361
837 2 3.98107 8.70767 1.719
838 2 0.496983 8.32978 6.09206
839 2 0.0968809 1.10929 7.36444
840 2 7.72616 2.35685 9.16632
841 2 1.07749 2.80488 8.20316
842 2 5.13375 3.89334 8.22534
843 2 1.56501 1.71266 7.68826
844 2 6.58714 7.47364 3.65938
845 2 3.63214 7.00419 6.08552
846 2 6.26718 3.66566 8.56029
847 2 8.46229 7.66978 5.47048
848 2 7.86334 7.74584 4.21448
849 2 9.05673 5.04629 5.27293
850 2 2.3145 3.62427 9.06396
851 2 3.94888 3.27398 6.20379
852 2 8.86699 1.7692 1.97288
853 2 1.96688 5.85577 1.68447
854 2 6.86805 5.38286 4.072
855 2 6.7332 5.10897 7.77282
856 2 8.17247 8.42041 7.89895
857 2 8.08285 3.64614 2.18827
858 2 3.25385 3.89259 9.02306
859 2 4.9997 3.89453 5.57168
860 2 4.96966 0.0327981 0.233455
861 2 5.02086 6.60467 9.0086
862 2 3.89529 7.65842 8.79152
863 2 7.64084 4.56617 5.41119
864 2 9.08775 8.77107 4.6649
865 2 1.1113 9.30447 5.38621
866 2 7.92986 5.06462 8.54974
867 2 6.76531 2.1997 7.66612
868 2 8.35394 5.3926 3.91497
869 2 4.52363 2.0918 7.14068
870 2 2.85973 4.83006 3.85826
871 2 6.72552 0.957448 7.23776
872 2 3.23863 0.423614 8.50873
873 2 7.15472 4.73096 3.04518
874 2 7.92661 1.02446 3.61694
875 2 5.4897 7.47249 6.02947
876 2 1.07094 6.57656 4.8421
877 2 0.972678 4.86045 5.53919
878 2 0.693099 7.90323 7.41869
879 2 5.44993 1.86792 6.25417
880 2 3.73827 0.804305 5.90341
881 2 8.94371 3.54218 5.05976
882 2 2.79231 6.29058 9.3023
883 2 3.94582 0.0891866 3.34468
884 2 7.64172 1.62502 4.42034
885 2 2.47709 2.07746 0.536528
886 2 4.19307 4.13054 3.25645
887 2 0.767137 7.36163 5.80623
888 2 3.51694 8.39003 6.0513
889 2 9.26269 3.65675 2.56027
890 2 7.1336 6.82264 1.56815
891 2 3.04649 8.11195 1.05998
892 2 6.90007 8.3126 8.61296
893 2 1.6622 0.198763 7.92099
894 2 9.2913 6.27421 2.76356
895 2 1.427 9.33632 9.14647
896 2 0.423015 2.96582 5.91316
897 2 6.18936 2.74076 8.67855
898 2 7.61513 3.61558 8.14809
899 2 6.67707 3.66065 7.52001
900 2 2.29888 8.23952 7.32104
901 2 7.72309 9.12602 7.29008
902 2 1.0953 6.78965 0.522775
903 2 3.94211 5.43 6.7845
904 2 8.41764 6.07575 0.631926
905 2 5.0679 6.5866 7.60076
906 2 9.35058 5.9076 8.22086
907 2 3.30925 3.35927 6.95966
908 2 4.75603 8.19317 4.31518
909 2 4.41971 4.44989 6.6453
910 2 2.48262 6.08199 7.6771
911 2 5.18576 7.68972 1.68015
912 2 5.9031 2.30016 1.58483
913 2 0.52266 1.15204 4.67189
914 2 7.35884 3.99627 1.17557
915 2 4.26762 5.81859 4.48535
916 2 3.39833 1.25273 2.53314
917 2 8.9573 6.9413 7.24477
918 2 6.99512 2.841 1.21063
919 2 9.16801 5.00377 0.252108
920 2 6.4471 6.86048 6.81605
921 2 2.6727 6.15454 2.99993
922 2 5.4 1.22817 7.00855
923 2 5.57226 2.41898 4.94477
924 2 2.21716 3.44015 7.55465
925 2 0.625038 8.11159 1.47896
926 2 6.1304 3.90457 5.15697
927 2 7.2744 0.343754 0.0833909
928 2 7.1246 7.57774 5.97154
929 2 0.35496 7.08494 9.353
930 2 8.21012 2.75138 0.894467
931 2 5.59894 6.17626 1.11822
932 2 0.442083 1.87264 7.08167
933 2 2.46739 1.19858 8.3876
934 2 2.51563 8.39794 3.30338
935 2 7.85447 6.07758 3.32559
936 2 8.03744 3.6595 0.047024
937 2 4.58582 4.88923 2.04561
938 2 0.973922 4.55473 9.09438
939 2 6.15623 3.9767 3.43685
940 2 2.83357 6.46194 1.05824
941 2 3.43398 4.26257 0.746174
942 2 1.2834 5.78822 6.40051
943 2 5.66838 3.29316 0.785399
944 2 7.72601 4.95956 0.751221
945 2 8.9621 4.77141 1.55367
946 2 8.83469 9.01303 2.99387
947 2 5.91994 8.38265 7.84976
948 2 2.0008 7.15315 2.76651
949 2 5.42987 9.38023 4.22029
950 2 4.77949 8.97357 2.54335
951 2 0.383413 2.10377 3.04471
952 2 2.91313 5.80767 6.42261
953 2 1.93289 2.90298 2.54741
954 2 3.68968 3.60155 5.32124
955 2 7.37879 8.71838 5.59678
956 2 1.32198 1.28603 5.10246
957 2 3.39606 5.38238 8.13755
958 2 2.71932 1.91529 3.98443
959 2 1.99358 7.60376 1.22154
960 2 1.86775 6.55831 7.05409
961 2 1.09756 0.638064 3.04804
962 2 3.77279 2.85787 8.27771
963 2 0.175126 6.74799 3.45387
964 2 5.52541 3.54456 2.42645
965 2 6.68091 7.42749 0.790495
966 2 1.63017 1.74244 3.76476
967 2 9.10008 0.535279 6.73285
968 2 8.51039 1.32117 5.81924
969 2 4.37561 8.4557 8.60458
970 2 3.57916 6.52325 3.42919
971 2 6.02826 8.78456 0.745488
972 2 8.9537 2.78761 7.57434
973 2 7.09089 3.4953 9.17606
974 2 7.55341 2.45208 6.74939
975 2 1.67114 6.07223 8.84225
976 2 2.97222 6.25275 4.97029
977 2 2.30487 4.76185 8.45907
978 2 2.80026 8.41715 8.93703
979 2 2.04602 3.14358 4.62822
980 2 7.86776 6.73086 7.87249
981 2 2.09544 1.40191 2.88115
982 2 0.399233 5.42111 3.03464
983 2 1.44871 5.50848 0.427467
984 2 6.27376 0.548988 6.42054
985 2 7.4587 6.63166 4.60329
986 2 8.80547 1.58612 8.43817
987 2 6.34651 8.90049 5.5741
988 2 7.67332 3.75934 3.9299
989 2 4.08215 2.94661 3.27214
990 2 8.94179 7.68909 2.25019
991 2 5.20764 6.65072 2.31017
992 2 8.84552 6.94988 1.16356
993 2 4.29607 0.945902 1.5006
994 2 9.09448 2.092 0.313998
995 2 8.49309 4.08758 7.05724
996 2 2.06082 4.74487 7.03593
997 2 0.832649 6.79135 8.07975
998 2 2.34348 7.12809 5.15992
999 2 1.02828 9.02704 7.53432
1000 2 2.99444 0.983322 1.25468
