#bin. KALJ data file T=0.5

1000 atoms
2 atom types

0 9.4 xlo xhi
0 9.4 ylo yhi
0 9.4 zlo zhi

Masses

1 1.0
2 1.0

Atoms

1 1 3.54563 6.26277 2.1975
2 1 3.80525 4.69528 3.28765
3 1 3.16132 2.84499 4.04142
4 1 2.61916 3.96748 8.42126
5 1 1.96611 9.44394 3.08566
6 1 3.32011 6.75313 4.98187
7 1 6.51362 5.35682 7.23421
8 1 8.63828 0.990215 7.30026
9 1 0.774578 6.7314 6.70961
10 1 9.27011 6.28124 0.595357
11 1 1.85701 8.85792 4.8596
12 1 8.92655 1.8266 7.91976
13 1 9.0653 8.03513 7.1082
14 1 2.24662 3.63131 7.01246
15 1 9.06715 0.169203 0.0307999
16 1 8.81658 6.2371 8.1579
17 1 6.71122 9.00749 1.49379
18 1 6.20923 7.71411 4.51401
19 1 8.59615 7.12288 1.94448
20 1 7.37576 5.31213 8.78333
21 1 9.05222 3.50015 0.25906
22 1 7.29182 8.72434 0.554381
23 1 6.25366 0.144963 8.16464
24 1 1.60033 5.31098 9.00566
25 1 3.10524 7.39933 1.57949
26 1 5.66533 0.485844 2.7133
27 1 7.08734 3.72355 7.55763
28 1 5.87149 3.15854 2.55883
29 1 8.7879 4.48736 7.01575
30 1 8.96207 1.71597 3.83052
31 1 8.96305 0.808192 2.08831
32 1 5.90422 4.82728 6.19033
33 1 8.60088 7.97859 1.29908
34 1 2.98488 8.41662 0.971457
35 1 4.73478 5.39264 6.40101
36 1 3.65223 8.76885 3.8987
37 1 9.21147 5.97881 9.06972
38 1 1.06449 8.88812 2.75786
39 1 5.14683 7.44774 3.72174
40 1 5.10102 0.117222 8.39479
41 1 3.44527 8.60705 6.04487
42 1 1.20709 0.101589 4.14
43 1 4.91038 1.0517 7.87203
44 1 3.95963 2.31074 3.03216
45 1 1.20943 7.3442 8.69716
46 1 0.76056 4.43716 4.92318
47 1 6.02973 8.33903 2.00358
48 1 5.41004 1.01634 5.47605
49 1 2.3707 4.21489 5.18783
50 1 5.57101 1.39111 3.3426
51 1 5.7723 6.33483 2.14132
52 1 4.8255 7.5937 0.624735
53 1 8.20959 0.785821 9.35773
54 1 7.77783 0.644204 6.07291
55 1 0.667176 5.24243 3.21425
56 1 2.49855 7.29781 4.9893
57 1 3.0897 4.77422 5.79982
58 1 4.07047 5.5013 2.6604
59 1 5.10735 6.15903 7.11467
60 1 3.68919 3.77732 4.03204
61 1 4.47097 3.98503 3.38536
62 1 4.40943 7.38777 1.52868
63 1 0.073123 3.54415 4.78337
64 1 2.00819 8.43118 2.71804
65 1 6.57974 0.160007 2.36443
66 1 1.93412 0.389467 8.76038
67 1 0.260067 4.85712 6.57737
68 1 5.1736 7.55669 6.44915
69 1 8.8764 6.7687 3.53176
70 1 8.83217 4.15548 4.25996
71 1 7.1485 8.34392 7.07718
72 1 2.02858 2.97178 0.344945
73 1 3.66125 5.33563 1.54077
74 1 6.44322 0.84345 3.26543
75 1 6.65361 2.61415 2.23159
76 1 7.30092 5.91434 6.81739
77 1 3.02975 3.30384 4.96123
78 1 4.34149 6.62145 0.70448
79 1 7.84762 8.52419 6.29263
80 1 0.490737 1.96629 0.450137
81 1 3.50937 3.472 7.92493
82 1 4.42765 9.25053 0.769827
83 1 6.70904 7.45016 5.46191
84 1 1.01739 5.7548 7.0809
85 1 8.18631 3.51291 7.75523
86 1 5.5112 5.22418 7.15119
87 1 1.02108 1.5746 5.46529
88 1 7.59829 1.04997 2.83207
89 1 4.92163 6.96485 2.41158
90 1 5.45983 5.8027 3.81054
91 1 0.987168 6.73089 2.75481
92 1 8.27962 1.04421 1.17549
93 1 3.43132 1.37293 4.76736
94 1 2.54414 5.01967 4.51572
95 1 6.78566 6.86257 4.57562
96 1 5.88255 8.35819 6.75531
97 1 0.266002 3.46715 8.82339
98 1 5.04139 8.56201 1.52585
99 1 6.87004 0.657784 5.55387
100 1 4.7485 4.7574 9.35226
101 1 5.6706 4.87902 8.71448
102 1 2.2315 3.68916 3.24412
103 1 5.56505 6.6976 3.16228
104 1 6.29551 7.37928 6.62694
105 1 0.113376 5.97072 4.04849
106 1 8.20071 8.08832 5.0961
107 1 5.04485 4.81318 3.83203
108 1 7.5854 0.00679083 2.20818
109 1 7.44775 5.44127 7.79506
110 1 8.69519 7.06386 7.43808
111 1 6.32917 8.54599 0.437736
112 1 7.52606 2.25683 0.35074
113 1 4.3826 4.18749 8.49156
114 1 5.58128 3.99811 3.10862
115 1 5.69058 2.05599 2.27696
116 1 5.81101 2.45011 9.19037
117 1 8.1502 9.08567 0.0164368
118 1 7.17675 3.6412 1.5813
119 1 4.32492 1.84025 5.41272
120 1 2.06289 8.7746 8.44189
121 1 3.75077 2.48852 4.86468
122 1 3.35182 7.90147 4.28363
123 1 4.62834 5.98889 9.17241
124 1 9.26541 9.3818 6.38441
125 1 3.83561 4.05341 5.97566
126 1 6.18766 3.28964 1.58995
127 1 5.42114 8.78644 5.93816
128 1 7.58395 6.21622 4.8953
129 1 9.26941 7.87127 0.528149
130 1 3.63995 3.33043 0.651895
131 1 7.33786 1.4403 3.72045
132 1 7.08476 8.51224 2.55125
133 1 5.15472 2.55466 3.03954
134 1 0.557453 9.04617 9.26607
135 1 8.53824 6.22253 4.34591
136 1 6.9757 2.64331 7.18007
137 1 2.12154 4.65204 6.12277
138 1 5.77613 7.9224 5.56764
139 1 4.7877 2.55175 4.65236
140 1 0.346749 4.28421 0.0533253
141 1 2.90753 7.02966 3.98525
142 1 6.03953 0.360067 6.18152
143 1 5.26792 1.67297 0.225074
144 1 4.49751 0.964292 4.72596
145 1 0.849821 2.53881 9.02513
146 1 1.20598 2.49207 2.50727
147 1 8.04915 2.26779 7.28489
148 1 0.530273 6.86402 3.73194
149 1 3.78178 0.876132 2.11038
150 1 0.737956 7.38688 5.10852
151 1 7.32983 7.56015 6.37847
152 1 5.77999 0.758547 4.31198
153 1 1.44067 7.1191 0.336432
154 1 3.86656 5.2778 0.0791006
155 1 0.21092 9.2817 4.36328
156 1 5.9162 2.44929 7.34596
157 1 6.86139 5.96619 9.4284
158 1 2.61643 8.54526 7.56058
159 1 1.90141 6.17065 7.50963
160 1 6.23655 6.40939 7.02851
161 1 2.76424 2.92854 7.53902
162 1 0.376218 3.06875 2.8742
163 1 6.35437 2.27052 6.33729
164 1 3.04094 0.172091 7.34357
165 1 9.26521 5.77937 5.66867
166 1 7.06288 6.92465 7.1852
167 1 3.55376 8.96629 0.31597
168 1 7.4269 5.37814 2.06064
169 1 1.39472 4.65455 0.453975
170 1 7.26244 2.39386 3.49831
171 1 7.05521 0.000274089 6.51454
172 1 3.36061 6.96106 8.66685
173 1 2.90028 4.98254 0.834436
174 1 5.33224 3.68754 8.93328
175 1 8.17259 3.69464 0.765785
176 1 2.91823 1.80356 3.07949
177 1 4.52099 6.26825 1.68301
178 1 7.42852 1.96342 2.34448
179 1 6.26633 3.22455 3.60702
180 1 1.89068 1.49449 8.02522
181 1 8.46447 5.12381 1.68243
182 1 2.71215 8.6484 3.57736
183 1 4.96665 4.65925 1.03036
184 1 6.18189 6.60223 8.07935
185 1 1.30504 7.52034 6.16946
186 1 9.14712 2.39882 1.97988
187 1 2.2995 1.49216 4.2848
188 1 0.914794 6.17937 9.35262
189 1 4.06252 4.99691 5.49492
190 1 3.58146 3.31846 1.74173
191 1 5.04517 4.70445 5.54897
192 1 3.52108 0.217371 6.45776
193 1 5.03507 2.01364 1.40604
194 1 1.54381 8.61174 3.72472
195 1 5.49944 8.45128 3.79078
196 1 1.01692 0.488749 2.55664
197 1 5.25968 2.92777 1.79079
198 1 6.73402 0.696883 9.04042
199 1 3.89529 0.77955 5.50153
200 1 1.0442 0.0209947 8.41034
201 1 4.69041 1.90115 3.71822
202 1 3.17208 5.67998 3.34651
203 1 4.33873 2.33556 6.44367
204 1 5.31447 6.83716 9.327
205 1 3.95857 1.31455 6.39592
206 1 5.54368 9.2376 7.37616
207 1 5.8938 5.09572 3.20409
208 1 0.77382 5.66608 2.11948
209 1 6.36466 0.476756 7.19844
210 1 1.48557 4.31624 8.73636
211 1 6.70096 0.177123 0.453702
212 1 5.13438 5.71242 2.77419
213 1 2.79936 5.98447 4.35677
214 1 7.57567 3.05701 2.35414
215 1 6.95961 6.80338 3.35365
216 1 7.88735 3.16185 6.84278
217 1 2.10242 9.21111 6.81664
218 1 2.16083 2.31565 2.21569
219 1 7.99656 4.68198 0.933118
220 1 7.61107 0.396267 8.56421
221 1 5.48396 8.10358 7.7078
222 1 4.4525 5.62095 0.8349
223 1 3.12824 0.6211 0.756236
224 1 6.57547 4.32435 3.52727
225 1 1.77855 3.26971 8.6009
226 1 3.10798 1.95659 7.76865
227 1 7.28678 5.72238 5.7078
228 1 6.96044 9.03313 8.92368
229 1 9.1304 2.13237 6.10813
230 1 7.32665 1.25189 0.672
231 1 8.57065 4.01299 5.24784
232 1 6.86622 4.57665 7.99352
233 1 0.00532606 9.36115 2.4669
234 1 5.38921 7.91258 2.84612
235 1 5.78724 7.88001 1.08751
236 1 9.05486 3.53493 3.42237
237 1 8.19209 1.68553 5.49478
238 1 7.52238 0.68289 7.31002
239 1 4.6106 4.45 6.52667
240 1 1.22975 1.54648 9.0821
241 1 3.04597 5.16765 2.31313
242 1 4.2124 5.13359 8.52588
243 1 4.76566 0.929446 3.79508
244 1 6.87756 5.1748 3.87983
245 1 6.59291 4.56158 1.86643
246 1 7.94315 2.1791 4.1701
247 1 4.75553 2.47689 9.10555
248 1 5.42692 8.63319 4.84995
249 1 6.59348 5.11259 5.34741
250 1 4.87686 4.71551 2.8106
251 1 7.53839 5.0276 4.76025
252 1 9.38276 6.62057 4.80094
253 1 2.1078 6.59888 1.08507
254 1 5.67106 2.61428 0.807431
255 1 4.77217 3.4929 2.56709
256 1 0.0645052 5.51259 1.27169
257 1 8.94177 8.89325 3.50308
258 1 3.18793 6.48098 1.13361
259 1 5.54533 2.18972 5.45795
260 1 4.30679 2.61879 2.10386
261 1 1.15582 8.38171 8.67617
262 1 7.51139 2.14112 8.20489
263 1 6.64317 4.026 6.07055
264 1 7.7795 0.262207 4.92254
265 1 3.92444 1.84466 1.54096
266 1 0.453896 7.07392 0.808428
267 1 5.79491 5.28026 2.15809
268 1 5.08856 0.957954 0.938327
269 1 3.71254 4.16769 9.27881
270 1 7.75344 7.83056 2.04966
271 1 1.56597 8.30594 0.995942
272 1 1.76273 3.22404 1.50457
273 1 8.82739 4.74684 3.2805
274 1 4.4367 3.14868 8.23011
275 1 5.04665 0.45723 9.38371
276 1 9.00816 8.58776 9.04416
277 1 6.93525 5.06495 0.885331
278 1 3.50379 2.87929 5.79438
279 1 0.515662 3.68657 0.873237
280 1 3.06283 1.21467 6.99725
281 1 3.76103 7.32085 2.43147
282 1 1.15634 7.63364 3.99112
283 1 1.62584 6.37165 6.33482
284 1 5.89287 6.77755 5.86154
285 1 0.989874 0.0143822 6.31349
286 1 0.817902 2.27636 6.2433
287 1 4.32071 9.13283 6.04315
288 1 0.439457 6.62857 1.81801
289 1 8.38655 1.66165 2.19666
290 1 5.16024 4.61425 7.85805
291 1 8.73675 2.95892 5.54741
292 1 5.35479 2.74439 6.43075
293 1 7.82035 4.64724 5.66578
294 1 0.698229 2.88416 7.15129
295 1 5.46783 3.92929 7.16299
296 1 8.46824 5.41858 8.81086
297 1 0.069735 4.13612 5.74343
298 1 8.6206 3.73618 6.27716
299 1 3.74759 8.77863 7.03386
300 1 2.26685 1.44175 5.34539
301 1 5.45297 7.08784 7.49218
302 1 8.50936 6.57638 5.38553
303 1 5.61237 5.61649 5.51682
304 1 1.51363 6.30327 8.41225
305 1 6.38458 8.72412 7.65955
306 1 0.824629 9.26735 1.70725
307 1 5.72561 2.33425 3.89938
308 1 3.39452 8.66783 8.72996
309 1 0.0487837 6.36507 7.40569
310 1 7.68874 6.97338 4.14573
311 1 0.599657 8.74565 0.866686
312 1 3.0159 8.00982 0.023265
313 1 6.21977 7.47275 3.41598
314 1 5.98311 0.931396 0.299132
315 1 5.24167 5.61146 8.05951
316 1 8.3941 4.50517 9.35771
317 1 6.48942 6.02038 4.06899
318 1 8.10706 1.95354 3.18666
319 1 1.52287 1.57558 1.79045
320 1 1.19774 6.06649 3.60154
321 1 9.13969 4.4455 0.997492
322 1 6.00649 0.0861393 5.12714
323 1 9.09718 2.60346 9.18953
324 1 0.597782 5.4753 8.59482
325 1 0.253521 7.75403 8.79971
326 1 2.80372 2.89402 3.05213
327 1 1.0628 2.85273 0.717652
328 1 5.52441 3.90369 6.18501
329 1 0.123128 7.62529 1.74228
330 1 4.48495 3.85956 1.4706
331 1 0.98843 9.2845 5.23448
332 1 3.24787 2.25844 6.66945
333 1 0.458411 4.35404 8.33493
334 1 2.00636 5.45569 6.74702
335 1 6.37839 5.83233 1.38329
336 1 7.66412 5.78773 3.93257
337 1 6.87552 0.753179 4.44617
338 1 3.64839 0.293612 4.49987
339 1 7.77933 5.44072 0.309407
340 1 3.52055 6.49963 7.02514
341 1 6.35111 6.90965 9.13933
342 1 0.724826 0.804715 4.71817
343 1 3.11088 6.66669 3.01582
344 1 3.11076 4.8671 8.54414
345 1 7.90109 6.34316 7.59247
346 1 9.0592 3.5623 1.4903
347 1 7.2332 6.33861 8.39858
348 1 0.0293882 2.81024 4.03318
349 1 2.60768 3.42708 2.11801
350 1 1.15271 3.84111 6.78715
351 1 5.63591 0.0818763 0.853999
352 1 3.49048 5.97031 8.56764
353 1 7.17424 7.93153 4.66415
354 1 2.25875 7.02013 8.60976
355 1 7.92214 8.80001 3.23977
356 1 6.25682 1.33505 6.11108
357 1 1.58866 4.94616 5.18905
358 1 4.76617 2.90453 5.61829
359 1 0.432297 6.58625 8.52217
360 1 6.76206 2.7489 0.901974
361 1 0.265961 0.754216 6.95937
362 1 2.68205 8.26238 5.37228
363 1 8.94888 6.09015 1.97772
364 1 0.308036 0.573487 5.69904
365 1 4.96394 6.66136 8.33577
366 1 2.30296 9.14651 1.04221
367 1 0.307664 2.58431 5.31732
368 1 4.12653 7.99113 6.36813
369 1 6.86356 7.44868 2.47581
370 1 1.30253 1.44655 2.84358
371 1 0.385507 0.142612 3.39684
372 1 4.10808 3.54878 5.05049
373 1 5.41687 0.883484 6.93111
374 1 7.75056 8.66569 1.42704
375 1 2.72738 7.9036 8.45025
376 1 5.45999 3.66976 0.985591
377 1 8.96024 8.28783 6.09552
378 1 2.59756 5.8138 1.61638
379 1 8.23594 8.18691 3.98019
380 1 8.84692 4.54365 8.17649
381 1 2.68919 1.7606 8.70848
382 1 4.74034 0.650377 6.16545
383 1 2.80488 0.347104 1.83962
384 1 1.94501 6.73612 4.19763
385 1 4.31169 6.95149 9.09676
386 1 2.30993 7.44193 6.09704
387 1 9.17723 1.53844 1.39928
388 1 2.69863 3.20168 1.05348
389 1 5.03983 1.91404 7.273
390 1 1.19167 5.13804 4.11052
391 1 6.67565 8.37482 3.84109
392 1 1.99919 5.50797 0.734507
393 1 2.76885 0.640946 5.00036
394 1 3.31058 5.72755 5.3708
395 1 6.52146 1.8848 0.317968
396 1 2.82637 2.83177 8.63081
397 1 6.32682 5.94427 2.9966
398 1 7.35542 6.09912 0.949912
399 1 7.25102 3.59968 3.69109
400 1 9.13633 4.88608 5.01013
401 1 5.93376 6.29241 0.526263
402 1 7.68948 3.78594 4.63667
403 1 9.06756 2.28188 3.06334
404 1 1.56819 0.552915 1.44867
405 1 2.93875 5.63587 6.42075
406 1 5.92259 1.59636 1.1589
407 1 4.50227 8.07134 2.33092
408 1 0.709936 2.18371 1.44991
409 1 7.73775 7.20769 5.14423
410 1 6.14478 3.36446 0.196031
411 1 3.99779 4.44449 2.2655
412 1 3.67948 5.3159 4.41602
413 1 1.92308 8.0998 6.81472
414 1 6.6585 7.58372 0.523189
415 1 8.87621 8.80534 0.781333
416 1 7.41986 6.9983 1.53103
417 1 9.10671 1.1024 0.407843
418 1 6.83195 2.68562 9.12425
419 1 1.58284 3.95378 4.30189
420 1 6.44683 5.57633 8.21307
421 1 0.205911 7.40183 7.79912
422 1 6.28088 1.44522 5.11319
423 1 6.84401 5.00581 2.82929
424 1 3.75441 3.30342 2.91661
425 1 8.81369 4.32929 2.27737
426 1 9.05541 2.7959 7.16032
427 1 6.84063 1.8436 1.38634
428 1 2.10149 7.56515 3.47368
429 1 4.25428 1.9932 8.03117
430 1 6.30709 9.27676 4.11102
431 1 0.236384 5.29504 7.62301
432 1 0.118248 6.14638 2.95732
433 1 8.15182 3.95442 3.00031
434 1 0.564176 1.94306 4.45161
435 1 6.44532 8.57499 5.15019
436 1 1.78402 7.81738 7.9351
437 1 2.20131 4.43168 2.5083
438 1 1.55263 6.50482 1.98533
439 1 1.01847 3.61846 7.84538
440 1 2.35551 1.22049 1.27938
441 1 5.28828 1.98736 8.36092
442 1 3.02637 7.9613 6.69831
443 1 1.28363 4.11254 1.59944
444 1 7.62753 4.12465 6.61169
445 1 1.36233 8.64127 7.59007
446 1 8.04974 1.24379 8.13263
447 1 8.20476 2.9006 0.133744
448 1 0.999238 7.83565 2.97958
449 1 5.70274 9.36221 1.87086
450 1 2.57783 9.13128 0.0419589
451 1 9.36886 3.55528 7.82579
452 1 9.39318 7.18605 2.70836
453 1 4.38248 1.99173 0.599115
454 1 0.8831 7.97016 0.18994
455 1 4.16475 7.14538 4.51027
456 1 1.85756 3.67082 6.02516
457 1 6.84603 3.36259 5.07733
458 1 1.66568 6.81567 5.31515
459 1 7.2225 1.58099 5.93359
460 1 3.36254 4.33201 4.93985
461 1 1.7808 1.78909 6.20597
462 1 6.36655 6.90914 1.33581
463 1 1.8767 0.604856 0.383751
464 1 9.37679 9.34529 8.40053
465 1 0.391628 8.56339 6.68046
466 1 1.95042 0.200488 7.7102
467 1 6.3719 1.91521 8.55812
468 1 6.87541 6.65502 6.04576
469 1 1.30984 1.48082 3.86571
470 1 0.62738 8.30814 5.79754
471 1 9.30003 0.374757 1.15986
472 1 9.33339 1.47832 5.35775
473 1 6.6981 2.8694 8.14929
474 1 1.71605 7.91675 5.23682
475 1 8.81533 1.16506 3.03408
476 1 1.74135 2.83495 6.62828
477 1 2.2992 0.153526 4.09715
478 1 3.55263 6.24254 0.209114
479 1 0.167676 3.84265 6.89529
480 1 1.91691 7.90897 9.23019
481 1 4.50846 2.88707 1.03077
482 1 5.15756 3.28249 3.78775
483 1 1.77788 5.82663 4.73059
484 1 1.80387 2.30249 1.13409
485 1 0.298689 8.44094 7.96765
486 1 7.71098 7.63755 0.830487
487 1 8.04242 6.7705 6.68946
488 1 9.08151 6.61051 6.51012
489 1 0.177439 1.76342 7.04541
490 1 4.5332 8.29718 3.43746
491 1 3.57657 8.226 2.96245
492 1 3.31389 2.46928 2.18154
493 1 0.162594 3.09983 6.18709
494 1 5.24283 1.60732 4.57327
495 1 2.6373 9.24441 5.8551
496 1 3.25863 1.8466 5.69291
497 1 0.969669 4.58381 7.36181
498 1 2.1454 2.88491 4.05281
499 1 4.55052 7.64604 8.30358
500 1 6.88995 1.16601 8.0271
501 1 7.79477 4.54162 3.93206
502 1 1.2367 1.92014 7.04752
503 1 5.9415 1.37526 7.68529
504 1 7.7827 7.47549 7.60085
505 1 4.95974 5.49627 4.71099
506 1 7.97249 6.91423 2.84559
507 1 2.014 0.77745 2.38974
508 1 4.64263 0.151764 1.78751
509 1 5.94094 9.31776 9.08586
510 1 8.40352 6.06247 1.05063
511 1 0.354211 1.21376 3.44979
512 1 8.2995 2.83428 1.56461
513 1 8.8232 3.20817 2.4288
514 1 8.4904 5.40195 7.72831
515 1 4.44112 9.09838 9.10142
516 1 2.77621 7.62391 2.65037
517 1 1.65704 2.72838 7.66305
518 1 3.70016 3.24013 8.86706
519 1 1.94534 5.50765 2.44724
520 1 1.95718 6.30643 9.3679
521 1 4.61987 9.22119 4.19389
522 1 0.804907 0.0742898 7.38465
523 1 2.16552 5.62241 3.65218
524 1 2.04892 1.07487 6.9968
525 1 5.32097 1.05297 1.91047
526 1 4.58023 3.73068 0.34855
527 1 2.55121 6.77042 2.15738
528 1 2.85804 1.48107 2.08058
529 1 2.49142 2.47013 5.79425
530 1 8.41256 8.72832 2.31107
531 1 2.06032 3.18257 5.03758
532 1 1.42865 4.2812 3.4146
533 1 3.77421 7.1876 7.81819
534 1 7.50618 8.91033 4.24989
535 1 3.70149 7.73098 5.25192
536 1 6.38254 2.13502 3.09762
537 1 4.64842 1.40874 8.88263
538 1 5.21321 1.63732 6.29202
539 1 8.61177 5.23595 4.13831
540 1 2.38504 5.71933 8.43067
541 1 2.92238 2.1458 1.2284
542 1 2.89944 4.42487 6.79703
543 1 1.59946 8.91362 0.111313
544 1 3.98535 0.139359 8.17274
545 1 6.86069 6.44178 2.17273
546 1 6.40366 7.6588 7.69646
547 1 0.952772 8.40566 4.71134
548 1 9.25448 8.24605 4.54651
549 1 2.24956 2.06549 7.13043
550 1 0.844909 3.55573 5.50062
551 1 2.77442 5.61894 0.00516006
552 1 0.318186 4.50775 1.87006
553 1 3.76262 5.0766 6.50621
554 1 5.97598 4.17236 5.24705
555 1 2.11108 1.01245 3.43794
556 1 0.947014 5.57503 5.98851
557 1 4.61401 8.78093 7.78337
558 1 7.66462 2.71374 5.11212
559 1 3.93727 7.26742 3.5424
560 1 2.62362 3.96672 4.21058
561 1 3.11114 4.01098 2.72306
562 1 1.03351 6.86831 7.71171
563 1 3.65917 7.37987 0.693994
564 1 8.10674 2.99682 3.28732
565 1 2.02182 0.667654 6.0111
566 1 0.473467 5.29398 0.294312
567 1 8.26087 7.57132 5.99612
568 1 0.609137 0.955372 1.68807
569 1 2.32481 4.5953 9.32741
570 1 4.22235 6.20803 4.8394
571 1 8.79822 4.89341 5.93293
572 1 5.40781 5.86858 1.29755
573 1 1.47504 3.63863 2.49925
574 1 4.25667 2.79059 3.84879
575 1 1.91939 2.18356 3.33164
576 1 7.80395 3.58175 5.6937
577 1 4.18681 8.05413 9.37229
578 1 9.13835 9.13784 7.36565
579 1 5.8752 7.34091 2.19511
580 1 2.66741 6.52982 5.72389
581 1 5.36776 0.0776821 3.55982
582 1 5.48435 4.11976 1.9567
583 1 8.91597 0.653417 3.96676
584 1 4.67197 5.17868 1.83771
585 1 8.94495 0.859174 8.59186
586 1 3.88054 8.8161 5.1016
587 1 7.43559 1.04054 1.72625
588 1 8.19074 1.15348 4.55142
589 1 1.92962 9.18128 2.08801
590 1 7.98503 5.06871 6.69952
591 1 3.69696 6.27973 3.93721
592 1 9.34601 8.9804 5.37212
593 1 9.03315 5.5869 6.75024
594 1 6.75959 3.84893 8.74953
595 1 7.975 6.26752 2.06879
596 1 6.98364 4.94305 6.34114
597 1 1.14443 1.04417 7.4698
598 1 1.03351 4.51823 5.95206
599 1 1.08508 8.15681 1.92301
600 1 5.07453 8.98268 2.63385
601 1 8.63304 7.26283 4.39813
602 1 7.71669 4.31849 2.05047
603 1 2.88121 3.73841 5.87673
604 1 6.25605 8.36478 8.60533
605 1 4.33836 6.10827 7.72264
606 1 4.40983 3.9515 7.50788
607 1 2.9213 0.0646965 8.33939
608 1 5.19018 8.38277 8.71719
609 1 0.3682 1.74062 2.50602
610 1 7.23331 3.44924 0.25748
611 1 3.89566 0.53182 0.00844038
612 1 1.16114 3.50771 9.3714
613 1 4.68513 0.565646 2.7727
614 1 0.969308 2.03085 8.11006
615 1 3.55236 1.89782 3.93606
616 1 0.725453 2.20227 3.39815
617 1 8.37747 5.51544 5.14632
618 1 6.47217 4.08875 0.942487
619 1 6.35912 4.38148 7.1059
620 1 7.35599 4.47738 0.0993014
621 1 8.99156 0.510242 4.9247
622 1 6.1413 8.84464 3.0209
623 1 6.75749 8.42378 6.16015
624 1 8.60536 2.10212 0.667388
625 1 1.10549 5.15685 1.31326
626 1 0.171376 4.88937 4.03161
627 1 0.542863 8.46067 3.65274
628 1 1.87743 2.27933 8.81475
629 1 4.81827 6.54112 3.98658
630 1 4.55726 7.78461 7.3178
631 1 4.04805 0.881063 1.06023
632 1 2.17575 5.59234 5.63666
633 1 0.0310095 8.31072 2.72848
634 1 5.0599 6.35499 6.08894
635 1 3.05178 4.26184 1.61142
636 1 8.10414 8.66321 8.48919
637 1 1.45568 5.23355 8.01121
638 1 4.37995 7.14802 5.67304
639 1 2.17968 1.72763 0.297026
640 1 7.63469 3.13504 8.65604
641 1 2.90583 6.45368 7.93757
642 1 8.49951 2.64492 8.37843
643 1 8.41512 7.90409 2.94191
644 1 3.57034 9.2571 1.42379
645 1 3.36637 3.37798 6.75792
646 1 5.2012 6.48969 5.01986
647 1 5.76449 0.987836 8.64808
648 1 6.7761 4.2274 4.47196
649 1 4.47511 6.90619 6.74577
650 1 3.98341 2.76842 7.3161
651 1 5.45916 5.37528 0.294634
652 1 4.81765 0.0956108 5.21093
653 1 8.08644 1.49173 6.5956
654 1 5.75735 7.84032 0.0519191
655 1 2.8417 7.00934 0.201334
656 1 7.38796 1.51275 8.98792
657 1 5.15304 8.61066 0.472267
658 1 1.2834 7.24444 1.4498
659 1 1.67262 2.16053 4.74092
660 1 4.32239 6.45323 2.99795
661 1 5.8989 4.91145 1.15652
662 1 6.22238 3.25591 6.76718
663 1 3.73057 8.23101 7.96152
664 1 0.603816 5.49252 4.95804
665 1 3.02052 0.845748 3.94124
666 1 2.28165 8.04274 4.34265
667 1 8.42691 0.0588226 1.6277
668 1 5.27057 7.49103 4.76284
669 1 1.29579 3.1568 3.53908
670 1 6.67384 2.33163 5.3606
671 1 1.25284 4.81104 2.43464
672 1 6.53148 5.01787 9.24891
673 1 1.30993 1.39235 0.818827
674 1 1.70692 7.13435 7.06374
675 1 2.79728 0.801592 9.20396
676 1 9.18512 6.99406 9.26625
677 1 7.23997 8.27034 8.16872
678 1 7.26063 1.67248 4.80011
679 1 7.90384 2.46519 6.08163
680 1 9.24822 7.70733 3.67253
681 1 2.89855 9.03714 2.61502
682 1 4.35502 5.5405 3.69492
683 1 3.66692 1.19152 8.60125
684 1 8.46377 7.77376 9.21383
685 1 8.2202 5.86819 6.11516
686 1 1.86134 4.28646 7.79606
687 1 6.01748 5.1546 4.45301
688 1 7.44893 7.79528 3.38773
689 1 1.60357 8.64011 5.9006
690 1 4.6628 1.71391 2.5946
691 1 3.44609 1.52668 0.348223
692 1 7.04865 -0.0112808 3.36331
693 1 8.30594 0.134937 7.87743
694 1 2.23385 7.59121 0.779002
695 1 5.54757 3.01252 8.21292
696 1 7.88723 4.98488 2.91407
697 1 4.68864 8.13316 5.471
698 1 4.41676 3.39141 6.4946
699 1 0.984716 6.42855 4.56934
700 1 8.28227 8.55772 7.50332
701 1 3.92277 0.998715 7.53024
702 1 8.78367 2.23149 4.79161
703 1 6.38104 5.77617 6.25138
704 1 8.74298 5.31752 0.522731
705 1 6.06748 3.18346 5.74709
706 1 2.72108 2.21366 4.87926
707 1 6.83055 2.65748 4.3565
708 1 4.41568 8.11275 4.41693
709 1 2.5483 6.62851 6.74288
710 1 1.11519 6.219 0.982822
711 1 2.75371 1.00674 7.91194
712 1 2.63492 4.73279 3.38384
713 1 0.653961 6.54676 5.70892
714 1 0.542601 3.95408 3.96927
715 1 6.40965 6.15478 5.18843
716 1 4.00536 0.238881 3.53204
717 1 4.42161 5.12141 7.39786
718 1 5.08592 3.78418 4.94688
719 1 8.16014 6.95243 8.61016
720 1 5.82378 6.76588 4.21342
721 1 2.1377 4.82084 1.50584
722 1 7.87024 1.97832 1.35124
723 1 7.8973 4.47682 7.52183
724 1 6.82698 1.53141 7.02473
725 1 5.80148 5.97979 8.91869
726 1 8.48801 9.06596 4.45388
727 1 3.49123 5.58283 7.45163
728 1 7.52245 0.256396 1.05882
729 1 1.73329 7.44852 2.41842
730 1 0.688001 3.24691 1.80188
731 1 0.0643708 2.74584 0.966057
732 1 6.43663 1.52047 4.01531
733 1 4.04563 8.34264 0.989595
734 1 0.377023 4.18177 2.9359
735 1 8.38412 9.23515 5.71142
736 1 8.70062 7.83154 8.22211
737 1 1.00612 3.03085 4.54832
738 1 2.23692 8.14533 1.7683
739 1 3.52008 4.53568 7.59135
740 1 8.31511 0.0930908 6.80466
741 1 2.91062 8.97 4.70331
742 1 8.50004 3.14855 4.38037
743 1 0.897704 7.74129 7.06352
744 1 1.7313 0.515484 4.88267
745 1 2.85287 3.57418 0.0499519
746 1 8.42626 0.253212 2.96863
747 1 0.519678 0.80305 8.9998
748 1 5.70312 4.39665 0.234974
749 1 7.38689 6.87933 0.0839938
750 1 8.90627 1.05532 6.20013
751 1 5.66954 7.42431 8.46487
752 1 4.96454 2.95275 7.31102
753 1 7.06993 7.32526 8.47202
754 1 4.54621 0.196645 7.18817
755 1 1.47879 2.68543 5.65293
756 1 3.99602 6.10438 6.07134
757 1 0.171185 1.72456 8.88736
758 1 3.35358 7.16086 6.15669
759 1 4.35262 4.4326 4.46362
760 1 3.50377 8.36312 1.95742
761 1 1.05215 1.07993 6.3653
762 1 5.26816 6.89912 1.32411
763 1 8.5975 3.61645 8.68098
764 1 2.18715 4.04867 0.782487
765 1 9.33479 8.64197 1.70506
766 1 7.04846 3.02653 6.1192
767 1 5.86329 3.06409 4.67578
768 1 3.86827 4.51236 0.854618
769 1 9.12028 7.49669 5.29279
770 1 2.81649 7.47911 7.51203
771 1 6.47409 0.705007 1.34758
772 1 3.85753 1.2057 3.17442
773 1 4.85176 8.6747 6.8442
774 1 3.03016 0.948373 5.99544
775 1 9.21411 5.26778 2.4864
776 1 3.66942 2.21529 8.9221
777 1 6.80158 7.89705 1.58462
778 1 8.58231 7.13713 0.749429
779 1 4.00271 9.08281 2.55919
780 1 7.43038 5.94423 2.94936
781 1 8.39155 1.74354 8.99178
782 1 0.228605 2.65222 8.1692
783 1 0.257054 7.49513 6.21523
784 1 3.01346 0.698943 2.8614
785 1 2.00461 6.46375 3.05082
786 1 2.54493 5.02872 7.61666
787 1 0.849325 0.373348 0.616556
788 1 7.37 8.99234 5.53925
789 1 0.332757 1.16364 7.99183
790 1 5.97589 3.9866 8.13138
791 1 6.8271 3.78229 2.57693
792 1 8.51374 5.75618 3.21951
793 1 7.29579 9.21443 7.75055
794 1 8.29226 6.31247 0.00878448
795 1 7.75026 4.18337 8.49257
796 1 5.78532 4.07077 4.20646
797 1 7.87859 0.454855 3.85645
798 1 3.0041 2.46742 0.304513
799 1 6.61396 1.29631 2.31898
800 1 7.4643 8.02867 9.22527
801 2 2.62563 3.09554 6.43427
802 2 9.03875 7.05561 8.25295
803 2 4.08178 2.70573 0.141958
804 2 8.07173 1.48757 0.385307
805 2 6.32456 8.00698 2.81352
806 2 5.91431 5.87952 7.62747
807 2 2.35066 2.29784 8.04214
808 2 0.780793 7.3928 2.23507
809 2 3.14829 4.76742 0.0493543
810 2 7.63919 1.47301 7.40468
811 2 0.589148 4.53217 0.852677
812 2 2.18397 4.04472 1.6753
813 2 0.368641 3.09018 0.197648
814 2 1.44245 2.29836 0.196145
815 2 5.52039 6.81366 6.68477
816 2 1.17207 0.913743 8.42381
817 2 3.39365 8.97136 7.78236
818 2 1.56981 5.14881 3.16497
819 2 8.63443 8.69602 6.72961
820 2 0.113667 4.49939 7.60659
821 2 4.50071 0.612175 8.72226
822 2 5.66365 0.560632 7.72741
823 2 6.60967 7.76307 9.09088
824 2 1.30083 6.07991 5.34779
825 2 5.5481 5.61951 6.42102
826 2 3.7223 2.50652 1.01023
827 2 5.97838 6.91644 5.01926
828 2 8.39302 0.73632 5.5383
829 2 6.28308 5.52321 0.565111
830 2 8.02991 5.88901 8.3042
831 2 8.08302 0.778671 2.16072
832 2 5.35248 0.048574 4.46644
833 2 1.60928 7.34508 4.63553
834 2 6.61059 5.61235 2.1532
835 2 7.17579 4.7381 7.16173
836 2 8.50778 0.339257 0.634591
837 2 4.20563 8.74951 1.72699
838 2 1.45846 0.413635 6.8969
839 2 0.273443 1.49716 6.24761
840 2 7.83696 2.3494 9.00005
841 2 1.03362 2.9139 8.23232
842 2 5.09655 3.7685 8.1053
843 2 2.66132 0.457562 6.68577
844 2 6.93292 7.4883 3.96248
845 2 3.70614 7.7495 7.14314
846 2 6.54537 4.10117 0.123112
847 2 0.105977 7.25014 7.02325
848 2 8.29696 7.39669 3.63034
849 2 0.367106 4.99443 5.65457
850 2 2.01586 3.79508 9.37817
851 2 3.82257 1.85788 7.24625
852 2 8.21159 2.43623 2.44118
853 2 1.74158 5.75302 1.58795
854 2 8.0944 6.39616 3.5767
855 2 5.98553 4.82104 7.6845
856 2 8.88802 8.67952 8.09111
857 2 8.21702 3.62765 2.11509
858 2 3.53679 4.10411 8.39318
859 2 4.63215 3.9723 5.80608
860 2 4.46301 1.12218 0.350756
861 2 4.93624 7.59078 9.04787
862 2 3.66117 7.77284 8.71785
863 2 7.03845 4.32922 5.31476
864 2 0.187088 7.36905 4.34985
865 2 1.87442 9.34731 5.5926
866 2 7.97721 4.94716 8.23834
867 2 7.00995 3.57776 6.72948
868 2 8.34778 4.72351 4.71035
869 2 4.51565 1.08598 6.98756
870 2 3.28214 4.57014 4.16906
871 2 6.98951 0.884573 6.48344
872 2 3.28773 0.0549641 9.06346
873 2 7.35444 4.29007 3.07444
874 2 8.29291 1.2637 3.69369
875 2 6.48327 8.95859 6.85108
876 2 1.34792 6.98956 3.54002
877 2 1.48168 4.03137 5.16324
878 2 1.26779 8.63955 6.70771
879 2 5.93522 1.67788 6.79503
880 2 3.41572 0.00644381 5.55271
881 2 7.68637 2.98783 4.2123
882 2 2.73649 6.41631 9.00628
883 2 3.16968 0.0802236 3.61306
884 2 6.89267 9.23379 4.87275
885 2 1.36414 3.78904 0.797033
886 2 4.53166 3.55722 4.24724
887 2 0.361914 6.0181 6.57877
888 2 2.85955 8.84617 6.67899
889 2 0.0822201 3.70968 2.22416
890 2 6.70717 6.66941 0.533159
891 2 2.78537 8.87889 1.71749
892 2 8.12186 8.33875 0.50875
893 2 1.15155 0.313989 9.21372
894 2 8.70942 6.50385 2.66984
895 2 1.34791 9.21303 0.99169
896 2 8.68608 2.85207 6.41805
897 2 6.68267 2.07013 7.7499
898 2 7.54916 2.98091 7.75273
899 2 6.20056 3.30529 7.62852
900 2 2.31162 8.2765 6.09433
901 2 8.52825 0.0589446 8.69375
902 2 2.11321 7.29937 1.57661
903 2 4.11372 5.78944 6.91715
904 2 7.89329 6.72186 0.778123
905 2 4.58052 6.92939 7.63653
906 2 9.15367 5.40268 8.29646
907 2 2.57716 1.5548 6.35795
908 2 4.51355 7.478 2.88195
909 2 3.84875 4.14924 6.8737
910 2 2.71929 5.9417 7.27248
911 2 5.14818 7.68992 1.8653
912 2 6.04203 2.35447 1.59962
913 2 9.10443 1.35078 4.54445
914 2 7.34824 4.1366 0.887163
915 2 5.2492 7.28888 5.6346
916 2 3.69456 1.71059 2.34369
917 2 8.63537 6.19413 7.21453
918 2 7.28303 2.64257 1.63405
919 2 9.30414 5.12535 9.08402
920 2 6.95536 6.21447 7.57832
921 2 2.65575 6.04578 2.57173
922 2 5.2607 0.111044 6.59491
923 2 6.03102 2.18698 4.74935
924 2 2.04082 3.42124 7.83654
925 2 0.779251 7.95555 1.20393
926 2 6.93947 5.651 4.69889
927 2 7.43509 0.217116 0.000538993
928 2 8.11045 7.80504 6.81896
929 2 0.680452 7.13339 9.37242
930 2 7.64969 2.96213 0.880626
931 2 5.06605 6.23532 0.501709
932 2 1.1218 3.16285 6.23795
933 2 2.06612 1.21634 8.97878
934 2 3.0629 7.78529 3.46899
935 2 8.26286 5.4966 2.42099
936 2 7.89289 3.75004 9.21272
937 2 3.55679 5.58365 0.752679
938 2 0.871032 4.83475 9.06586
939 2 6.84636 3.1047 2.98375
940 2 2.64454 6.06285 0.679053
941 2 3.06032 4.08872 0.734769
942 2 1.19809 5.08203 6.62951
943 2 5.2113 3.14647 0.314629
944 2 7.81632 5.44639 1.22992
945 2 8.44237 4.22246 1.4578
946 2 0.235817 0.828774 2.57518
947 2 5.68628 8.90255 8.13396
948 2 1.34411 5.94664 2.76025
949 2 4.22316 1.87394 4.57164
950 2 3.8896 1.10798 4.11586
951 2 8.63916 2.50085 3.74394
952 2 2.80808 4.02946 7.56763
953 2 1.97648 2.94761 2.83838
954 2 5.28924 4.55371 4.7245
955 2 7.49332 8.05589 5.58538
956 2 1.43055 1.31545 4.70001
957 2 4.05616 6.62624 8.33947
958 2 3.03513 3.59147 3.54404
959 2 3.81908 6.83979 1.66777
960 2 0.657743 6.03048 7.8074
961 2 1.1421 0.681683 3.47291
962 2 3.62803 2.58956 8.13401
963 2 9.1326 5.6525 4.73875
964 2 6.00774 4.53238 2.57298
965 2 5.79955 7.18405 0.620626
966 2 1.3467 2.37017 3.97038
967 2 1.2567 0.719405 5.58873
968 2 7.5822 1.10034 5.41091
969 2 4.35736 8.47956 8.5444
970 2 5.80105 5.92978 4.70292
971 2 5.8852 8.74068 1.18259
972 2 8.76412 1.97455 6.86658
973 2 6.13494 3.18164 8.72469
974 2 7.42524 2.06483 6.69897
975 2 2.06327 6.92237 7.78025
976 2 4.59037 5.76526 5.53725
977 2 2.19543 4.74059 8.44443
978 2 2.28724 8.45577 0.498181
979 2 1.98323 4.65198 3.96529
980 2 7.88515 7.77186 8.547
981 2 2.14653 1.61215 2.69809
982 2 9.28553 5.38844 3.36562
983 2 1.26855 5.56919 0.417925
984 2 7.64837 9.01958 6.96284
985 2 7.62977 6.53484 5.71788
986 2 0.41136 1.15368 0.896156
987 2 6.6072 9.22014 5.75364
988 2 8.14147 3.70023 3.80512
989 2 2.64554 2.16718 3.84964
990 2 8.73749 7.97083 2.10738
991 2 6.33042 6.81061 2.74444
992 2 9.13793 6.73608 1.26703
993 2 4.49375 1.19252 1.78165
994 2 8.66509 2.9738 0.829644
995 2 8.73454 3.6853 7.13721
996 2 1.77115 4.47406 7.00122
997 2 0.940254 7.85969 7.93671
998 2 2.40185 6.44285 4.98087