#bin. KALJ data file T=0.5

1000 atoms
2 atom types

0 9.4 xlo xhi
0 9.4 ylo yhi
0 9.4 zlo zhi

Masses

1 1.0
2 1.0

Atoms

1 1 4.87948 7.43411 3.65448
2 1 2.56174 4.80421 0.85138
3 1 2.53813 3.4958 6.48789
4 1 1.39685 6.66492 0.775234
5 1 1.11255 0.937623 4.40874
6 1 5.00386 6.35405 4.44485
7 1 5.83232 4.94607 6.007
8 1 8.83383 2.97247 6.96511
9 1 0.283407 7.2523 5.62207
10 1 0.0414833 4.94377 9.04067
11 1 4.51907 0.670684 5.09098
12 1 6.85302 2.37132 8.44041
13 1 8.91257 9.1704 7.1389
14 1 3.26478 3.43979 7.93845
15 1 0.401126 9.20109 8.28749
16 1 8.86884 8.77927 9.04124
17 1 6.38853 1.20165 2.52542
18 1 5.97226 6.67591 5.72917
19 1 7.739 7.37718 1.91519
20 1 7.39022 2.30774 0.86681
21 1 8.24982 3.78697 8.28261
22 1 7.84777 1.21306 0.503016
23 1 7.48956 1.88477 7.76658
24 1 0.477586 5.30601 8.20242
25 1 5.68881 9.16784 3.36772
26 1 4.97519 2.28732 4.77658
27 1 4.34741 1.7132 7.89605
28 1 5.22151 1.1192 2.30546
29 1 0.565771 4.26399 0.200391
30 1 0.0196977 3.05488 2.57871
31 1 0.934028 1.56702 1.67672
32 1 5.60832 5.46128 5.11321
33 1 6.71696 9.03677 0.173795
34 1 4.26723 7.46754 1.00228
35 1 3.92047 6.72752 5.3743
36 1 2.28739 8.92135 2.46002
37 1 6.49346 4.04124 9.24401
38 1 8.2586 0.445427 2.42922
39 1 7.10354 8.25593 1.97132
40 1 2.84761 9.25696 9.25552
41 1 5.0717 0.711597 6.56534
42 1 1.53203 8.81577 3.15067
43 1 4.89613 0.166704 8.68322
44 1 2.24377 0.282706 6.39595
45 1 1.37777 8.51248 6.82722
46 1 1.09168 4.71346 2.17354
47 1 8.15907 0.0278837 1.01187
48 1 3.6373 0.133805 5.05507
49 1 0.563627 3.15032 6.95638
50 1 8.32967 2.5753 4.2877
51 1 6.59639 5.99346 3.34848
52 1 5.00722 8.09183 1.54669
53 1 2.55378 8.06532 6.70843
54 1 6.75906 9.29123 6.16821
55 1 1.671 4.96191 3.10454
56 1 1.29308 7.26617 5.12308
57 1 3.12706 4.85403 5.6852
58 1 5.11515 5.38706 2.29849
59 1 6.9434 7.53874 7.25394
60 1 2.62468 0.796625 5.48341
61 1 3.15179 7.42648 2.77821
62 1 6.75192 0.654088 1.63066
63 1 0.255695 3.82401 4.06615
64 1 0.859754 8.83547 0.63373
65 1 7.69242 0.697708 4.25333
66 1 1.35371 2.17548 0.0439023
67 1 8.8877 8.08297 7.15236
68 1 4.09058 6.62057 8.37022
69 1 7.89106 6.86701 2.89663
70 1 7.82899 5.0589 2.12055
71 1 7.57112 9.186 6.82295
72 1 2.474 2.3903 0.819203
73 1 3.45068 5.3086 3.02483
74 1 3.65514 0.740541 2.69146
75 1 4.61014 2.78256 0.801146
76 1 7.7583 6.08312 0.333416
77 1 0.691024 3.49666 5.30835
78 1 3.33297 7.24733 1.69513
79 1 6.23555 0.68676 7.55208
80 1 0.914056 1.38626 0.463076
81 1 2.95467 4.31209 7.19193
82 1 4.01542 9.03234 2.50015
83 1 5.46228 7.62428 5.77021
84 1 0.802801 4.00256 6.21814
85 1 5.72342 2.70602 8.41712
86 1 3.69199 4.32158 7.96689
87 1 1.74713 2.7428 3.8604
88 1 8.44142 1.64631 1.65283
89 1 6.43344 3.97218 1.57285
90 1 6.15089 6.71832 2.6938
91 1 0.942272 6.75989 2.95828
92 1 7.85149 1.05302 8.19581
93 1 4.14118 0.867662 6.22725
94 1 1.50055 5.23796 5.09078
95 1 7.79877 7.52133 4.68048
96 1 5.50329 6.78193 7.46404
97 1 0.600499 5.1842 0.673704
98 1 5.83014 8.55425 0.385467
99 1 6.6211 8.47527 6.7507
100 1 7.41523 8.1166 0.194358
101 1 7.13613 4.33041 8.32897
102 1 2.72994 3.66264 2.35897
103 1 5.82888 8.58609 6.07673
104 1 5.92598 5.63789 4.1062
105 1 1.49572 7.01811 4.05387
106 1 8.91521 1.65397 5.82201
107 1 4.54172 4.97618 2.98991
108 1 9.20193 9.06137 3.59214
109 1 6.18244 1.8763 9.04942
110 1 7.31989 5.36943 9.02405
111 1 6.84788 9.27993 7.56183
112 1 7.26297 3.16077 0.342848
113 1 2.84067 3.23988 0.220488
114 1 4.56655 3.77855 3.00635
115 1 5.35877 1.29598 5.00815
116 1 5.86875 1.74569 0.587642
117 1 7.94061 0.0566151 7.76019
118 1 7.89932 2.4717 9.29724
119 1 4.27581 2.83092 5.56937
120 1 1.95255 7.61148 5.81853
121 1 3.27182 0.263374 6.10522
122 1 2.80684 8.1407 5.69663
123 1 3.33786 4.8599 0.174423
124 1 0.89965 9.12567 6.08426
125 1 4.84924 5.27232 5.87717
126 1 7.34296 4.15769 2.11207
127 1 3.6695 8.74484 5.7613
128 1 8.27456 5.67534 5.21743
129 1 0.381649 9.33365 9.26009
130 1 2.27359 2.04145 3.35052
131 1 8.15971 2.96403 0.995089
132 1 9.24156 8.3442 2.08676
133 1 6.44022 2.17263 3.82286
134 1 8.89606 7.62937 9.37339
135 1 8.16856 7.51185 3.64067
136 1 7.47149 0.628518 6.24358
137 1 2.80637 6.26201 7.20077
138 1 4.43265 7.10913 7.13578
139 1 1.95379 0.340701 7.87746
140 1 0.181145 4.85723 1.56346
141 1 2.31926 0.125981 3.50787
142 1 5.85331 9.12631 7.89582
143 1 4.83087 4.0328 0.458034
144 1 1.70831 1.87968 4.44485
145 1 7.72014 5.69482 8.16982
146 1 4.32281 0.609455 1.95519
147 1 6.20666 3.90288 7.3128
148 1 2.19133 8.04168 3.94823
149 1 3.12097 0.370665 4.11541
150 1 1.09076 8.2066 4.05005
151 1 7.13072 8.35661 4.96004
152 1 5.64092 8.36604 7.17454
153 1 3.88773 6.40481 0.896461
154 1 3.82692 6.25917 1.92287
155 1 8.75988 8.14615 4.3994
156 1 7.07158 6.66965 5.24963
157 1 6.55858 3.31061 8.11337
158 1 3.1691 6.7664 9.06574
159 1 2.12898 6.64788 5.47655
160 1 8.64598 4.77275 6.82448
161 1 1.05042 2.38524 7.43584
162 1 1.07239 4.34753 1.14141
163 1 8.1922 8.82374 5.23894
164 1 3.06225 0.302408 7.25805
165 1 2.33114 6.34598 4.12672
166 1 5.75537 5.94248 9.22429
167 1 3.14259 9.19277 3.08436
168 1 5.77626 5.32327 1.496
169 1 0.951641 5.51909 9.18696
170 1 9.19652 3.09946 4.71004
171 1 4.2969 6.90513 0.162348
172 1 1.81591 5.18841 8.68589
173 1 4.64631 4.28315 2.15942
174 1 3.84957 5.10069 8.57244
175 1 7.09284 6.15221 7.29393
176 1 3.78577 1.10549 7.18056
177 1 5.52549 6.31362 1.85185
178 1 6.3816 2.96341 2.02227
179 1 5.91996 3.689 3.61304
180 1 2.33451 7.31203 4.68083
181 1 8.47181 6.09448 1.10108
182 1 2.05299 1.35549 6.30083
183 1 3.29133 4.02048 8.85052
184 1 5.42507 6.46849 8.38654
185 1 0.553544 9.03655 7.26221
186 1 0.862649 3.58568 2.1781
187 1 0.763175 2.49853 5.36296
188 1 0.703757 6.6563 1.98539
189 1 3.72252 7.39568 3.74954
190 1 5.07568 6.57742 2.75962
191 1 4.30646 3.08023 4.6191
192 1 1.88903 1.51002 0.952646
193 1 4.11121 1.24461 1.05074
194 1 0.957449 8.53087 5.13704
195 1 6.48422 9.23926 2.42233
196 1 0.181544 9.31471 2.59812
197 1 5.37661 4.09491 1.34989
198 1 8.53323 1.90184 7.86126
199 1 7.32479 9.37892 5.2878
200 1 3.34435 8.46901 0.322501
201 1 4.66823 1.71855 5.64857
202 1 1.96948 6.65351 3.06925
203 1 5.92133 0.377722 5.8338
204 1 6.38472 0.864546 9.30057
205 1 4.71329 1.70631 6.74452
206 1 3.03967 0.196955 8.25401
207 1 6.71938 2.20031 2.69307
208 1 9.04969 4.40674 3.27254
209 1 6.66114 7.57677 5.67821
210 1 2.65287 2.79064 7.26992
211 1 7.1432 0.336977 0.769276
212 1 5.67418 7.38786 4.34653
213 1 0.410001 6.66232 4.59167
214 1 7.70051 2.30151 3.21966
215 1 4.29395 6.59968 3.72106
216 1 6.98677 4.90529 5.87107
217 1 1.47912 1.49966 7.87825
218 1 3.03453 1.79344 4.24867
219 1 7.20988 4.19183 0.808384
220 1 0.889923 2.30965 1.00791
221 1 6.48719 8.28661 7.78384
222 1 4.75687 5.85437 1.36581
223 1 2.99954 1.24282 8.01685
224 1 6.9355 5.96659 4.44485
225 1 0.928401 4.07952 7.22336
226 1 2.59391 1.85871 5.2596
227 1 7.37334 5.04587 4.90727
228 1 0.126711 0.689432 5.82984
229 1 0.287263 0.771889 8.62835
230 1 6.79067 1.25342 8.36355
231 1 4.94002 4.67746 6.69553
232 1 3.48824 5.49201 1.17825
233 1 8.58173 8.80953 2.75652
234 1 7.00607 7.58534 1.07678
235 1 6.25786 6.87311 8.9509
236 1 7.76318 4.46843 4.1507
237 1 7.30497 2.39751 4.32456
238 1 7.65753 2.88605 7.92762
239 1 6.52568 5.75284 5.39399
240 1 9.3653 1.85397 8.60529
241 1 2.59672 4.66545 2.68231
242 1 5.51888 4.50319 9.15103
243 1 7.01698 7.47182 2.88391
244 1 6.73301 4.10365 4.21264
245 1 5.96188 2.84601 3.09532
246 1 8.7241 1.65469 3.91338
247 1 5.31403 3.02287 1.47114
248 1 6.10368 7.54084 6.62297
249 1 5.8967 4.62337 4.07651
250 1 5.01985 3.71701 4.14739
251 1 6.56864 3.16709 5.45639
252 1 8.93714 5.44273 3.35389
253 1 3.22853 8.37423 2.37648
254 1 6.30738 2.83359 0.917285
255 1 5.92881 4.60206 2.22513
256 1 1.53082 4.2114 8.96366
257 1 6.71092 0.423756 4.401
258 1 3.15588 8.25267 3.52845
259 1 4.86042 3.71012 5.33811
260 1 3.57218 4.35637 2.64477
261 1 1.2506 6.66186 9.14586
262 1 7.4568 0.55813 9.14991
263 1 8.94303 5.87705 4.35988
264 1 7.59826 5.07291 6.6849
265 1 3.51722 1.94203 1.47607
266 1 0.476749 7.23098 8.70096
267 1 5.08769 1.94788 1.51866
268 1 6.09461 0.583414 0.811554
269 1 1.84497 6.39236 1.71045
270 1 0.812194 9.24606 3.85783
271 1 2.2812 7.18518 1.14923
272 1 2.05308 3.97339 0.785171
273 1 6.36189 5.78403 2.31973
274 1 4.17095 3.48669 8.40159
275 1 5.3358 9.32865 0.812983
276 1 8.17533 8.54381 1.84931
277 1 5.61938 0.912748 3.30509
278 1 2.25667 3.60617 4.64174
279 1 0.128231 3.85345 1.29515
280 1 3.91447 0.685919 8.09266
281 1 5.62431 8.75658 2.3144
282 1 1.75022 9.09753 4.23401
283 1 1.58659 7.35305 6.9246
284 1 6.7603 7.41098 4.56037
285 1 9.35089 2.4548 6.25413
286 1 2.32084 1.08165 7.2261
287 1 4.9274 7.92656 4.96358
288 1 1.3176 7.56267 1.34291
289 1 7.1921 1.61276 9.21674
290 1 4.4185 3.95778 7.36077
291 1 7.20473 4.37904 7.28116
292 1 5.28197 3.35793 6.846
293 1 7.91485 3.30096 3.49364
294 1 9.18438 3.51335 7.99482
295 1 6.65362 3.99399 6.37497
296 1 7.12315 7.06954 0.17994
297 1 8.91496 7.01579 4.28235
298 1 1.7426 4.179 6.60837
299 1 3.06683 1.14051 6.49137
300 1 9.32875 2.20931 2.00416
301 1 5.44918 8.56389 8.70766
302 1 8.57483 9.36775 4.39787
303 1 4.13808 4.07479 4.66275
304 1 1.26049 6.00719 8.30513
305 1 4.66171 8.27651 6.04379
306 1 0.336545 9.06331 1.51477
307 1 5.32652 0.00848946 5.13167
308 1 1.80709 8.02162 7.66737
309 1 8.94091 6.88037 8.54675
310 1 8.66754 6.10372 2.68169
311 1 0.502755 7.35263 0.434869
312 1 5.80271 6.28546 0.806008
313 1 5.72733 6.52707 3.6442
314 1 7.57881 1.62703 2.35697
315 1 4.36223 5.08174 7.66723
316 1 8.74197 5.63582 8.20226
317 1 7.94343 6.17807 2.00312
318 1 9.06499 3.14038 3.62698
319 1 3.17046 1.72769 2.55129
320 1 3.3494 6.85143 4.51374
321 1 0.439862 3.19944 0.329262
322 1 3.68557 8.76823 7.82123
323 1 0.937633 2.56106 2.2326
324 1 2.1635 6.65064 8.49502
325 1 8.08591 7.34192 0.612438
326 1 5.50866 2.78747 4.10193
327 1 3.07093 2.66755 2.96551
328 1 7.16598 4.13463 3.24541
329 1 8.66644 0.453624 0.0531727
330 1 3.53646 3.00682 0.983601
331 1 1.24102 0.693099 6.08769
332 1 1.58898 3.16476 7.00234
333 1 1.01695 3.25679 1.21847
334 1 2.97567 6.0693 5.89985
335 1 8.37171 5.46683 9.11159
336 1 5.99379 5.16173 3.07612
337 1 7.44767 9.30808 1.88352
338 1 7.16162 1.72654 6.77763
339 1 6.73287 6.09679 0.164532
340 1 3.5878 7.85731 6.28399
341 1 6.58813 6.81533 7.9591
342 1 0.0170956 2.51141 7.73201
343 1 5.51106 8.17648 3.34406
344 1 0.491444 4.27401 8.29637
345 1 7.98332 6.50099 4.72113
346 1 9.29357 2.7085 1.11425
347 1 6.09569 5.94017 7.60557
348 1 7.35109 1.00537 5.27619
349 1 4.35208 2.5822 1.87186
350 1 1.56848 3.26552 5.97391
351 1 6.54771 0.175152 8.51985
352 1 5.26195 5.60674 6.88809
353 1 8.45356 4.79981 4.80122
354 1 2.25226 5.70111 7.85206
355 1 9.02441 8.04103 3.31436
356 1 7.9917 2.35272 7.05647
357 1 0.713683 6.11689 5.50284
358 1 5.35924 2.42813 6.3464
359 1 1.62167 6.40787 7.33835
360 1 4.73709 1.82688 0.345169
361 1 8.30831 0.458892 5.32123
362 1 2.33581 1.53078 9.29147
363 1 9.03254 5.45447 0.529448
364 1 0.0592362 2.23429 3.18244
365 1 4.75767 5.60775 8.64312
366 1 3.75039 9.30962 1.47598
367 1 9.31012 3.94596 6.91574
368 1 3.10408 5.79106 4.00964
369 1 8.63799 7.64484 1.43464
370 1 1.8203 1.04629 1.86146
371 1 0.728086 0.806597 3.32165
372 1 5.03503 4.62256 5.01718
373 1 6.75464 2.54543 7.3763
374 1 7.77553 0.860291 1.5715
375 1 3.20846 7.27483 0.576749
376 1 3.77546 3.95633 0.452609
377 1 4.17195 8.12892 7.02351
378 1 4.0789 6.98197 2.7322
379 1 7.63883 5.56361 1.21467
380 1 9.33724 4.12744 4.94806
381 1 3.60251 3.52871 6.95211
382 1 4.5999 9.33213 5.85697
383 1 2.42697 0.624146 1.03951
384 1 4.66399 0.0607576 4.23633
385 1 4.89103 6.016 0.403198
386 1 7.26189 8.11125 3.88586
387 1 8.75164 3.37338 1.82794
388 1 2.61979 9.12712 1.46352
389 1 6.58731 1.05876 6.32912
390 1 1.90944 5.32955 4.14563
391 1 8.56374 7.60534 2.46328
392 1 3.02641 5.93103 0.448333
393 1 5.7565 0.272271 4.25347
394 1 4.50914 2.92051 3.60232
395 1 5.64243 0.318673 1.81061
396 1 3.76799 2.13819 0.415455
397 1 6.96737 4.98774 2.66578
398 1 9.07453 4.67105 7.73138
399 1 7.42117 9.21502 3.02693
400 1 0.877475 4.25373 3.16569
401 1 5.68171 5.29452 8.42592
402 1 1.91067 4.28513 3.90476
403 1 0.780899 3.10086 3.30445
404 1 2.75648 1.09028 3.33921
405 1 1.47339 4.11894 5.13668
406 1 5.09165 1.00247 0.985233
407 1 7.36132 8.60823 1.09003
408 1 2.55984 1.71947 1.69055
409 1 9.17019 4.51179 5.92356
410 1 6.04799 4.47694 0.723303
411 1 4.98073 2.72962 2.67129
412 1 2.38774 5.67471 3.20427
413 1 1.41189 8.04302 0.40985
414 1 6.41107 9.01398 1.24351
415 1 7.18227 8.73341 8.65708
416 1 9.12338 9.12577 0.628331
417 1 8.4198 2.7736 2.61241
418 1 5.35408 1.33814 7.49139
419 1 0.430846 1.48719 2.59762
420 1 8.19882 5.7358 7.10662
421 1 2.61325 7.61896 8.49033
422 1 6.01026 1.28566 4.21771
423 1 6.86045 3.22528 3.49225
424 1 3.56748 3.52547 3.23807
425 1 7.4944 3.44876 4.4355
426 1 0.893525 2.26834 8.45222
427 1 7.19623 3.26344 1.35584
428 1 2.3794 8.06591 1.76731
429 1 6.0846 1.92646 7.90594
430 1 7.98318 1.15347 3.39001
431 1 8.8746 5.56537 6.11339
432 1 0.902577 8.1018 2.14812
433 1 7.16045 2.66473 6.22491
434 1 7.31195 3.19678 2.57962
435 1 8.56437 7.23195 5.22821
436 1 1.56767 7.65954 8.80866
437 1 2.87281 5.82196 2.25775
438 1 3.14428 6.41824 3.17692
439 1 4.42018 2.81347 6.65758
440 1 3.27069 0.957337 1.57501
441 1 5.35669 1.05113 9.37026
442 1 2.28594 8.72004 8.22978
443 1 1.65373 4.94594 0.307016
444 1 6.27908 5.86 6.49033
445 1 1.32147 7.13355 7.9915
446 1 8.5615 2.74985 8.48325
447 1 9.30655 4.10532 2.31717
448 1 0.596057 8.47511 3.03812
449 1 6.41269 8.85136 4.21152
450 1 1.94099 9.12174 0.465958
451 1 8.08073 4.70405 7.76238
452 1 9.10519 6.90536 0.87832
453 1 3.81192 9.19317 8.90989
454 1 2.90436 6.36644 1.39199
455 1 1.97712 8.40307 4.96102
456 1 2.08215 5.94117 6.44141
457 1 7.32383 4.04705 5.19987
458 1 3.90344 7.84806 5.24794
459 1 7.02183 2.09976 5.25798
460 1 2.57282 2.62899 4.52951
461 1 8.36585 3.82912 5.54366
462 1 6.23747 7.01719 1.59645
463 1 1.36408 0.273034 1.17828
464 1 0.0245169 8.18756 0.882611
465 1 8.83528 6.49751 6.90553
466 1 2.26803 8.89395 7.12155
467 1 5.14342 1.77509 8.54362
468 1 7.83667 7.96426 6.77646
469 1 6.91593 5.03537 3.74506
470 1 9.27937 5.33048 5.18403
471 1 8.82212 0.848553 0.97823
472 1 8.10946 3.15103 6.29056
473 1 4.2865 3.69826 6.16947
474 1 4.13605 0.0948305 7.28079
475 1 8.80966 9.32336 1.77559
476 1 2.00173 5.027 7.01342
477 1 0.678872 0.260499 5.06163
478 1 5.30276 7.24289 1.13128
479 1 0.771183 3.25266 7.98326
480 1 0.312813 7.46885 1.57739
481 1 5.36608 1.95698 3.23894
482 1 4.38996 3.64561 1.34603
483 1 2.94022 5.28727 6.6092
484 1 2.28659 0.988535 4.38017
485 1 7.94195 7.08711 8.8757
486 1 6.41641 8.07785 9.07365
487 1 7.41352 8.46915 5.96302
488 1 8.15077 7.65471 7.84785
489 1 0.396188 0.564645 0.886028
490 1 4.67747 9.03156 1.74758
491 1 5.02149 7.67753 2.6048
492 1 3.62798 1.17022 4.79628
493 1 8.56187 3.85799 4.2842
494 1 5.57161 1.40612 6.07522
495 1 3.75626 1.23499 3.69506
496 1 3.50662 2.91976 6.17972
497 1 2.2315 3.73487 7.62482
498 1 1.07355 2.01482 3.28306
499 1 3.21487 8.40002 8.62845
500 1 6.42746 3.02867 9.23162
501 1 5.07572 5.7006 3.47946
502 1 0.25934 0.582611 6.87046
503 1 5.85053 9.32542 6.80253
504 1 6.85385 6.83552 6.33591
505 1 4.50168 5.55871 5.00376
506 1 8.86747 6.96361 3.22026
507 1 0.0814949 1.62802 1.0796
508 1 5.97154 1.3376 1.56206
509 1 4.79133 8.67295 7.88574
510 1 1.6048 7.31517 2.31424
511 1 8.30246 0.1358 3.45021
512 1 6.40205 3.76396 2.71669
513 1 8.70978 6.47514 0.0428035
514 1 0.488547 6.34324 7.68832
515 1 5.82553 7.59857 8.3177
516 1 3.11816 7.95343 4.6179
517 1 0.265279 1.40707 7.48992
518 1 4.14264 3.15862 0.00249067
519 1 1.27337 5.81434 2.66501
520 1 1.37664 4.65578 7.91312
521 1 6.36535 9.14685 5.13567
522 1 3.2806 8.72073 6.80526
523 1 1.61134 2.78035 4.8855
524 1 1.24741 0.275135 8.70871
525 1 5.71362 2.12599 2.28526
526 1 4.70718 4.48949 8.47163
527 1 3.7308 8.99675 4.18496
528 1 3.3496 3.24381 4.99181
529 1 2.32554 1.94873 8.14794
530 1 8.46838 2.04181 0.728052
531 1 8.60478 2.66511 5.47272
532 1 1.78913 3.93305 2.75415
533 1 3.17983 6.31084 8.12642
534 1 6.16152 7.74964 2.32986
535 1 4.73211 8.75446 3.40245
536 1 4.55852 1.11733 3.08454
537 1 4.35595 1.22783 8.93974
538 1 5.31329 2.40123 7.42748
539 1 7.91652 5.49447 4.11818
540 1 3.26547 5.31323 7.73692
541 1 2.88587 2.7726 1.81505
542 1 2.17661 5.04626 5.85764
543 1 2.23777 0.563857 8.87601
544 1 0.653306 8.18845 8.22307
545 1 7.544 6.65975 1.20893
546 1 3.96527 7.71959 7.96359
547 1 8.98198 8.1488 5.43808
548 1 7.74537 7.36491 5.78129
549 1 3.26547 2.23224 7.97421
550 1 2.33181 4.0536 5.61536
551 1 3.88976 5.94541 9.2362
552 1 8.93589 4.3825 0.627703
553 1 2.55374 2.93543 5.55191
554 1 5.60441 2.90903 5.29252
555 1 1.8985 2.87421 2.75364
556 1 2.45314 5.73075 5.02119
557 1 3.40196 7.25876 7.24981
558 1 6.26099 2.22712 5.94265
559 1 4.15621 5.63088 3.95453
560 1 1.20008 3.58638 4.30407
561 1 3.20455 3.83671 4.21416
562 1 0.5876 7.97706 7.27473
563 1 4.10244 7.93383 2.01479
564 1 4.93452 1.06969 4.11038
565 1 1.19545 1.26736 6.96731
566 1 9.12822 3.83019 9.15351
567 1 7.0864 7.57602 8.42948
568 1 1.64262 8.63268 1.29361
569 1 8.81809 2.99927 0.16804
570 1 4.06264 5.25306 2.12298
571 1 9.12608 6.33852 5.38273
572 1 5.30919 4.37485 3.26171
573 1 3.03866 3.89098 1.28808
574 1 3.84794 2.20693 4.87895
575 1 2.00682 4.40039 1.81569
576 1 6.37449 4.77139 4.93869
577 1 4.4793 0.476333 0.259706
578 1 0.925784 0.602088 7.74885
579 1 6.9753 1.44942 4.46863
580 1 1.35691 0.136038 6.94147
581 1 6.3208 1.35452 5.41706
582 1 6.01585 8.03151 1.28493
583 1 0.720265 2.59668 4.28611
584 1 3.31827 2.89378 8.76423
585 1 1.91847 8.69485 5.9501
586 1 6.00733 6.45245 4.76188
587 1 8.64598 1.71781 2.77756
588 1 7.88913 1.9647 5.82437
589 1 1.70371 0.473676 2.83205
590 1 9.36609 4.88311 4.23212
591 1 4.34164 8.19251 4.16971
592 1 0.127501 8.8238 4.60117
593 1 8.19458 4.83942 5.77789
594 1 7.92173 4.82582 0.398273
595 1 7.06257 6.59373 2.18926
596 1 7.50283 8.4568 7.6967
597 1 0.515558 6.96356 6.81175
598 1 0.437453 4.92344 6.66039
599 1 1.35709 9.06366 2.1534
600 1 6.52665 8.40715 3.11073
601 1 0.193725 7.49136 2.68811
602 1 7.93927 4.80341 3.18052
603 1 2.33613 4.65621 4.82127
604 1 5.00577 7.7143 7.63961
605 1 2.51759 4.62494 8.2116
606 1 2.78123 2.21499 6.31483
607 1 1.69216 0.701421 0.286634
608 1 4.30999 8.57168 0.888774
609 1 1.75054 3.01081 0.647704
610 1 6.13576 4.27706 8.31213
611 1 6.88335 1.36186 0.794027
612 1 9.25579 5.56753 7.25257
613 1 7.28059 0.703282 2.64011
614 1 2.98904 8.10608 7.64166
615 1 0.826993 0.551924 2.10866
616 1 0.644511 5.64221 4.45346
617 1 0.377775 6.29834 0.449161
618 1 5.641 3.43441 0.406156
619 1 3.8734 4.63462 6.72915
620 1 8.86184 5.03217 2.35697
621 1 0.425771 1.65315 4.07344
622 1 6.56072 0.291183 3.38007
623 1 4.90144 8.96187 6.79593
624 1 8.13562 3.79738 0.274021
625 1 0.0683491 5.96218 1.37228
626 1 1.31707 6.03156 3.67558
627 1 9.06271 0.776667 3.00017
628 1 1.34241 3.10715 8.96794
629 1 2.80402 4.81876 3.83715
630 1 3.85973 5.8629 7.1554
631 1 5.93275 8.15032 4.98056
632 1 3.02185 7.20946 5.53707
633 1 9.03256 6.7531 1.9655
634 1 3.86629 4.44368 3.5771
635 1 3.63833 3.39103 2.06101
636 1 9.27216 7.15983 7.62028
637 1 1.95926 5.94145 9.32522
638 1 4.56065 6.20867 6.42946
639 1 1.39728 1.24493 8.86282
640 1 8.07773 4.54483 8.8716
641 1 2.44653 6.94158 6.468
642 1 8.35661 1.43854 8.97082
643 1 8.16023 8.58108 3.72495
644 1 2.66914 0.448411 2.37607
645 1 3.64671 2.14562 6.99837
646 1 4.9934 6.34999 5.45651
647 1 5.74828 0.035442 9.22027
648 1 5.83451 3.83268 4.85468
649 1 3.5824 6.60413 6.47835
650 1 5.0773 3.49107 8.94243
651 1 6.86906 5.1861 0.684909
652 1 4.39484 8.8253 5.00994
653 1 8.11911 1.38332 6.71818
654 1 4.80196 7.30758 8.63329
655 1 4.57307 6.99573 1.87272
656 1 5.75704 0.810483 8.43568
657 1 4.74847 8.92775 0.0306812
658 1 2.60955 7.22317 3.65266
659 1 8.2945 3.79335 7.21285
660 1 6.66651 6.00314 1.24044
661 1 4.45053 4.91522 0.0189865
662 1 8.22839 6.59654 7.81773
663 1 3.77521 7.55241 8.91298
664 1 0.124834 8.52968 6.34601
665 1 3.31948 0.353346 0.612871
666 1 1.01845 2.32195 6.41417
667 1 9.21806 0.900353 1.93698
668 1 6.25414 7.396 3.5116
669 1 1.93213 5.38713 1.985
670 1 6.02891 2.17263 4.80964
671 1 1.0803 5.7416 1.38205
672 1 6.29256 4.96303 7.01064
673 1 1.7861 1.84565 2.47224
674 1 0.136835 6.17506 8.82855
675 1 4.3603 8.28125 8.73525
676 1 7.20476 6.39893 8.67514
677 1 9.09268 7.87322 8.30793
678 1 7.65553 4.09429 6.39831
679 1 8.65641 0.413566 6.34535
680 1 0.253542 6.27553 3.58947
681 1 4.10975 8.00974 3.01184
682 1 3.42013 4.86181 4.60743
683 1 3.33985 1.80334 8.91424
684 1 7.42222 0.860551 7.28777
685 1 7.38549 5.92374 6.20862
686 1 0.395747 6.02123 6.44201
687 1 5.65369 3.82035 5.97195
688 1 8.30868 6.35605 3.70516
689 1 0.302109 7.79135 4.63959
690 1 1.66608 1.18866 3.5719
691 1 2.98535 1.41744 0.669256
692 1 7.78187 8.17315 2.87828
693 1 0.397833 1.53269 6.38661
694 1 2.52144 7.00571 2.18374
695 1 4.16826 2.78769 7.65365
696 1 6.73313 4.96121 1.66319
697 1 4.14778 4.60114 5.61116
698 1 3.32824 3.926 5.93335
699 1 0.505599 7.36183 3.69689
700 1 9.31851 9.12354 5.58787
701 1 5.09232 0.344419 7.62622
702 1 1.24182 6.59577 6.13204
703 1 7.79279 6.86407 6.7862
704 1 5.19781 5.02806 0.679942
705 1 6.08607 1.90713 6.82954
706 1 1.93203 2.07127 7.06148
707 1 7.01148 1.38334 3.42832
708 1 5.29349 8.68612 4.30704
709 1 2.40699 7.10646 7.59025
710 1 2.00881 5.69552 0.905995
711 1 2.26934 2.53027 9.08148
712 1 2.40938 3.45409 3.52479
713 1 1.18583 5.32183 6.10076
714 1 1.80692 2.2623 5.71167
715 1 4.7638 4.71961 3.99077
716 1 4.44742 1.90757 3.96583
717 1 4.69991 6.14846 7.60462
718 1 6.21371 3.04268 6.6538
719 1 0.699679 4.69173 5.4368
720 1 7.64924 5.73146 2.98584
721 1 3.04124 4.82386 1.80662
722 1 8.30722 3.86415 2.5813
723 1 0.19348 2.93558 8.77124
724 1 0.675618 1.37512 5.3184
725 1 3.38 8.24794 1.32583
726 1 9.389 0.586687 4.01028
727 1 4.36613 7.19087 4.53897
728 1 0.225809 2.22501 0.214734
729 1 1.73035 0.0164399 5.28953
730 1 8.11607 4.00887 1.32527
731 1 1.98467 3.40851 1.68054
732 1 7.45799 9.06813 4.28358
733 1 2.26252 7.91653 2.87342
734 1 0.577305 5.20551 3.43276
735 1 8.18156 1.51 4.85905
736 1 5.31989 6.91163 0.0757019
737 1 0.964278 4.66651 4.37498
738 1 2.47497 8.14332 0.777746
739 1 2.93315 5.65817 8.86553
740 1 8.45322 8.66906 6.26786
741 1 3.99828 0.261633 3.49427
742 1 7.60144 3.00124 5.33392
743 1 8.69717 0.894247 7.50035
744 1 3.54082 2.73589 3.92116
745 1 2.45109 4.495 9.24798
746 1 2.73068 8.78863 4.35726
747 1 1.84444 2.43512 1.65389
748 1 5.46372 4.5803 7.61377
749 1 8.34632 8.44329 0.625892
750 1 8.97544 1.90518 6.98988
751 1 5.40403 6.75833 6.4721
752 1 5.24948 2.52798 9.32299
753 1 6.75409 5.26359 8.03774
754 1 3.24872 0.804785 9.04163
755 1 3.50175 5.81414 5.01123
756 1 3.83355 5.52662 6.11424
757 1 1.30539 8.64085 8.95426
758 1 4.93376 7.89122 0.31037
759 1 4.23285 5.90207 2.85465
760 1 4.17738 1.59769 2.15972
761 1 1.68521 1.28609 5.27257
762 1 7.78843 9.09935 0.111362
763 1 7.4445 3.44307 8.7944
764 1 2.31019 3.50886 8.618
765 1 1.34458 8.98669 7.87764
766 1 7.32387 3.32871 7.0058
767 1 6.43782 3.11987 4.4414
768 1 4.21547 4.69903 1.08111
769 1 0.994139 7.8022 6.17851
770 1 2.2316 7.20546 0.133051
771 1 6.73476 2.06078 1.65351
772 1 4.95846 0.134707 2.66371
773 1 4.5599 7.17235 5.95753
774 1 9.35383 3.44825 5.9663
775 1 0.285526 5.64493 2.38407
776 1 4.25388 2.32007 8.80028
777 1 6.14065 7.411 0.454797
778 1 8.48961 5.03172 1.27791
779 1 9.13191 0.931245 4.89719
780 1 7.34293 6.68924 3.7722
781 1 9.31312 1.25808 0.0885213
782 1 2.31183 8.34654 9.20042
783 1 8.24559 6.45159 5.93223
784 1 2.75923 9.18421 5.38457
785 1 1.32939 7.78225 3.14962
786 1 1.04887 5.47344 7.31096
787 1 0.331283 8.26505 9.21449
788 1 8.70428 7.40129 6.25819
789 1 8.69926 0.299767 8.43514
790 1 5.28451 3.50519 7.87208
791 1 7.61055 2.52753 1.85151
792 1 1.4732 6.28639 4.80452
793 1 8.08675 8.08839 8.81837
794 1 6.35091 5.0594 9.10771
795 1 1.78009 2.82733 8.09848
796 1 5.44751 3.56998 2.36841
797 1 9.19849 2.01617 4.91568
798 1 3.63121 1.63076 5.78244
799 1 4.16135 2.10203 3.0042
800 1 8.54278 8.65786 8.00167
801 2 3.97351 3.60922 5.39373
802 2 8.10773 8.02172 5.3367
803 2 1.24211 1.2152 2.6626
804 2 7.80262 1.96245 8.54866
805 2 7.89129 1.79379 4.0291
806 2 7.42288 6.95237 7.80916
807 2 4.12269 2.93872 2.80473
808 2 2.99271 4.07512 3.42089
809 2 9.05691 6.34402 7.81401
810 2 0.339919 5.35791 5.89585
811 2 5.77322 4.25988 6.63915
812 2 3.9749 3.59021 3.98225
813 2 0.353215 2.16402 6.97205
814 2 2.05189 3.49802 0.0171915
815 2 6.01889 2.88049 7.52246
816 2 2.18863 1.08105 8.21837
817 2 1.70932 8.19721 2.33106
818 2 6.12977 7.99705 4.03612
819 2 9.09517 1.18576 6.6132
820 2 0.64856 1.40976 8.22113
821 2 4.14446 2.18081 6.15704
822 2 8.21962 8.69655 7.21359
823 2 0.130841 6.5529 2.71802
824 2 3.27669 7.2102 8.08231
825 2 5.04789 5.4142 4.34484
826 2 4.26538 2.06578 1.16726
827 2 6.38053 4.45497 3.2962
828 2 6.70227 0.356886 6.83773
829 2 5.43903 2.45936 0.772162
830 2 8.83999 3.44552 0.888629
831 2 5.42341 1.90514 4.07981
832 2 7.94729 9.36483 5.97125
833 2 1.64752 2.0447 8.68467
834 2 5.20198 5.28768 9.27271
835 2 4.38153 5.35769 6.74617
836 2 6.41372 6.09138 8.54509
837 2 3.27634 9.23804 2.17977
838 2 5.95888 0.616038 5.01383
839 2 1.28088 1.49244 5.97131
840 2 9.33467 6.70608 6.19315
841 2 1.18696 3.69998 0.433918
842 2 2.51797 3.2008 1.00726
843 2 3.44265 8.65886 4.94816
844 2 6.64095 8.24335 0.625353
845 2 2.84953 8.95229 7.69519
846 2 2.96508 2.38308 0.131043
847 2 1.30935 6.00007 6.65032
848 2 1.18654 5.91054 0.499595
849 2 2.32306 8.68988 3.37189
850 2 1.95793 0.219766 1.85731
851 2 5.07923 4.39409 5.85802
852 2 8.53485 2.25875 6.28919
853 2 3.39064 4.66132 1.01986
854 2 6.68055 2.24374 0.244375
855 2 1.6872 5.87611 5.62121
856 2 8.24766 3.2845 4.87709
857 2 8.22622 4.11267 3.52493
858 2 3.09605 4.81096 8.78017
859 2 6.65614 0.560873 5.56093
860 2 4.83502 6.9304 7.90316
861 2 1.44851 4.54929 5.92469
862 2 2.9815 7.78161 9.31503
863 2 8.73811 5.80835 1.9191
864 2 6.45926 6.75057 3.98755
865 2 0.0140817 6.92611 9.34819
866 2 6.03207 5.32555 0.482877
867 2 5.54714 7.65118 9.13248
868 2 8.47196 7.23135 7.19161
869 2 3.58425 0.837553 5.5368
870 2 2.04938 2.74298 6.41046
871 2 6.44417 4.07079 5.51597
872 2 0.26604 8.35767 3.86549
873 2 5.93216 2.19132 1.39825
874 2 5.44661 7.26578 1.9689
875 2 5.48993 5.95619 6.01175
876 2 7.15398 5.67335 1.97425
877 2 0.661708 3.01662 6.09433
878 2 7.21199 0.540071 8.09756
879 2 2.67068 4.38379 6.41064
880 2 5.27584 7.03532 5.10111
881 2 7.13906 1.58378 5.91306
882 2 4.86106 5.03614 1.50417
883 2 5.77871 0.373795 2.65229
884 2 7.19782 3.51638 5.93639
885 2 4.53778 0.186173 1.13316
886 2 3.9805 0.569555 4.3409
887 2 3.93514 9.18259 6.42083
888 2 3.84085 6.63259 7.55896
889 2 1.71784 4.90062 1.2831
890 2 0.268424 4.77149 2.71145
891 2 2.94951 1.73999 7.1665
892 2 7.82808 7.93888 1.25704
893 2 2.59515 2.73766 8.19388
894 2 2.63446 5.47924 1.42193
895 2 0.606529 0.729125 0.0711143
896 2 3.84025 4.37212 1.79526
897 2 6.33668 8.74724 8.54859
898 2 4.81732 2.84754 8.40611
899 2 5.19112 7.77677 6.61335
900 2 2.35088 0.175601 4.68063
901 2 6.12022 7.54464 7.49873
902 2 0.54653 6.79367 1.11858
903 2 1.52944 3.78732 8.10033
904 2 8.85663 4.54895 8.5075
905 2 2.685 8.87 6.19452
906 2 8.45577 3.09965 7.72874
907 2 3.62667 2.37457 2.2218
908 2 2.11278 6.04625 2.4945
909 2 4.15686 6.23334 4.62008
910 2 0.754029 8.21221 1.28303
911 2 8.02613 9.04011 8.6215
912 2 5.74294 5.95812 2.94422
913 2 1.47843 0.391164 3.77409
914 2 5.18275 5.52366 7.82765
915 2 5.96713 3.49851 8.72477
916 2 2.70937 2.65662 3.72742
917 2 8.78927 8.66113 1.28005
918 2 5.24692 3.28865 3.25723
919 2 7.94199 8.41222 4.5426
920 2 4.73144 6.42518 9.02305
921 2 8.81655 4.36625 1.71668
922 2 5.86152 1.07417 6.84472
923 2 5.46467 2.09807 5.52487
924 2 0.70447 3.71303 8.93188
925 2 4.02665 7.9086 0.238377
926 2 3.22644 2.36772 5.46958
927 2 8.18373 1.09717 5.91061
928 2 6.32402 6.71198 7.11336
929 2 4.18867 5.44466 0.695133
930 2 0.707775 1.68884 9.05993
931 2 5.03712 0.327485 3.53159
932 2 1.24237 0.0302388 0.127533
933 2 8.22272 3.39222 8.99296
934 2 6.4947 3.63593 0.613162
935 2 0.192861 3.68724 3.06175
936 2 1.996 9.13249 8.94911
937 2 2.46843 5.2957 0.182552
938 2 5.15405 0.752872 5.64908
939 2 5.51523 7.3081 3.15521
940 2 3.9524 5.84815 8.09761
941 2 3.84961 1.1887 0.174682
942 2 0.446428 8.08836 5.60634
943 2 4.54525 3.35979 2.20159
944 2 7.38903 4.10834 9.28059
945 2 7.46211 5.22017 7.49609
946 2 1.55357 3.52558 3.4801
947 2 6.58412 8.43797 5.68851
948 2 7.38493 0.549791 3.51523
949 2 9.33229 9.32176 6.44903
950 2 7.83026 3.37273 1.97593
951 2 2.329 1.15646 2.57905
952 2 2.39423 6.47322 0.570831
953 2 0.959403 4.85787 8.75012
954 2 5.22111 8.59599 5.45449
955 2 8.1462 0.471808 7.02843
956 2 8.59659 2.36192 3.42275
957 2 6.98155 7.69828 6.43707
958 2 3.82976 8.84871 3.36315
959 2 4.62377 6.17423 2.21569
960 2 9.35391 8.55553 7.68845
961 2 0.920267 0.0729654 2.91084
962 2 4.85534 1.89033 2.47638
963 2 0.518807 4.75688 7.50452
964 2 3.28495 6.72878 2.36037
965 2 0.00881735 1.37167 3.42821
966 2 7.5591 1.6454 1.33804
967 2 8.90943 1.12003 8.31427
968 2 7.85139 2.28281 4.98007
969 2 4.69235 6.62301 1.05131
970 2 6.61355 6.80135 0.866258
971 2 3.8824 9.11892 0.349056
972 2 4.17902 4.01633 9.09934
973 2 4.91352 0.948107 8.28018
974 2 7.61591 3.76413 7.74143
975 2 8.14534 6.28829 8.64829
976 2 2.915 6.47325 5.11369
977 2 2.90637 4.10928 0.416738
978 2 5.60527 8.73127 1.27658
979 2 8.50599 4.90733 3.85318
980 2 8.60678 4.04974 6.39078
981 2 2.671 0.657134 0.199262
982 2 9.16346 2.45801 4.13862
983 2 8.75108 2.1945 9.20519
984 2 4.2624 9.28276 8.1564
985 2 7.65577 4.75582 1.30665
986 2 6.747 1.4351 7.49226
987 2 7.369 5.90139 5.24059
988 2 6.18833 1.58312 3.28815
989 2 3.42702 1.96511 3.43344
990 2 6.89514 7.42809 1.90621
991 2 4.75574 8.52861 2.50546
992 2 8.35122 6.85736 1.37423
993 2 0.29018 3.14031 1.72448
994 2 9.35585 0.483092 7.7034
995 2 2.99436 4.16976 5.03528
996 2 0.136997 7.62347 6.53076
997 2 2.49195 2.26999 2.45134
998 2 5.02027 3.13804 6.02167