#bin. KALJ data file T=0.5

1000 atoms
2 atom types

0 9.4 xlo xhi
0 9.4 ylo yhi
0 9.4 zlo zhi

Masses

1 1.0
2 1.0

Atoms

1 1 1.65525 4.32823 8.6375
2 1 7.48378 3.89968 0.615064
3 1 2.88772 4.81398 1.99638
4 1 7.65161 8.3319 8.09663
5 1 1.6398 0.337678 4.45183
6 1 6.24442 8.72462 7.6516
7 1 0.0853823 8.15841 8.28423
8 1 5.09568 2.09044 4.32006
9 1 2.96172 3.7649 6.21299
10 1 0.117217 7.30758 7.66088
11 1 7.24837 0.324559 6.92503
12 1 8.27054 1.35662 0.979623
13 1 0.837257 3.56681 0.0237733
14 1 3.42052 4.44316 2.84027
15 1 7.43967 2.3713 9.37183
16 1 1.2943 0.539677 5.50156
17 1 9.35331 4.0579 0.520413
18 1 7.68237 6.06042 1.24114
19 1 3.43648 3.4653 8.94003
20 1 7.32389 5.77548 6.77081
21 1 7.79646 3.5159 2.81322
22 1 3.56069 2.36249 6.11335
23 1 6.13459 1.46265 8.69731
24 1 3.11155 1.59285 6.63529
25 1 6.68065 0.942544 8.01795
26 1 0.287226 4.62191 2.96242
27 1 8.59945 7.9116 1.77277
28 1 4.07082 3.66793 4.69283
29 1 1.85989 2.45596 5.32343
30 1 1.43723 1.55278 4.55567
31 1 2.34083 4.83216 1.0631
32 1 5.63282 7.09921 5.59577
33 1 2.08081 1.04129 8.03475
34 1 5.21531 8.02926 1.66122
35 1 8.64688 2.26068 2.53627
36 1 1.52532 0.713668 1.39046
37 1 5.79131 2.29188 1.35612
38 1 1.3254 8.07007 4.44477
39 1 1.46428 9.35816 6.33453
40 1 0.466666 2.71969 8.71336
41 1 8.70999 7.36369 6.80106
42 1 2.2268 7.49464 4.74951
43 1 2.14197 1.33022 0.552516
44 1 5.63431 3.68229 4.28824
45 1 5.94663 1.79497 6.186
46 1 2.77007 5.03521 4.67799
47 1 1.39949 5.93479 7.08935
48 1 4.49086 4.9527 3.45169
49 1 4.05922 3.83356 6.99648
50 1 2.64621 0.660976 3.17219
51 1 2.16299 5.53159 3.85196
52 1 4.03609 1.34484 0.595317
53 1 5.64248 2.77949 3.82415
54 1 8.62114 6.51788 9.38372
55 1 1.51661 3.32601 5.01407
56 1 1.43334 4.9643 7.73718
57 1 1.79817 8.58146 8.20375
58 1 8.36063 8.68053 0.372387
59 1 9.36474 0.0237219 3.90926
60 1 0.740253 6.9214 0.631121
61 1 4.83904 4.15972 1.48782
62 1 9.14034 0.311585 0.283794
63 1 7.16056 6.63008 0.00391386
64 1 8.18489 7.5813 0.0590363
65 1 7.24291 4.40156 6.43888
66 1 3.25542 4.79875 7.48428
67 1 2.81351 9.26586 2.27876
68 1 5.00866 6.22502 8.92484
69 1 5.72286 4.6517 1.39042
70 1 0.569053 4.34444 4.0576
71 1 8.49681 4.60049 0.986531
72 1 6.35372 6.39531 6.61459
73 1 3.80462 6.71026 7.53827
74 1 7.66957 7.35179 6.17623
75 1 8.41515 0.171736 8.13924
76 1 5.78725 2.86852 0.433781
77 1 3.0476 2.902 4.38891
78 1 1.54741 6.57197 2.17467
79 1 5.70538 0.463289 1.55703
80 1 0.230775 5.72225 5.21422
81 1 3.50929 0.575933 3.70533
82 1 9.02372 1.86394 4.85731
83 1 3.1554 7.11783 4.24145
84 1 1.19697 7.06732 7.37241
85 1 1.76037 3.16615 0.359664
86 1 4.37878 6.5284 0.426485
87 1 7.22875 2.88227 5.22775
88 1 0.829411 8.04445 7.22154
89 1 0.541278 2.62019 3.31836
90 1 4.72986 6.07671 3.27794
91 1 1.23092 6.86478 5.27665
92 1 8.90728 7.37077 8.70391
93 1 2.28443 8.38111 2.24483
94 1 8.04777 7.09641 2.55003
95 1 3.59382 5.83707 1.90509
96 1 4.01797 0.658692 7.59471
97 1 3.22611 3.39048 2.29907
98 1 6.61772 9.10248 2.56193
99 1 3.36946 0.376438 4.88327
100 1 5.62405 0.319467 4.66841
101 1 4.39725 5.67321 1.21508
102 1 7.57164 2.56184 2.19896
103 1 0.958208 8.43871 1.84455
104 1 3.39211 8.41287 8.52877
105 1 6.61056 7.75028 7.12173
106 1 6.4545 2.51487 5.69271
107 1 7.43665 7.0597 1.48422
108 1 6.89211 1.29471 6.03527
109 1 8.0572 4.42545 3.2619
110 1 9.08849 5.35499 6.8759
111 1 3.62007 7.62903 7.90294
112 1 5.73351 1.50002 2.2632
113 1 1.23958 5.25804 8.86681
114 1 3.03758 6.00127 4.44072
115 1 6.58222 0.687646 5.27544
116 1 6.34352 5.12838 8.15112
117 1 7.70886 5.86543 8.88651
118 1 8.12896 1.91964 8.34307
119 1 9.03835 6.8731 1.9
120 1 4.74642 7.48321 3.9582
121 1 5.47077 8.21926 6.95717
122 1 8.90872 0.922727 8.78341
123 1 2.02501 1.17 5.3388
124 1 3.4854 8.28981 1.9982
125 1 7.2899 3.99328 4.54067
126 1 0.319129 5.64955 8.71099
127 1 2.27807 8.54963 4.80775
128 1 4.03819 9.18334 8.25109
129 1 2.87309 3.94659 1.46845
130 1 2.85125 7.08609 7.49873
131 1 0.517233 1.30115 4.94872
132 1 7.05984 5.88314 4.94201
133 1 6.8014 6.46324 0.958371
134 1 4.7236 1.03702 5.88029
135 1 6.21206 2.29804 4.62619
136 1 1.0966 0.449055 8.30183
137 1 2.37122 5.38376 8.36046
138 1 6.68335 4.9516 7.19393
139 1 0.126218 7.75366 4.02438
140 1 2.96491 5.0924 5.78482
141 1 3.27504 8.69862 4.84279
142 1 1.5769 3.17225 8.73622
143 1 4.81145 7.25588 7.45504
144 1 0.853271 4.10359 6.14618
145 1 5.94854 4.15799 7.77719
146 1 7.44476 9.04385 3.00652
147 1 3.0591 9.31006 5.89375
148 1 4.87079 4.1649 7.76361
149 1 9.17065 6.523 2.92747
150 1 4.50831 0.327695 6.59575
151 1 1.35873 7.91215 5.50369
152 1 4.36747 7.48859 9.34624
153 1 0.156689 6.5933 9.0971
154 1 6.43907 4.16916 8.78158
155 1 6.47518 6.25705 3.26746
156 1 5.01254 9.28562 3.01892
157 1 7.83479 1.17596 6.42533
158 1 2.85429 1.69671 7.7864
159 1 0.765899 8.68608 3.63881
160 1 6.34953 8.45626 6.38223
161 1 0.556007 4.5595 1.98137
162 1 9.08063 1.44077 0.271868
163 1 9.00599 3.5744 7.26077
164 1 5.43893 6.88515 3.35668
165 1 7.82621 7.85693 0.993254
166 1 9.27241 4.46404 4.80018
167 1 5.17534 7.85537 2.79413
168 1 7.06213 4.98261 8.88118
169 1 3.88842 5.84281 7.07413
170 1 2.73953 0.772836 7.16833
171 1 0.342688 3.59403 3.34412
172 1 4.03064 1.4837 1.75227
173 1 6.89805 7.60176 0.615714
174 1 2.14299 3.48998 4.10661
175 1 5.62258 8.77297 2.40896
176 1 0.326873 0.87366 5.84358
177 1 1.77742 8.913 3.95196
178 1 7.76197 7.91412 7.04522
179 1 6.17653 7.10517 2.64913
180 1 2.27336 0.137613 5.252
181 1 8.10724 6.04964 2.6517
182 1 4.57265 2.39751 1.42138
183 1 2.64899 7.64801 8.29636
184 1 2.27299 2.81647 8.02148
185 1 0.545058 4.77346 8.21197
186 1 0.138058 6.68115 5.57306
187 1 2.45279 2.41803 0.727067
188 1 1.63564 5.32346 0.474475
189 1 0.811991 2.42696 5.09012
190 1 8.27661 4.32013 4.42406
191 1 5.37259 4.36001 8.72727
192 1 9.03739 6.41403 7.15634
193 1 3.97063 6.90617 5.83738
194 1 4.15057 3.17854 0.277465
195 1 9.06847 8.52794 3.54372
196 1 2.35711 1.01046 4.05492
197 1 2.03298 4.28995 4.86986
198 1 2.41478 3.86913 9.1945
199 1 2.98426 6.25652 6.95369
200 1 4.02915 0.188238 5.68967
201 1 7.99788 6.85515 8.61706
202 1 9.12989 2.00743 3.65372
203 1 4.52247 6.5468 6.69749
204 1 4.9322 3.02638 7.61036
205 1 8.16205 6.89949 7.52848
206 1 0.246099 1.13564 3.90785
207 1 7.30078 2.88135 7.277
208 1 6.8993 5.3015 5.96664
209 1 4.64862 0.682781 8.4864
210 1 1.50324 3.60188 7.83746
211 1 2.83354 2.50613 2.72894
212 1 6.33874 8.10248 2.91634
213 1 4.16326 1.29389 4.94457
214 1 7.35699 3.50466 8.79527
215 1 1.42599 4.85496 4.20063
216 1 5.11936 3.73364 6.60508
217 1 7.82687 9.11258 8.98146
218 1 3.91638 4.02016 0.921188
219 1 4.9397 8.20918 0.631923
220 1 0.135494 3.07275 2.39427
221 1 9.21891 9.11498 7.65442
222 1 4.95611 3.94658 0.158463
223 1 2.97778 8.02223 1.06389
224 1 7.3886 6.15118 3.87748
225 1 3.69775 4.67304 6.57059
226 1 8.87401 7.8705 0.783386
227 1 4.93112 9.06578 1.73328
228 1 6.43259 2.47439 8.86708
229 1 1.18625 0.972449 6.50564
230 1 3.35766 0.745669 1.69553
231 1 0.399458 6.05266 6.60097
232 1 5.72538 5.40228 8.92711
233 1 8.29877 8.79675 7.36338
234 1 0.55592 1.08209 0.749999
235 1 6.21154 4.44397 6.31066
236 1 3.33346 8.5039 6.48249
237 1 7.57953 2.82573 0.937441
238 1 6.15126 0.0676148 8.40607
239 1 1.99784 6.71367 6.84753
240 1 5.39861 0.29287 5.64658
241 1 3.35461 7.27585 1.65451
242 1 7.96538 1.64355 3.69168
243 1 1.61161 8.85263 0.354562
244 1 5.60163 0.616925 9.06527
245 1 6.20074 4.60979 2.82161
246 1 1.32187 6.20798 1.1823
247 1 6.1042 3.54265 3.25793
248 1 8.24887 7.81334 5.30464
249 1 0.73525 5.04234 6.81473
250 1 2.67317 7.68157 3.06484
251 1 9.06627 4.00364 5.75361
252 1 4.56976 4.30229 2.7379
253 1 1.19925 5.59697 5.9613
254 1 7.13672 1.70681 2.89827
255 1 6.16088 7.85891 8.19483
256 1 8.96324 4.59703 8.55752
257 1 3.11536 7.805 9.39209
258 1 4.11947 1.63467 3.89424
259 1 3.84706 5.0789 8.37514
260 1 5.48232 2.18124 7.29471
261 1 6.79985 3.09506 0.245798
262 1 3.64558 0.810218 2.74623
263 1 9.2621 2.86458 4.83359
264 1 7.47707 5.12894 4.29075
265 1 6.63139 4.88409 4.89514
266 1 8.4407 6.77686 5.55877
267 1 3.18527 1.56531 1.14485
268 1 5.03392 2.72409 9.04827
269 1 2.76901 5.99065 9.34239
270 1 8.37317 8.34769 6.31029
271 1 9.39701 8.69135 0.268667
272 1 7.07547 1.65312 5.02249
273 1 6.72439 3.19128 4.39414
274 1 6.29793 6.90909 7.63439
275 1 4.77995 6.3763 4.25862
276 1 8.21109 5.44172 3.69048
277 1 5.82015 2.31822 2.96516
278 1 1.92596 3.64681 6.08607
279 1 2.47002 0.59367 1.1467
280 1 3.7925 4.0815 1.99707
281 1 5.20488 8.02332 4.74987
282 1 8.60605 0.735464 3.83166
283 1 8.48736 7.89239 4.09274
284 1 7.23391 6.42028 5.93362
285 1 4.67758 6.00241 2.2183
286 1 0.0699614 0.664048 7.91599
287 1 5.21655 8.25808 9.05064
288 1 1.45811 0.421995 0.351033
289 1 7.67893 0.812521 5.46875
290 1 2.13148 0.0920944 7.71375
291 1 3.59519 7.67036 5.12645
292 1 1.75502 4.6558 5.92671
293 1 1.72316 8.04511 3.43595
294 1 9.06069 3.35893 8.36301
295 1 7.66403 4.59074 5.47162
296 1 5.74074 6.60718 0.995045
297 1 3.03408 3.3603 0.593544
298 1 4.4912 6.01464 5.73674
299 1 5.34516 6.98106 1.90707
300 1 6.36711 4.53313 3.98275
301 1 8.7073 1.29853 7.75878
302 1 0.998081 0.241263 3.62869
303 1 1.97589 7.65371 7.49351
304 1 5.55484 3.98788 2.33766
305 1 3.6233 2.31683 0.699144
306 1 0.265671 9.18102 2.94119
307 1 5.68758 8.82106 1.17904
308 1 6.28125 0.377439 6.20802
309 1 0.633909 4.07961 7.33992
310 1 2.56822 2.83585 6.00811
311 1 9.31912 8.62003 1.31678
312 1 2.05542 5.72487 1.88014
313 1 6.81279 9.28967 1.48568
314 1 6.28218 5.50328 0.992544
315 1 5.24321 4.60336 6.00854
316 1 2.50443 4.06001 2.72622
317 1 0.220986 1.6425 7.36901
318 1 8.65421 5.49346 9.00596
319 1 3.49592 0.445657 6.62377
320 1 5.64345 7.89049 3.81591
321 1 3.29499 4.21823 5.32381
322 1 1.81347 6.99898 8.29889
323 1 6.01173 9.02444 3.4024
324 1 4.06613 4.26928 9.28195
325 1 3.45333 6.06865 0.798131
326 1 1.43748 8.89433 5.29226
327 1 4.10765 0.207808 9.34252
328 1 3.31129 2.49971 8.4823
329 1 8.46846 3.447 0.787771
330 1 3.21264 8.7742 0.304252
331 1 4.96908 1.94323 6.30551
332 1 2.35526 1.90418 8.66673
333 1 5.63082 5.35497 3.39676
334 1 3.08272 7.21418 6.21336
335 1 5.88114 2.94045 2.2165
336 1 0.552472 3.6416 5.17099
337 1 5.70142 6.12064 8.10885
338 1 9.0868 2.35646 7.92691
339 1 0.93249 4.79957 5.10779
340 1 9.19537 8.43824 2.50363
341 1 7.72727 0.759528 8.7708
342 1 5.22272 5.05829 2.45217
343 1 3.19928 5.02416 3.6897
344 1 2.66915 8.34995 3.89255
345 1 4.61837 7.24762 5.01325
346 1 6.6649 4.03018 1.20262
347 1 2.56633 2.80649 9.09923
348 1 7.40233 6.3033 7.95744
349 1 6.57245 3.33056 8.15157
350 1 4.66614 5.43561 4.91101
351 1 7.65785 5.37168 2.08807
352 1 1.66553 8.6693 7.17474
353 1 1.50773 2.27283 3.34889
354 1 0.820423 8.86282 8.07079
355 1 9.32088 6.29496 0.95084
356 1 6.85299 3.80785 7.18991
357 1 8.08166 0.379621 0.382951
358 1 7.24169 7.18927 5.23971
359 1 4.30675 4.90937 7.41643
360 1 2.53694 3.46321 5.18022
361 1 4.03796 3.31718 2.94991
362 1 4.49188 3.27039 2.00659
363 1 6.19467 6.29839 1.84959
364 1 2.27936 3.49429 7.15413
365 1 0.763685 2.68999 0.75482
366 1 7.61873 8.25552 4.58757
367 1 0.580811 5.49073 1.18817
368 1 2.71274 0.0178962 4.10999
369 1 7.66271 4.91337 7.29396
370 1 5.1412 9.18988 8.52454
371 1 2.00824 5.38243 5.33702
372 1 2.3168 4.42019 7.67549
373 1 6.64045 8.50718 0.876794
374 1 6.91706 3.89712 5.53703
375 1 5.38228 6.22614 6.14104
376 1 3.06787 0.803875 8.14107
377 1 1.79331 6.92162 0.477912
378 1 6.28741 1.38617 1.35723
379 1 8.12794 6.4189 6.56255
380 1 5.74638 4.37986 5.07708
381 1 3.39938 0.304859 0.775991
382 1 7.74123 7.18583 4.34389
383 1 0.633195 8.95595 6.88295
384 1 3.15055 8.54044 2.93101
385 1 4.16168 8.53815 0.0425886
386 1 1.47437 2.51693 4.27207
387 1 8.61227 1.16047 5.60134
388 1 8.1566 1.57824 9.32836
389 1 6.01984 3.25982 5.14013
390 1 3.57158 6.60719 2.60567
391 1 4.9308 0.790432 0.467271
392 1 7.0548 1.38549 4.01284
393 1 0.670362 6.61258 8.23356
394 1 7.28227 4.46087 2.53555
395 1 8.74866 1.25261 2.93732
396 1 3.54298 2.53028 3.42328
397 1 5.66718 4.82877 0.362216
398 1 6.49368 5.55482 4.00888
399 1 8.48138 3.24634 2.0658
400 1 0.545549 7.85117 2.98312
401 1 2.58001 2.4141 7.01051
402 1 0.322838 7.55619 1.4974
403 1 1.48746 4.89202 1.63438
404 1 6.35125 6.37813 5.48666
405 1 4.37528 2.79241 6.71237
406 1 6.12905 9.05816 9.35132
407 1 6.24393 0.354287 7.33594
408 1 0.868805 3.43584 1.69975
409 1 5.2815 2.9578 5.82958
410 1 1.12075 1.75788 5.8063
411 1 6.83742 0.47001 3.20275
412 1 9.08353 0.827343 4.72523
413 1 1.31738 7.33248 1.40429
414 1 6.72499 0.751232 9.12081
415 1 0.0537022 1.95458 1.15588
416 1 7.83893 1.43219 2.04988
417 1 8.83799 5.98785 6.05595
418 1 4.30176 0.379543 4.41191
419 1 6.66515 0.904185 2.19737
420 1 0.0466438 2.13481 5.83643
421 1 5.34353 6.21844 5.10316
422 1 8.07911 1.30402 4.5723
423 1 2.0518 3.24572 3.11288
424 1 4.48544 8.46236 3.55
425 1 2.52153 1.96745 4.63625
426 1 5.39719 0.827166 6.63114
427 1 8.61611 4.56769 7.50874
428 1 2.82001 8.07129 5.57896
429 1 7.12037 7.57173 2.34087
430 1 5.10236 9.05884 4.09991
431 1 8.05137 1.99441 7.24534
432 1 5.69944 7.22623 6.78525
433 1 2.11739 7.17032 5.71101
434 1 8.57065 9.00995 1.88729
435 1 1.77831 2.36692 2.34304
436 1 9.37301 9.18145 8.71655
437 1 7.43019 8.44012 0.245377
438 1 8.54777 8.53034 8.5617
439 1 3.68468 7.59769 2.65434
440 1 6.62319 5.60536 2.52436
441 1 6.25522 1.39166 3.18115
442 1 5.04323 3.0052 4.75654
443 1 3.96165 7.91941 0.793787
444 1 0.343504 7.18001 6.63361
445 1 4.69031 2.22687 8.19707
446 1 8.37867 4.56118 6.45977
447 1 1.99012 4.94249 2.55363
448 1 6.59655 5.9106 7.53774
449 1 2.43468 0.0092877 0.311621
450 1 3.5298 5.27524 0.0225788
451 1 5.23281 8.24286 7.96673
452 1 3.97442 7.41773 6.81002
453 1 4.00322 6.82586 3.57698
454 1 3.64386 7.87089 3.66912
455 1 9.0687 7.62604 5.8954
456 1 7.96604 5.7878 5.64836
457 1 4.26084 9.18782 0.92664
458 1 3.27099 6.09107 3.40838
459 1 8.99535 5.00534 1.84221
460 1 5.90452 3.14505 7.36009
461 1 8.88251 3.98807 2.78951
462 1 1.81239 9.25557 1.85022
463 1 3.50778 1.04582 9.09037
464 1 0.429743 3.03229 7.62773
465 1 2.15714 8.69225 5.90963
466 1 6.54477 2.12709 2.12494
467 1 4.84228 2.01184 0.536455
468 1 6.52364 0.362894 4.18192
469 1 7.97012 3.46607 3.80319
470 1 1.15803 3.32563 6.85702
471 1 3.92017 8.57705 5.63237
472 1 7.20397 3.35622 6.36261
473 1 7.34428 2.61266 8.35785
474 1 2.47985 6.75448 2.74927
475 1 2.91788 3.60641 7.92474
476 1 0.475754 0.892321 9.10413
477 1 1.06932 7.74009 8.26394
478 1 0.620031 0.202348 4.73976
479 1 1.62955 2.76805 1.29885
480 1 7.21041 0.0338687 8.16929
481 1 2.33137 7.43168 1.70028
482 1 4.01636 5.62759 4.00819
483 1 4.2742 6.66764 1.58794
484 1 7.14097 1.65553 8.61888
485 1 6.72078 4.65086 0.379428
486 1 0.589463 2.06095 4.149
487 1 0.342446 5.36517 4.2775
488 1 8.14233 6.22893 4.66371
489 1 1.84262 8.24093 1.29944
490 1 6.53418 7.22157 3.6565
491 1 8.06361 8.17196 2.74105
492 1 1.19598 8.12107 9.13631
493 1 7.12818 7.67177 8.98432
494 1 6.8282 2.99108 2.78409
495 1 2.87721 2.50501 1.69522
496 1 4.08883 1.72453 2.87031
497 1 0.944053 9.25689 1.08123
498 1 7.27897 1.84657 1.33438
499 1 4.7834 3.41577 3.80358
500 1 5.37442 5.72585 1.51193
501 1 4.84116 5.39882 6.62218
502 1 1.14671 3.17258 2.61315
503 1 3.95343 6.44597 4.84445
504 1 6.44535 7.28219 1.57965
505 1 8.24111 3.89255 8.11695
506 1 2.25571 5.74814 6.28997
507 1 7.27481 7.39952 8.01328
508 1 4.5534 6.97049 2.59131
509 1 9.00267 2.22077 8.96085
510 1 5.10369 1.59291 3.3303
511 1 5.53728 1.46863 5.19323
512 1 7.10507 5.12751 3.29774
513 1 2.28543 9.13067 3.12773
514 1 0.149811 5.62559 3.09388
515 1 6.70532 6.68431 4.50652
516 1 2.2462 6.62346 3.9128
517 1 0.449595 1.16038 1.82681
518 1 1.40797 2.47085 7.41104
519 1 4.04885 3.84942 5.88994
520 1 3.31807 3.06713 6.94343
521 1 8.8396 1.39304 6.6924
522 1 4.48687 8.59848 6.62068
523 1 0.634727 7.0311 2.38874
524 1 0.349199 1.59159 8.36594
525 1 9.25023 3.16259 0.0281534
526 1 5.15031 1.52041 8.78646
527 1 5.579 0.547386 3.61665
528 1 5.62552 5.24642 4.42362
529 1 7.36196 2.18062 6.30627
530 1 6.58022 7.38374 6.11159
531 1 7.81345 9.16358 1.17625
532 1 5.23452 5.76017 0.480427
533 1 7.06093 8.83639 3.92518
534 1 8.16915 8.93848 3.75503
535 1 7.98139 8.92572 5.41097
536 1 9.08444 6.10302 3.97755
537 1 0.598984 1.92373 9.37512
538 1 4.18851 8.33355 4.54417
539 1 3.66865 2.12977 7.36332
540 1 1.63026 4.28347 0.316345
541 1 7.51972 3.56665 1.66854
542 1 9.2031 2.91811 1.36708
543 1 1.1978 0.216808 7.307
544 1 7.31963 7.89673 3.46904
545 1 8.65972 4.95264 5.46691
546 1 1.19174 5.79673 4.77059
547 1 0.4806 8.17336 6.22716
548 1 9.22753 8.31716 6.98367
549 1 9.09079 2.4208 6.86427
550 1 9.0987 8.53601 5.50647
551 1 4.61787 4.78472 0.684289
552 1 1.45091 1.18304 8.92931
553 1 2.67173 1.82782 5.68624
554 1 1.27272 4.05274 3.36692
555 1 6.59083 2.32255 3.63539
556 1 1.73995 2.44376 6.40971
557 1 0.191414 5.99893 1.93622
558 1 7.05409 3.93819 3.5528
559 1 3.78434 9.25022 1.93334
560 1 3.47039 2.04272 5.10115
561 1 8.40232 2.48915 4.19123
562 1 0.654498 2.41715 6.65879
563 1 4.29749 4.96632 2.0064
564 1 5.49645 9.1715 6.66108
565 1 8.05248 2.12211 5.12705
566 1 2.71684 8.95798 1.36001
567 1 8.97722 5.46277 7.92571
568 1 4.69497 5.22839 9.08191
569 1 6.56999 3.81945 2.24372
570 1 7.16357 6.44555 2.19564
571 1 1.45832 7.57367 6.46969
572 1 2.39698 0.885204 2.15142
573 1 8.78569 3.01077 5.79294
574 1 5.06677 1.44866 1.48041
575 1 7.83927 2.55279 3.23163
576 1 5.41273 4.60751 7.05015
577 1 2.71494 8.3555 7.49866
578 1 3.58755 8.90694 3.92431
579 1 9.09662 9.2067 6.49685
580 1 8.87734 7.01872 4.59409
581 1 0.535933 9.18865 5.75563
582 1 4.63627 3.56041 8.6383
583 1 8.59293 2.36331 0.562694
584 1 1.4908 4.08649 2.32458
585 1 1.94354 0.104879 8.81459
586 1 5.83263 3.50998 1.38456
587 1 5.41943 7.14407 0.108894
588 1 8.43748 5.69754 0.685531
589 1 3.12709 3.98007 4.39419
590 1 6.21905 6.93358 8.71248
591 1 2.16114 7.8448 0.334017
592 1 7.94895 4.85589 0.104567
593 1 8.7931 3.08965 3.25855
594 1 4.92151 2.18763 2.37581
595 1 5.77896 1.44965 0.333416
596 1 9.38701 5.09381 0.429015
597 1 6.68937 2.88334 1.51311
598 1 7.68814 0.977301 7.74019
599 1 2.47407 2.44846 3.73732
600 1 1.12962 7.07816 9.07048
601 1 7.08964 0.0157221 0.391634
602 1 3.27616 5.79467 7.89555
603 1 0.723463 3.21408 4.24379
604 1 3.83465 8.50324 7.52843
605 1 1.26957 2.14595 8.51041
606 1 0.335118 7.56556 5.02706
607 1 1.56801 4.32559 6.94788
608 1 8.98102 6.49701 8.14092
609 1 2.43394 8.53106 9.04211
610 1 2.49597 9.20525 6.79037
611 1 3.8621 2.47067 2.1786
612 1 8.28043 2.9172 8.7688
613 1 7.57175 8.40034 1.79932
614 1 8.38068 2.06733 6.13162
615 1 9.18194 0.514151 2.25919
616 1 8.48 3.91646 9.20567
617 1 3.0445 3.50422 3.41005
618 1 5.80052 7.0892 4.57092
619 1 5.8511 3.31744 8.95189
620 1 0.909397 4.353 0.969231
621 1 6.37948 9.04762 5.44965
622 1 3.9705 4.07768 3.66466
623 1 1.55038 7.70302 2.39839
624 1 7.24463 8.09961 5.60607
625 1 3.88084 1.45728 8.1905
626 1 8.02578 3.74927 5.93403
627 1 0.486251 6.52654 4.58042
628 1 1.07581 5.61368 2.22129
629 1 7.16765 8.67731 7.21178
630 1 0.850423 0.214188 2.15757
631 1 0.440589 6.88768 3.51892
632 1 6.0729 1.35956 7.25649
633 1 1.43998 6.98877 3.13347
634 1 5.0269 1.07377 4.36605
635 1 3.92529 9.1889 2.96104
636 1 4.25345 7.68993 1.75052
637 1 6.14465 3.35582 6.23587
638 1 8.52354 7.85318 7.72692
639 1 8.4187 3.41924 4.9315
640 1 7.91671 3.82781 7.07833
641 1 0.925969 9.13352 9.07894
642 1 5.81819 0.343755 2.60285
643 1 4.73489 9.08114 7.47132
644 1 3.16555 1.54485 3.39774
645 1 4.91286 3.25418 0.942158
646 1 5.31187 7.30414 8.45342
647 1 6.67335 7.80965 4.51301
648 1 7.33818 2.35853 4.28427
649 1 8.72752 5.08231 2.81468
650 1 4.85655 1.31978 7.57295
651 1 8.04643 5.00657 8.27784
652 1 5.88177 5.41017 5.49808
653 1 6.78451 8.5573 8.59623
654 1 7.47272 4.9091 1.04152
655 1 3.15461 9.31159 7.63461
656 1 2.21991 3.26887 2.10485
657 1 4.792 7.5508 6.178
658 1 0.249569 0.673676 6.87682
659 1 0.591788 4.56698 9.2548
660 1 2.40774 5.42809 7.2876
661 1 2.13089 1.72351 1.54285
662 1 3.02242 6.78134 5.29154
663 1 1.52009 5.97863 8.23917
664 1 0.0521544 0.291745 1.3293
665 1 2.46167 7.05934 9.06564
666 1 9.12206 3.62377 4.13904
667 1 3.91455 6.08249 8.79595
668 1 5.2624 5.18391 7.95844
669 1 6.42126 2.44745 6.84459
670 1 6.11673 8.05117 5.33185
671 1 0.30791 8.63747 4.59209
672 1 5.60334 6.08661 2.65118
673 1 4.77356 9.0832 5.13315
674 1 3.07776 4.42727 0.307426
675 1 8.25638 6.57847 3.63445
676 1 2.76314 6.5103 1.73879
677 1 6.78196 6.02409 8.63586
678 1 8.18312 4.30727 2.11642
679 1 3.94156 3.00113 7.87579
680 1 1.76347 6.12876 9.2303
681 1 5.26953 8.45899 5.83527
682 1 3.70208 3.09172 1.36516
683 1 7.2569 1.34561 0.397824
684 1 5.02344 9.17423 0.272944
685 1 9.3153 4.33848 6.67431
686 1 2.4047 7.95408 6.63798
687 1 4.50099 5.99039 7.926
688 1 6.12629 7.91591 9.21602
689 1 8.1375 0.166804 6.21064
690 1 8.40951 6.95027 1.07143
691 1 3.06976 6.61596 8.39498
692 1 0.178314 3.34932 6.41456
693 1 1.07459 6.13907 3.77274
694 1 0.262739 7.73133 0.0361278
695 1 2.24128 0.709484 6.21722
696 1 8.17058 5.79432 7.33136
697 1 5.96515 5.46882 6.52003
698 1 8.17404 2.90522 6.63061
699 1 1.17554 6.59559 6.2486
700 1 7.351 0.793373 1.27987
701 1 8.91472 0.182258 5.52603
702 1 7.2586 9.03459 6.08906
703 1 3.15774 0.0606402 8.7611
704 1 4.87655 4.3938 4.35885
705 1 7.06593 1.57181 7.11628
706 1 3.68505 5.53413 5.12387
707 1 3.47722 3.13947 5.37877
708 1 4.49958 0.574371 1.5576
709 1 4.07648 1.97177 9.0746
710 1 3.33279 6.02951 6.04181
711 1 4.23004 1.34022 6.72619
712 1 8.57418 5.96551 1.67483
713 1 4.26244 4.89097 5.71834
714 1 7.60156 0.393725 3.89458
715 1 5.76737 6.2028 4.02063
716 1 8.61764 0.473319 7.09869
717 1 2.08994 6.34264 4.88935
718 1 7.25456 5.63603 0.439757
719 1 3.29448 1.25755 4.41734
720 1 7.23358 6.85197 7.02254
721 1 3.43711 6.8259 0.0229242
722 1 4.40048 8.04381 8.48638
723 1 2.97426 1.79379 0.0196999
724 1 0.736463 2.40431 1.80707
725 1 8.18964 0.318389 4.73595
726 1 3.8888 4.05923 8.03006
727 1 7.16086 4.3357 8.06934
728 1 1.07477 3.01727 5.85127
729 1 2.26706 1.65882 3.00306
730 1 5.62118 0.860185 8.00507
731 1 1.70409 2.08021 0.0510073
732 1 6.14677 6.20879 0.184479
733 1 1.3431 7.07136 4.24415
734 1 4.3722 8.43374 2.42425
735 1 1.82035 5.92725 2.97887
736 1 2.31273 6.03952 0.904296
737 1 2.82997 5.79059 2.56278
738 1 0.526897 5.72761 7.68469
739 1 1.16845 1.35057 7.65886
740 1 3.5158 4.9254 1.06828
741 1 8.73734 8.89311 4.59949
742 1 4.49519 0.699127 3.41842
743 1 5.88364 7.70218 0.84358
744 1 4.6166 2.4976 3.45342
745 1 1.88486 3.89405 1.2958
746 1 5.38164 4.33508 3.36104
747 1 0.525116 0.856984 2.88229
748 1 4.27687 6.98692 8.45222
749 1 7.72486 0.239386 2.15794
750 1 8.56723 9.39287 2.88846
751 1 2.42846 5.03655 9.29761
752 1 6.53841 2.18697 0.653694
753 1 6.51866 2.21636 7.79802
754 1 8.39161 2.2992 1.55079
755 1 6.44852 8.30481 1.85735
756 1 3.00338 4.48962 8.4716
757 1 9.05266 4.72603 3.73988
758 1 5.09031 3.25147 2.88449
759 1 8.25428 2.94972 7.71995
760 1 3.8418 4.72037 4.47602
761 1 8.83759 1.47762 1.86265
762 1 6.07068 3.87285 0.311632
763 1 9.16727 3.91765 1.67409
764 1 2.31319 6.28414 7.74262
765 1 0.849025 8.17369 0.789322
766 1 0.691812 3.75941 8.4742
767 1 4.70368 2.19765 5.26351
768 1 6.67413 4.885 1.87779
769 1 5.39386 6.30512 7.20434
770 1 8.92256 7.58387 3.09794
771 1 8.49936 0.535874 1.54598
772 1 6.07539 8.75068 4.42547
773 1 2.7143 7.04264 0.817512
774 1 2.53016 0.930506 9.07099
775 1 4.78847 7.24609 1.00541
776 1 2.36411 4.41984 3.78965
777 1 4.89059 3.78202 5.36865
778 1 1.68361 0.448614 2.77935
779 1 4.83109 1.00501 2.48742
780 1 7.18948 9.34021 4.88379
781 1 1.04695 5.22143 3.29516
782 1 2.03213 1.52874 6.99368
783 1 4.11026 2.63363 4.43988
784 1 1.37819 1.20864 3.53156
785 1 7.32441 6.83603 3.14108
786 1 3.00778 1.62527 2.2342
787 1 8.70188 5.40081 4.56623
788 1 0.208257 1.92266 2.68277
789 1 7.81212 0.876133 2.96111
790 1 1.30611 1.43901 2.45873
791 1 6.16014 0.488348 0.683578
792 1 2.50388 4.61537 6.60218
793 1 5.6593 2.61906 8.22693
794 1 0.783688 5.98066 0.281294
795 1 3.88101 5.5167 2.80637
796 1 0.158162 5.02837 5.95178
797 1 1.1739 1.80389 1.16336
798 1 3.3918 1.00404 5.78655
799 1 6.07761 1.30406 4.28719
800 1 1.29824 8.81916 2.73395
801 2 0.749279 2.18886 7.83343
802 2 0.212979 2.99946 5.65436
803 2 3.80391 0.532962 8.45728
804 2 4.03736 1.57014 5.73714
805 2 4.32226 7.60899 3.24467
806 2 2.02117 6.73414 1.32103
807 2 9.38912 2.81177 3.95693
808 2 0.752032 1.74697 3.35263
809 2 7.97805 5.27004 4.98419
810 2 7.21134 3.00035 3.60679
811 2 4.89763 4.67819 5.15124
812 2 7.81318 8.91985 6.70501
813 2 5.26902 8.57664 3.35276
814 2 9.13529 7.10883 0.387271
815 2 1.19584 1.77575 6.89921
816 2 8.98834 8.05934 4.78841
817 2 6.50744 8.13839 3.75038
818 2 3.61957 6.6661 6.60205
819 2 2.4622 4.23871 5.64562
820 2 2.36774 6.25579 8.66612
821 2 1.94341 1.5276 6.16656
822 2 0.657537 6.68042 1.5256
823 2 3.07998 4.03514 7.09449
824 2 8.40618 8.45732 1.20141
825 2 7.88966 3.288 0.126724
826 2 5.86071 5.43677 7.36379
827 2 1.05666 2.6836 9.32971
828 2 0.811992 7.36111 5.82691
829 2 1.27507 8.40471 6.33271
830 2 6.85214 8.14197 7.79676
831 2 4.93199 5.03938 1.42147
832 2 8.14113 5.51399 6.51305
833 2 4.49794 4.57331 8.46884
834 2 6.58756 1.63857 9.36073
835 2 8.15932 7.76103 8.55183
836 2 3.14606 2.75319 7.70344
837 2 9.3208 4.11916 7.95005
838 2 8.63677 3.70207 6.51693
839 2 7.4863 3.482 7.81429
840 2 2.87446 7.76902 2.21479
841 2 8.83854 6.20057 5.11849
842 2 8.9534 5.80627 2.45683
843 2 5.9463 1.03716 5.83035
844 2 2.93753 5.34124 0.557618
845 2 2.77119 0.968049 4.9961
846 2 4.99003 5.63394 3.95599
847 2 8.80729 4.65109 0.0489242
848 2 0.371403 7.414 8.63468
849 2 6.52692 9.10311 6.80821
850 2 0.430387 1.47733 6.4897
851 2 2.43171 3.15198 1.22974
852 2 6.40348 3.95148 4.73545
853 2 5.65661 2.33771 5.2981
854 2 4.44879 8.423 1.36402
855 2 5.82267 8.65927 8.53052
856 2 5.7202 7.61377 7.56722
857 2 4.24837 5.59306 0.308391
858 2 1.50554 5.14774 6.619
859 2 9.06873 6.73103 6.29355
860 2 3.0652 5.44525 6.71222
861 2 5.47499 2.75786 6.64401
862 2 7.83837 0.0564628 7.52271
863 2 4.97121 6.39033 1.15575
864 2 9.35778 3.9985 8.99165
865 2 8.9014 0.623263 6.24879
866 2 3.54985 8.71532 1.11362
867 2 2.3449 7.55517 3.87108
868 2 0.344123 3.57365 1.05741
869 2 4.9957 6.58079 8.14431
870 2 4.43352 1.09126 9.20972
871 2 4.75507 9.21747 5.9927
872 2 3.36372 2.70405 9.37344
873 2 7.79519 1.96667 0.635653
874 2 1.13038 8.91005 4.47176
875 2 0.0934059 4.91915 7.44777
876 2 1.97775 0.517233 7.02394
877 2 0.641317 3.86352 2.52823
878 2 2.19401 4.41511 1.85248
879 2 0.123476 4.63507 1.20802
880 2 1.33395 3.91534 4.29038
881 2 3.14754 9.34973 3.28794
882 2 1.98335 0.339563 3.63176
883 2 3.93863 9.18604 4.9796
884 2 0.895481 6.33186 2.78309
885 2 5.4593 3.51045 8.11279
886 2 4.76657 0.665119 5.08068
887 2 2.59255 8.86522 8.2363
888 2 5.14548 0.143616 0.975917
889 2 9.28907 5.88567 0.233172
890 2 8.68269 9.33412 0.880263
891 2 2.89695 5.62893 1.40102
892 2 1.23026 3.54846 0.843955
893 2 4.53199 8.05235 7.32097
894 2 5.70562 8.4417 0.367922
895 2 2.79571 2.59793 5.22452
896 2 7.60013 6.98974 0.659174
897 2 5.05531 5.44873 5.69629
898 2 7.07356 8.34299 2.48679
899 2 2.88731 5.9337 5.31659
900 2 4.54055 2.15976 7.37552
901 2 6.14472 5.93426 4.75639
902 2 6.04081 9.18996 1.84918
903 2 9.22554 0.529185 3.19397
904 2 1.95373 1.95259 7.85299
905 2 7.70468 4.32067 8.82298
906 2 2.44763 8.55864 0.620657
907 2 2.19464 3.69358 8.33476
908 2 3.13503 1.59864 8.54901
909 2 7.72054 1.61498 5.68934
910 2 6.36634 5.35254 0.0899813
911 2 4.03751 7.38568 4.34903
912 2 8.1377 7.40195 3.41941
913 2 7.35563 5.92454 3.00286
914 2 3.75719 7.08402 0.785725
915 2 9.38445 7.57827 2.30958
916 2 2.68023 4.83654 3.04436
917 2 3.10461 6.9639 3.3123
918 2 5.70623 1.88353 3.77694
919 2 8.38947 0.720558 2.33923
920 2 3.19789 5.6275 8.6859
921 2 7.34924 4.41636 1.6703
922 2 1.29672 1.37282 0.380004
923 2 8.19354 5.29608 1.42911
924 2 9.39873 2.41852 0.375588
925 2 4.82444 6.74967 5.70847
926 2 4.52471 4.41068 6.45153
927 2 1.34161 4.08096 5.44109
928 2 2.44413 3.99029 0.664071
929 2 3.41134 1.28783 7.39199
930 2 3.4 7.39044 8.76371
931 2 0.459331 8.4564 8.95491
932 2 9.07036 5.47661 1.17374
933 2 5.9569 5.34666 1.96901
934 2 6.29243 7.07455 0.21319
935 2 7.08635 6.85797 8.61098
936 2 1.35103 3.15859 3.62518
937 2 0.985983 6.20637 8.88989
938 2 7.12831 0.469025 6.02654
939 2 6.34358 1.71598 5.38725
940 2 6.35768 7.2182 5.17114
941 2 3.89199 9.25545 7.09519
942 2 6.85086 8.57177 4.83789
943 2 6.96345 5.67984 1.59778
944 2 0.977686 7.72659 3.73032
945 2 5.73492 7.87122 6.18225
946 2 0.972471 2.28259 2.58702
947 2 0.482821 6.60996 7.2868
948 2 3.79794 7.78768 5.98446
949 2 0.86811 5.01888 0.475444
950 2 2.00926 1.77162 3.8509
951 2 0.659021 8.44636 5.37595
952 2 5.58385 9.32635 7.77157
953 2 2.64399 6.52845 6.14023
954 2 3.26225 7.75299 7.04967
955 2 4.58508 7.97287 5.42715
956 2 5.7078 2.12587 9.21665
957 2 1.90284 9.36926 1.0301
958 2 4.17563 2.7084 8.69073
959 2 0.0858228 9.15325 1.96771
960 2 7.90404 6.12478 0.248394
961 2 1.27756 7.61341 0.387353
962 2 4.24625 2.90783 5.7879
963 2 3.74504 3.28229 3.93707
964 2 7.18593 5.27791 8.00157
965 2 7.00464 7.92287 1.34442
966 2 6.88579 9.29321 8.96144
967 2 4.3968 9.30522 3.69603
968 2 2.17905 2.82417 4.59173
969 2 7.59881 3.11776 4.52383
970 2 5.02049 0.495864 7.39054
971 2 4.46153 0.187824 2.39841
972 2 3.99448 5.5123 6.274
973 2 1.98173 7.83256 8.83125
974 2 3.3507 2.07704 4.22136
975 2 2.9914 1.05751 0.408935
976 2 8.65879 9.18629 9.14877
977 2 7.3568 1.94555 7.81132
978 2 5.6689 3.85108 5.77225
979 2 8.30089 5.94034 8.18891
980 2 1.16543 4.83019 2.5965
981 2 9.24897 2.2936 1.96047
982 2 1.01284 0.862261 4.26701
983 2 8.05086 1.70664 2.77671
984 2 5.4424 4.06763 0.851442
985 2 5.7922 7.80661 2.24701
986 2 8.05667 6.62992 1.79827
987 2 5.55043 1.73801 8.10642
988 2 7.8429 5.23529 2.8578
989 2 8.89571 8.02121 9.33006
990 2 0.589485 0.214342 0.368519
991 2 2.93362 7.96877 4.64404
992 2 7.18572 8.18545 6.46866
993 2 7.88394 2.78035 5.74357
994 2 8.95949 6.98505 3.74704
995 2 5.92312 3.92951 6.93598
996 2 1.68315 6.27679 5.63954
997 2 5.59365 8.75531 5.12173
998 2 9.15137 1.06156 1.11561