#bin. KALJ data file T=0.5

1000 atoms
2 atom types

0 9.4 xlo xhi
0 9.4 ylo yhi
0 9.4 zlo zhi

Masses

1 1.0
2 1.0

Atoms

1 1 6.79713 0.331513 2.7556
2 1 2.71166 5.58759 0.335743
3 1 3.40893 1.84026 4.76025
4 1 1.50569 4.47172 2.41118
5 1 0.30089 0.117275 3.44742
6 1 5.96477 0.0935672 5.69714
7 1 3.42621 6.52117 4.47748
8 1 3.68302 1.86864 7.60954
9 1 1.2495 6.44724 3.75724
10 1 2.24654 3.60467 0.90218
11 1 5.71851 1.16781 6.21105
12 1 6.93224 1.22179 0.850217
13 1 0.375576 0.908515 4.03114
14 1 4.39382 4.94781 5.24175
15 1 9.34594 9.0272 8.1217
16 1 0.60644 9.03362 7.32668
17 1 7.81356 3.51055 1.37926
18 1 5.62977 5.67491 0.127805
19 1 3.94664 5.86435 7.29093
20 1 0.413858 3.82353 8.33546
21 1 9.21087 4.7405 0.308959
22 1 0.46128 3.6814 7.34872
23 1 4.52437 8.60389 0.873246
24 1 1.48014 6.22578 5.94501
25 1 8.57085 0.957165 2.00196
26 1 7.50228 2.48521 6.78114
27 1 0.135951 8.82737 1.57017
28 1 4.20945 1.29996 2.19071
29 1 2.1537 3.99188 4.49892
30 1 7.42567 2.76317 4.94495
31 1 3.31999 0.558622 0.410735
32 1 1.19281 2.13706 8.60706
33 1 4.10697 0.775877 1.14324
34 1 5.30701 0.0617645 2.07016
35 1 2.85073 0.42872 3.45211
36 1 3.27304 3.52513 2.73394
37 1 5.76759 6.82126 7.61033
38 1 1.24551 1.35524 1.79523
39 1 6.64942 8.03259 8.85138
40 1 9.09263 7.91111 8.7924
41 1 6.25066 3.0145 7.55285
42 1 1.19625 0.120637 4.0081
43 1 1.93189 8.55714 5.8613
44 1 2.72108 1.00725 6.16973
45 1 8.63421 0.158768 2.94356
46 1 7.86636 6.65366 1.3472
47 1 0.557421 2.09264 2.1614
48 1 4.95329 7.85013 1.58971
49 1 5.72895 3.29769 5.65066
50 1 0.886092 2.58963 5.09362
51 1 0.518302 4.1015 3.79861
52 1 6.37701 8.61994 2.99058
53 1 2.48836 1.24855 3.96293
54 1 8.69453 5.58798 9.0044
55 1 2.03943 4.85353 6.16334
56 1 -0.00655294 5.44867 5.08612
57 1 1.35443 5.99171 7.06576
58 1 4.77478 7.71411 3.73729
59 1 6.20023 8.85432 7.35847
60 1 1.91916 8.35738 3.05072
61 1 2.37088 9.22711 2.74415
62 1 3.83012 7.94798 1.31653
63 1 8.33947 2.69382 7.29949
64 1 0.00686484 6.40607 9.31621
65 1 8.2921 1.83827 2.59729
66 1 3.21151 0.669388 7.13576
67 1 7.48376 7.52597 8.50268
68 1 4.03658 7.54768 7.9069
69 1 6.40307 5.66956 0.830946
70 1 8.02965 3.16732 3.42136
71 1 7.98814 2.63235 0.671158
72 1 6.57416 2.17526 3.39566
73 1 2.5847 7.77956 5.35958
74 1 2.77533 8.08021 1.2026
75 1 6.84841 1.73251 8.58342
76 1 8.79103 8.26509 1.17281
77 1 1.636 2.05172 4.62894
78 1 2.00498 6.43388 2.76148
79 1 5.92227 2.43243 8.3634
80 1 1.18765 9.0385 8.21438
81 1 2.18301 8.29915 6.95145
82 1 6.06182 1.23727 3.16377
83 1 4.44682 5.86643 4.49276
84 1 1.16782 5.30567 6.27691
85 1 1.08981 2.55393 0.618753
86 1 5.51457 2.01304 1.38113
87 1 3.83993 3.70275 3.64365
88 1 8.32098 1.40187 7.27747
89 1 6.5201 4.97333 5.85084
90 1 5.32749 6.03764 1.12171
91 1 7.50032 7.53955 5.16515
92 1 7.51662 0.0867525 8.49866
93 1 2.86283 0.852793 4.85993
94 1 1.05915 5.57547 5.09452
95 1 0.351991 8.11764 4.03205
96 1 5.72921 8.04068 6.6909
97 1 2.68094 5.32029 1.47332
98 1 5.44985 8.65949 1.2086
99 1 3.19536 0.151544 5.61089
100 1 8.03566 8.02401 7.04749
101 1 5.42511 6.01455 6.01537
102 1 3.34151 9.0137 3.03624
103 1 3.16188 8.18069 4.65909
104 1 2.8499 7.01752 2.88013
105 1 8.59619 0.555777 5.09803
106 1 6.57659 1.94787 7.58448
107 1 6.20204 6.66821 1.3082
108 1 8.88725 1.40231 4.4054
109 1 6.97207 1.51937 2.55412
110 1 1.25023 4.21554 7.83752
111 1 8.86721 3.46632 8.31549
112 1 6.36099 0.404889 0.419726
113 1 4.40513 4.26679 1.19685
114 1 1.30731 1.5346 2.92727
115 1 6.65508 0.079609 4.76907
116 1 7.7984 3.12684 8.06402
117 1 8.51821 7.13505 7.48862
118 1 6.95165 0.963988 7.07438
119 1 4.94622 2.52326 8.7532
120 1 0.617784 7.27677 9.08931
121 1 5.21161 8.9861 4.9622
122 1 1.53159 6.83436 1.16742
123 1 2.12108 5.68525 5.39457
124 1 4.55475 2.34896 6.52096
125 1 5.48134 5.3663 4.75483
126 1 6.72058 4.19569 4.26623
127 1 3.26892 9.40251 4.3297
128 1 5.43915 4.62928 9.26953
129 1 1.03006 6.01802 8.9991
130 1 4.2964 0.239028 5.59262
131 1 8.54857 2.96606 2.46107
132 1 7.54901 2.13701 5.84788
133 1 7.59199 9.11349 2.92733
134 1 0.506087 5.84275 3.43368
135 1 6.86108 5.78169 2.87817
136 1 9.03054 8.69441 6.98092
137 1 0.927466 4.89297 0.51471
138 1 5.77698 3.87033 0.412632
139 1 0.0739552 1.00397 7.15097
140 1 4.98216 4.06274 5.32877
141 1 3.14351 7.537 8.54094
142 1 3.29152 7.11233 1.14352
143 1 4.07681 4.52885 8.66591
144 1 0.45009 1.64182 4.74474
145 1 7.85836 5.70725 8.63595
146 1 4.4854 1.79054 1.27964
147 1 5.52801 3.31758 6.85296
148 1 1.94731 4.82412 8.3989
149 1 2.88923 8.05034 3.13699
150 1 7.58993 6.53788 3.14864
151 1 8.8347 8.83363 5.8552
152 1 5.88687 8.3224 0.282018
153 1 2.17411 5.96552 8.73729
154 1 3.70078 6.80875 0.256159
155 1 0.330563 6.27662 4.34844
156 1 4.67238 8.13448 5.14502
157 1 7.44927 4.74424 7.37004
158 1 2.02272 5.63291 7.76927
159 1 0.336717 6.37434 7.63413
160 1 2.87554 3.1805 8.10073
161 1 1.67763 3.23601 5.95928
162 1 8.53229 2.79291 9.13123
163 1 1.80976 3.0676 4.95415
164 1 3.10482 8.77722 0.484864
165 1 4.38083 4.92232 2.07437
166 1 5.96498 7.45129 2.60467
167 1 2.62064 6.4689 3.93409
168 1 7.20391 5.0898 0.987883
169 1 3.22336 6.24651 8.85844
170 1 1.1531 3.70128 4.52455
171 1 5.9718 5.23701 8.56444
172 1 2.73473 2.19415 8.08675
173 1 8.0837 3.69366 0.28917
174 1 2.34226 3.87117 6.41376
175 1 6.86191 5.81489 8.29208
176 1 2.46948 9.27234 6.47216
177 1 3.30463 7.71499 0.171142
178 1 8.03731 4.54895 1.69841
179 1 5.79247 1.25227 7.23516
180 1 0.149867 8.72383 2.77659
181 1 8.89897 5.87069 2.99657
182 1 4.34683 3.62061 8.07863
183 1 3.21171 3.13623 0.625654
184 1 3.61226 8.58253 7.84002
185 1 1.3949 7.89553 6.46984
186 1 3.35353 3.81253 4.5334
187 1 2.11664 0.367382 5.66098
188 1 1.95773 6.37669 0.33673
189 1 4.3454 6.78377 3.85763
190 1 4.79228 7.60764 2.64063
191 1 5.46205 6.14627 8.34545
192 1 0.26201 2.34307 9.23503
193 1 2.36299 7.94749 9.2535
194 1 8.08461 7.51369 0.87437
195 1 8.75068 0.393632 4.03662
196 1 0.216036 1.13643 1.9019
197 1 6.09865 6.57015 5.52887
198 1 0.510767 1.80382 1.06426
199 1 8.68974 8.99012 4.77472
200 1 4.02484 0.863165 7.71195
201 1 4.49008 1.85678 3.02097
202 1 7.83544 7.48733 3.46224
203 1 5.67783 8.29314 8.6358
204 1 4.22127 0.110814 0.42294
205 1 4.7581 8.64834 6.77554
206 1 1.43181 1.28468 3.98026
207 1 7.65671 1.4861 1.7279
208 1 1.41948 4.74748 4.59386
209 1 7.01501 0.161383 7.63374
210 1 0.895731 1.53262 0.133366
211 1 8.90535 0.178202 0.137804
212 1 6.99202 7.31037 1.15449
213 1 1.87304 2.09252 3.63331
214 1 7.85195 2.02139 8.89891
215 1 3.68326 5.85952 3.72233
216 1 6.36304 7.77055 5.74497
217 1 3.66955 1.1519 5.55627
218 1 3.51361 2.81751 1.95365
219 1 7.14667 5.57361 9.34635
220 1 1.2518 0.795606 8.82254
221 1 7.99221 8.92343 6.53522
222 1 5.41267 4.85164 1.96446
223 1 0.423338 0.54532 8.00907
224 1 6.91232 6.75281 4.89774
225 1 7.97802 6.21859 6.34881
226 1 2.34957 7.73321 4.24693
227 1 6.06989 7.31006 4.80083
228 1 8.4348 9.15138 8.63499
229 1 4.5592 2.39781 2.05466
230 1 3.89278 5.57332 8.35266
231 1 5.032 5.82296 7.04325
232 1 5.49902 3.89963 2.61063
233 1 7.95382 9.0785 3.91661
234 1 6.76696 8.90363 0.101386
235 1 8.57262 7.22749 6.40286
236 1 0.594864 4.66005 7.06233
237 1 5.01948 0.906437 1.6121
238 1 7.33296 6.0053 7.22086
239 1 3.99862 8.73227 6.01765
240 1 4.87914 2.68677 5.43668
241 1 2.95515 5.01495 3.17578
242 1 6.16074 4.59273 1.16451
243 1 2.56729 6.30392 1.24573
244 1 5.04262 6.70867 6.57109
245 1 5.77029 2.91006 3.05922
246 1 6.93845 7.56091 3.05069
247 1 4.80425 2.77004 3.73003
248 1 5.5213 8.51676 5.87154
249 1 4.48084 4.43333 6.12868
250 1 5.51726 6.95237 3.90057
251 1 7.47075 1.03023 8.0315
252 1 0.79216 4.66413 5.54339
253 1 9.38057 4.91194 3.29585
254 1 4.93397 1.17845 0.604157
255 1 6.55448 5.15675 1.95422
256 1 8.80869 3.06108 1.37331
257 1 6.1323 0.547373 3.94854
258 1 2.37051 8.29306 2.1571
259 1 2.9823 6.46709 7.07812
260 1 3.50719 3.77583 1.43472
261 1 9.19408 6.99259 8.26469
262 1 1.72102 1.84091 0.97905
263 1 7.47243 4.97023 4.23796
264 1 6.80915 7.69331 6.81271
265 1 5.47083 3.6982 4.51971
266 1 7.87129 5.54876 2.65155
267 1 7.09551 2.70459 1.33778
268 1 4.40982 9.18647 7.78547
269 1 1.81757 5.49239 0.865021
270 1 0.940976 8.31963 2.24839
271 1 5.31891 7.0359 0.815619
272 1 0.178523 5.56833 2.25599
273 1 6.59372 2.65276 2.37327
274 1 3.022 7.52833 7.52741
275 1 4.18062 7.15164 2.04782
276 1 0.238521 7.65503 2.60539
277 1 5.27921 9.38782 3.96814
278 1 1.65567 4.15069 5.41319
279 1 9.0221 6.04663 1.55035
280 1 3.73575 1.03117 3.04819
281 1 7.5691 7.14651 2.22997
282 1 0.397178 4.45631 2.30322
283 1 8.5932 7.54431 2.13756
284 1 7.9355 8.16791 2.69708
285 1 7.07441 0.101796 3.75486
286 1 2.05877 1.55962 8.60083
287 1 2.53182 8.22858 8.07625
288 1 1.69919 7.19889 5.67977
289 1 6.19166 1.67196 4.27595
290 1 2.59093 6.64841 8.05874
291 1 6.36393 4.21382 8.6344
292 1 1.38539 6.54742 4.846
293 1 9.20561 2.28026 2.94164
294 1 9.28602 5.39057 7.40683
295 1 0.480245 5.04326 4.22879
296 1 7.59062 8.43948 0.537916
297 1 5.28258 6.36527 5.00478
298 1 2.9759 5.31926 5.936
299 1 4.46258 0.371037 4.57645
300 1 8.797 3.95389 0.937578
301 1 2.57512 8.84529 5.16329
302 1 7.79105 0.411338 5.92203
303 1 1.01838 0.624003 2.52354
304 1 7.62874 6.0178 4.7163
305 1 1.17603 8.68788 9.29584
306 1 3.36676 8.64405 2.04298
307 1 5.14252 1.02357 2.71473
308 1 0.13296 0.200023 6.51519
309 1 8.927 6.08661 5.70253
310 1 6.1276 4.78052 2.79168
311 1 7.41693 6.50995 9.0392
312 1 4.41521 6.62377 1.10626
313 1 7.12565 4.24823 1.9389
314 1 7.92053 3.77949 4.38031
315 1 4.45319 5.52486 6.15164
316 1 0.165294 3.91619 6.35999
317 1 8.04618 0.775686 0.969399
318 1 0.253094 4.17389 4.79072
319 1 2.42902 0.139901 0.382515
320 1 3.78159 5.81308 5.23834
321 1 0.882009 3.68757 1.77846
322 1 2.52339 6.44873 5.98197
323 1 1.12208 4.94651 3.46658
324 1 1.31367 4.14085 6.48415
325 1 6.53173 8.47513 1.1199
326 1 6.54575 1.79751 6.51594
327 1 5.23209 1.4815 9.09496
328 1 9.21672 7.1287 1.49817
329 1 0.175264 8.83624 0.34978
330 1 3.51005 5.55032 2.10157
331 1 3.61805 1.01453 4.1239
332 1 4.58292 0.941349 3.59265
333 1 0.965909 3.72378 2.90054
334 1 0.781409 8.19038 5.59199
335 1 2.59952 3.31906 1.88507
336 1 7.02809 6.95186 6.03412
337 1 7.70116 1.34744 6.43279
338 1 9.20289 2.0833 7.31987
339 1 1.51889 3.17919 7.09476
340 1 4.42058 8.78597 2.02488
341 1 6.64057 3.32912 6.69607
342 1 6.51642 3.16622 0.167672
343 1 7.2509 8.37228 3.59192
344 1 0.927789 1.57063 5.66296
345 1 8.72466 6.15127 7.81949
346 1 0.427262 9.38389 8.95016
347 1 6.20715 5.97895 7.47558
348 1 7.58988 2.05228 7.80496
349 1 3.43921 4.77068 1.02163
350 1 3.80888 3.03378 6.09279
351 1 5.395 8.56139 3.46475
352 1 6.09784 7.85552 7.67053
353 1 9.19981 4.39914 7.73183
354 1 0.70216 7.22359 6.08138
355 1 0.812039 7.25237 1.86896
356 1 5.6012 2.25025 7.40367
357 1 8.89463 3.90683 1.97356
358 1 4.5256 6.41894 5.74973
359 1 3.71004 6.60036 8.01236
360 1 4.13731 2.95002 9.3359
361 1 6.80015 0.832463 5.9878
362 1 1.59344 9.00988 1.92076
363 1 8.06397 2.49073 1.70591
364 1 2.18244 0.711186 7.1872
365 1 1.57422 4.16242 -0.0183195
366 1 5.26484 0.152311 0.702366
367 1 2.13865 2.66731 0.46141
368 1 2.61554 2.41399 4.50435
369 1 8.24317 7.54267 9.25949
370 1 1.4046 6.39201 7.98263
371 1 3.35165 2.84115 5.11937
372 1 5.8111 9.28788 9.21115
373 1 6.51827 3.67268 2.65496
374 1 8.79153 0.895241 6.44761
375 1 3.25389 6.59446 2.01139
376 1 4.73726 3.41693 0.737448
377 1 1.9178 7.35593 7.72218
378 1 4.01759 6.29015 2.74778
379 1 8.13828 4.14857 7.92487
380 1 7.68959 3.4995 6.99522
381 1 5.92294 2.67788 4.09674
382 1 5.39857 7.33579 5.68671
383 1 9.3126 7.93439 7.77659
384 1 3.07646 0.662885 1.44436
385 1 5.06829 7.33965 8.32366
386 1 8.0832 3.95066 2.6471
387 1 0.49791 8.0023 1.06722
388 1 5.19464 7.69406 9.34536
389 1 6.45725 3.30057 4.82663
390 1 2.96276 5.38934 4.46874
391 1 8.6839 8.65642 2.08516
392 1 4.80821 6.10373 2.00581
393 1 5.93339 7.70239 1.3101
394 1 7.42174 4.8895 5.23577
395 1 8.81194 1.69922 9.15194
396 1 3.46833 1.6787 1.55056
397 1 5.89961 4.1919 7.41704
398 1 7.24705 4.89444 8.5706
399 1 7.78323 0.214127 1.85778
400 1 1.82614 3.27871 2.50081
401 1 6.44301 4.69656 0.153438
402 1 2.71936 2.39513 1.35166
403 1 2.50965 4.28191 1.58707
404 1 3.25188 7.59469 2.09745
405 1 3.78627 5.01838 6.7369
406 1 4.93784 8.81064 9.32162
407 1 7.20795 0.0195105 0.988761
408 1 2.77234 1.35101 0.789071
409 1 4.08285 2.12459 4.0209
410 1 8.28701 0.836679 8.83217
411 1 5.80134 0.186984 3.05328
412 1 3.08045 7.39899 6.28478
413 1 0.446374 0.594097 0.441443
414 1 7.04819 2.11219 0.169854
415 1 6.4849 8.9708 8.43186
416 1 8.5188 8.49065 0.105868
417 1 7.34988 1.99708 4.10311
418 1 3.09415 2.06386 3.65375
419 1 7.4819 3.15023 2.34093
420 1 2.66489 2.80752 6.14911
421 1 7.49669 8.08775 6.16586
422 1 7.33031 3.9511 3.45141
423 1 8.38473 2.7709 5.73065
424 1 5.28861 6.65757 2.90569
425 1 1.04674 0.615527 6.91442
426 1 3.0232 1.11506 8.00994
427 1 7.28293 3.90698 5.12901
428 1 3.48758 9.08745 6.89308
429 1 6.1852 0.35214 6.74017
430 1 7.00649 3.01975 3.94295
431 1 0.26482 3.02351 3.44869
432 1 1.9307 7.19927 3.39226
433 1 1.4527 9.0202 5.09173
434 1 5.50877 5.15522 7.65784
435 1 7.78588 6.62458 7.98656
436 1 9.0875 7.06304 5.39429
437 1 4.21843 4.09776 2.61942
438 1 2.01065 5.66938 3.40157
439 1 4.37921 8.4574 3.07359
440 1 5.43827 6.73793 9.26111
441 1 6.30943 2.28518 0.781279
442 1 8.75302 4.58746 4.26959
443 1 2.43417 4.19328 2.62698
444 1 7.95413 6.97151 4.28745
445 1 6.44619 3.95266 5.91537
446 1 8.3946 3.85644 6.24957
447 1 9.01805 5.7474 0.583164
448 1 2.00512 8.44595 0.644013
449 1 4.56712 7.73174 6.26166
450 1 2.98304 8.42498 6.21113
451 1 5.56287 4.23516 6.37454
452 1 6.02668 7.24593 8.5266
453 1 2.6913 1.65381 7.13332
454 1 1.74542 5.90158 1.81552
455 1 9.14439 3.42244 5.51617
456 1 0.88664 5.20271 1.55536
457 1 7.26275 7.49836 0.193392
458 1 1.62866 7.92806 4.98099
459 1 8.38283 5.17089 6.03824
460 1 5.73309 4.6484 3.98751
461 1 8.37054 5.28275 4.96331
462 1 4.15569 9.2728 8.76804
463 1 2.73344 0.90429 9.06671
464 1 8.37514 2.16615 3.72015
465 1 0.949584 5.40711 7.87301
466 1 3.88339 2.70247 8.38479
467 1 5.38158 1.83095 3.62172
468 1 7.70424 8.56104 4.86644
469 1 7.09828 9.08386 5.59411
470 1 7.43148 3.89447 8.65122
471 1 4.00916 2.08174 5.68528
472 1 0.383093 4.29619 1.11659
473 1 1.71733 2.26148 6.63981
474 1 9.19744 7.72149 0.398092
475 1 0.174737 1.03057 8.9123
476 1 8.85058 0.245275 7.53023
477 1 8.55096 1.178 3.29722
478 1 4.89973 7.58793 7.30987
479 1 1.20636 3.54313 0.747144
480 1 3.48152 1.91542 2.63156
481 1 3.83697 2.754 3.15664
482 1 7.54585 2.99127 9.16172
483 1 3.80419 7.79719 5.54788
484 1 4.09576 9.37245 3.68474
485 1 6.83005 7.03363 7.87246
486 1 6.32616 7.2079 0.25817
487 1 6.73619 7.82942 2.03924
488 1 7.57221 6.99685 6.87753
489 1 0.422972 1.76584 8.01366
490 1 2.39145 6.74275 4.90884
491 1 7.66702 8.19912 1.6111
492 1 5.23961 3.24893 7.88013
493 1 7.34753 1.00501 9.33009
494 1 5.90266 2.31368 5.03884
495 1 6.04961 0.937544 2.20187
496 1 2.98762 2.80062 9.07416
497 1 1.95763 0.329735 8.19441
498 1 6.87377 8.8431 2.07415
499 1 3.889 7.37711 3.08364
500 1 5.21171 4.29328 8.21572
501 1 5.11863 0.12549 6.21181
502 1 2.41042 4.73539 5.12786
503 1 4.40568 7.59311 0.605182
504 1 5.37868 3.9077 1.47551
505 1 6.63322 5.13136 3.67767
506 1 0.346523 9.17098 5.40327
507 1 7.97291 1.64382 0.463923
508 1 5.71752 1.94457 2.39856
509 1 1.13493 7.00308 6.96675
510 1 8.78945 7.76969 3.15981
511 1 6.73814 8.03413 4.47146
512 1 4.71759 4.96086 4.05113
513 1 0.886465 6.40344 2.64318
514 1 8.41934 7.97042 4.20406
515 1 6.91661 7.1753 3.98962
516 1 3.60922 8.31696 3.78603
517 1 8.66575 2.23958 8.21485
518 1 5.62111 2.98483 0.830057
519 1 2.00005 3.17636 3.95301
520 1 5.71699 3.41523 8.86076
521 1 6.47087 8.59306 6.32142
522 1 3.77877 5.57856 0.0939701
523 1 4.22266 3.07072 4.55152
524 1 1.3274 1.20215 7.76765
525 1 6.33594 3.48322 1.60047
526 1 4.75054 3.82611 9.08864
527 1 3.9657 7.41136 4.56699
528 1 6.56645 5.33413 4.74316
529 1 4.76126 3.388 6.17547
530 1 7.81902 0.0497734 0.124597
531 1 8.42245 5.16691 7.98315
532 1 3.06222 0.935573 2.38667
533 1 8.40944 6.57767 8.92681
534 1 0.568596 7.05229 0.715903
535 1 7.72606 0.158474 4.81942
536 1 2.63059 2.6784 2.87355
537 1 2.02067 2.6808 8.70225
538 1 3.89974 8.97124 4.96062
539 1 5.28269 5.06637 5.76491
540 1 2.30998 3.93008 7.47988
541 1 1.67354 2.9098 1.46116
542 1 0.547211 4.04085 0.0399779
543 1 1.61953 9.19852 7.21489
544 1 1.88173 1.3056 5.33255
545 1 7.2612 4.71437 2.79029
546 1 2.15998 7.09544 6.73299
547 1 9.29144 7.89581 6.11988
548 1 6.10441 7.77716 3.68086
549 1 1.7049 1.22305 6.41496
550 1 8.57034 6.77067 3.54333
551 1 2.90324 5.26123 8.71458
552 1 8.14814 4.90732 3.41748
553 1 4.57126 1.1185 6.19008
554 1 3.724 1.36043 6.67308
555 1 3.33998 4.54629 2.16139
556 1 2.9474 4.3496 8.28607
557 1 1.69016 4.87195 7.18655
558 1 7.48489 3.18085 5.99817
559 1 3.9984 5.06441 3.02563
560 1 2.96838 3.04943 3.76118
561 1 3.35275 4.25654 6.17091
562 1 8.91662 6.29611 6.81375
563 1 2.29051 7.14034 1.76452
564 1 6.29371 8.85777 4.0908
565 1 8.59991 1.56952 5.60548
566 1 1.44854 4.41314 1.30923
567 1 8.2186 5.43365 7.05713
568 1 2.54454 9.09478 1.44045
569 1 9.01397 2.03592 1.74897
570 1 2.30316 5.32736 2.42664
571 1 9.28846 4.75542 8.68158
572 1 4.33621 4.09504 4.48608
573 1 0.219293 3.14396 2.37998
574 1 2.15219 0.0450927 4.35295
575 1 5.25026 4.9917 0.851936
576 1 6.94521 3.77327 7.65469
577 1 6.92809 0.7301 1.76659
578 1 4.81873 4.05816 7.1349
579 1 9.28433 2.29249 4.20682
580 1 1.75341 2.26984 5.63027
581 1 7.66711 1.21645 5.2534
582 1 3.9869 8.45504 0.0141243
583 1 2.39801 1.50419 1.76754
584 1 2.52385 1.89128 0.018626
585 1 8.75013 6.34206 4.64459
586 1 5.92645 1.32138 8.30315
587 1 2.14498 0.619553 2.15222
588 1 8.94722 1.19779 8.00542
589 1 1.07144 2.70703 4.08742
590 1 2.64933 3.5967 5.38527
591 1 2.62347 8.71832 3.82521
592 1 8.00857 5.9021 3.79727
593 1 0.913685 4.84142 8.80937
594 1 6.10957 3.63606 3.68267
595 1 5.29266 6.95325 1.83878
596 1 0.871902 1.64693 6.85538
597 1 0.495594 8.12494 6.8526
598 1 9.15988 4.53747 5.63514
599 1 1.21187 9.0902 2.97084
600 1 7.07083 1.16687 3.46964
601 1 0.713467 6.26433 1.62378
602 1 5.84536 5.30604 6.62516
603 1 4.70815 1.47224 7.2287
604 1 6.07296 0.407389 7.92202
605 1 4.44752 6.57689 8.67808
606 1 0.959043 7.94672 3.3286
607 1 2.09836 8.95396 8.85149
608 1 1.40671 7.59113 0.379256
609 1 4.37021 1.63173 8.44035
610 1 4.38409 0.275815 6.84775
611 1 0.15862 3.12126 0.497105
612 1 1.57325 7.0106 8.81473
613 1 6.17604 0.114577 1.43126
614 1 0.568693 8.23893 8.50008
615 1 8.01489 5.58851 1.48389
616 1 8.78656 4.80625 2.50701
617 1 4.43013 3.43216 1.74427
618 1 6.99373 6.04018 3.91994
619 1 3.30512 4.64298 9.38465
620 1 9.08494 7.27132 4.31272
621 1 5.24145 9.2948 8.37311
622 1 8.14044 2.01562 4.76442
623 1 5.18072 0.730609 5.33044
624 1 7.47653 4.51077 0.141598
625 1 1.68047 4.07131 3.48908
626 1 9.10492 3.90262 2.98675
627 1 0.881272 0.531852 4.8639
628 1 1.22845 3.12192 8.12587
629 1 4.64879 6.12912 0.21344
630 1 2.66074 9.19776 7.53912
631 1 4.92796 7.26862 4.74311
632 1 9.33677 8.08578 4.93238
633 1 8.98108 8.81587 3.78708
634 1 5.91632 1.08442 1.08511
635 1 4.05457 2.75237 1.05725
636 1 8.92186 3.64028 4.04632
637 1 5.7242 5.72667 3.31949
638 1 2.27214 5.78474 6.72051
639 1 1.62888 2.26622 7.66093
640 1 6.10652 6.95856 6.54811
641 1 1.14378 9.02955 6.31928
642 1 0.480457 2.78983 1.42359
643 1 2.39592 1.61078 2.85133
644 1 1.54588 7.51622 2.49288
645 1 3.87088 3.90016 0.356892
646 1 3.91143 6.85505 6.97706
647 1 3.72164 0.772656 8.69509
648 1 6.97079 5.88434 5.50376
649 1 0.682283 7.34419 4.9675
650 1 5.97093 4.47633 5.03287
651 1 5.88222 5.97174 1.97798
652 1 6.23732 8.65184 5.12417
653 1 8.2364 8.0769 8.10572
654 1 3.78648 0.178737 2.24922
655 1 5.94088 8.41888 2.06905
656 1 3.39494 2.15037 0.422267
657 1 5.31115 8.45426 7.59177
658 1 0.492339 6.36478 5.41236
659 1 8.75374 3.61638 7.24217
660 1 4.44516 4.90645 7.65836
661 1 1.95593 0.702785 1.19831
662 1 4.54781 8.35124 8.45866
663 1 1.62994 8.07359 8.48452
664 1 6.99142 0.990801 4.45703
665 1 3.16195 8.55928 8.89841
666 1 8.59726 2.92638 4.7145
667 1 7.97243 1.02541 4.08785
668 1 4.37483 5.50149 1.18582
669 1 8.31779 6.36981 2.23782
670 1 5.04925 2.10106 4.55274
671 1 1.24535 5.4501 2.55404
672 1 7.45449 4.27982 6.14977
673 1 4.64627 2.32438 7.73744
674 1 2.04667 3.78133 8.54545
675 1 2.57811 6.93735 9.14883
676 1 7.38689 5.32365 6.39628
677 1 6.52846 6.02574 6.37248
678 1 0.194904 3.14821 4.58565
679 1 3.43461 2.34359 6.6673
680 1 0.176778 5.81077 8.48315
681 1 4.76145 0.0414255 2.93228
682 1 6.12541 6.27754 4.43823
683 1 6.55479 1.79999 1.62972
684 1 5.30082 0.103876 7.284
685 1 4.68228 6.65503 7.62731
686 1 0.79432 7.33493 8.01547
687 1 3.22902 3.39602 6.80951
688 1 8.83492 4.65689 6.85057
689 1 0.346469 9.23316 4.44792
690 1 0.969427 0.37788 1.4382
691 1 2.96056 0.153874 8.40422
692 1 8.19866 9.08119 1.12114
693 1 3.43966 4.70902 5.10759
694 1 2.23389 4.87832 3.98763
695 1 0.728873 2.60118 7.3242
696 1 7.03457 5.98337 1.62291
697 1 8.2292 4.48114 8.8978
698 1 0.0120651 1.74618 6.22693
699 1 0.528138 6.27358 6.49867
700 1 0.218052 1.13357 3.02278
701 1 7.94829 0.446067 7.02103
702 1 8.40055 7.95235 5.52329
703 1 1.37333 8.45313 4.09609
704 1 4.68938 5.91224 3.47619
705 1 5.00355 0.897174 8.03309
706 1 9.19787 2.84411 6.63718
707 1 0.780872 2.54305 6.12664
708 1 3.19531 7.3274 3.80547
709 1 3.49548 6.03931 1.00811
710 1 3.65929 4.19568 7.42328
711 1 2.70729 3.80412 9.34951
712 1 1.29705 7.41887 4.11498
713 1 3.56433 6.17317 6.26226
714 1 5.15694 1.70231 5.50964
715 1 6.33888 6.64575 3.32734
716 1 4.20854 3.14164 7.12877
717 1 3.04151 5.6994 7.76502
718 1 8.99192 1.29579 0.988903
719 1 0.131178 0.907418 5.522
720 1 7.0476 6.37643 0.615917
721 1 3.01659 6.00234 2.95359
722 1 6.40741 6.31554 9.11849
723 1 6.67621 3.14991 8.52053
724 1 3.60838 4.73542 3.94416
725 1 8.99731 5.56313 4.06899
726 1 1.10048 0.513459 5.82663
727 1 6.98054 3.93234 0.836356
728 1 8.47169 2.07751 6.47618
729 1 7.45971 2.34175 2.96607
730 1 8.26974 4.89176 0.614092
731 1 1.80462 5.23174 9.30559
732 1 6.62798 6.77971 2.26542
733 1 1.2109 2.6794 3.05199
734 1 1.75249 2.22138 2.22642
735 1 7.94814 9.03701 7.64639
736 1 3.71917 9.20992 1.27532
737 1 1.95032 5.8698 4.37636
738 1 1.8689 1.07935 0.253068
739 1 2.79993 1.881 5.59871
740 1 0.373479 6.95083 3.54726
741 1 6.11795 1.00263 5.10922
742 1 0.769021 3.5028 5.59074
743 1 7.09004 9.29826 6.62271
744 1 4.72063 3.1805 2.7835
745 1 2.76583 4.80625 7.00635
746 1 5.33917 1.03522 4.36546
747 1 1.33647 0.181678 0.219875
748 1 4.19382 7.5336 8.95419
749 1 6.6206 0.6575 8.78024
750 1 9.13396 0.319171 1.21836
751 1 3.72907 8.06609 6.93602
752 1 5.759 2.43891 9.3253
753 1 3.57992 3.63277 8.8231
754 1 4.11661 1.36353 0.00633206
755 1 3.32004 6.87676 5.43024
756 1 4.86121 5.44751 8.79676
757 1 0.0725164 7.13866 7.00373
758 1 4.37878 1.36689 4.88277
759 1 6.8239 1.8143 5.12447
760 1 4.37401 4.75222 0.313974
761 1 2.30953 7.29139 0.677087
762 1 7.63452 8.48563 8.93246
763 1 6.52427 4.8775 7.73615
764 1 3.36039 1.79406 8.76792
765 1 1.27787 8.15021 7.50948
766 1 8.96631 3.88604 9.2343
767 1 6.59596 2.68309 5.78795
768 1 5.03391 3.86978 3.5677
769 1 8.02957 6.6665 5.32157
770 1 8.99399 4.91584 1.44055
771 1 0.0451911 0.244116 2.29705
772 1 9.26344 2.37672 5.28289
773 1 4.54479 8.55925 4.23519
774 1 6.66579 4.53325 6.78552
775 1 2.78447 4.09417 3.5752
776 1 4.75725 2.33932 0.385895
777 1 5.57475 8.18173 4.42876
778 1 8.92846 2.26543 0.673691
779 1 5.64828 2.40116 6.27079
780 1 7.99921 5.95994 0.380572
781 1 2.37349 4.63427 0.572546
782 1 8.76469 6.7909 0.622249
783 1 8.21638 4.2552 5.35062
784 1 1.81701 0.568989 3.1674
785 1 9.33524 6.65048 2.44925
786 1 1.06946 3.18613 9.11102
787 1 1.59991 7.87092 1.47182
788 1 7.72584 0.82218 2.71492
789 1 7.19855 8.30513 7.81881
790 1 0.225654 2.72321 8.22219
791 1 6.24222 1.47023 0.0143484
792 1 0.167707 5.21035 6.26206
793 1 4.84121 0.589203 9.05082
794 1 0.752996 5.91918 0.704612
795 1 3.99185 3.71017 5.40674
796 1 5.11437 4.87356 3.11983
797 1 0.598513 1.89533 3.58446
798 1 2.47481 2.74396 7.23624
799 1 5.53239 2.91129 2.00845
800 1 1.08135 8.8399 0.993793
801 2 8.86483 3.17212 3.32568
802 2 8.20362 7.02176 2.78959
803 2 1.7846 0.367975 6.43497
804 2 2.57603 6.07257 2.07731
805 2 8.6758 8.57736 2.91868
806 2 6.73487 8.0648 0.431208
807 2 2.87864 6.48533 0.423051
808 2 0.635211 5.51473 7.00061
809 2 7.90394 5.22448 9.29555
810 2 2.04471 6.4379 7.42406
811 2 5.7099 6.25827 6.7893
812 2 1.22633 3.36826 3.56608
813 2 7.82129 2.81498 4.12642
814 2 0.0225904 1.51877 0.281925
815 2 6.22391 2.58993 6.8665
816 2 0.118485 3.53412 1.2904
817 2 6.52987 4.28903 3.33208
818 2 2.10446 3.03942 7.90313
819 2 5.15717 1.75182 6.46092
820 2 8.65416 0.0591431 6.68523
821 2 6.65453 1.13608 7.87868
822 2 7.36705 1.91788 1.06386
823 2 1.95909 8.85441 7.92629
824 2 8.31354 7.22604 8.41898
825 2 8.04706 3.41258 5.36161
826 2 1.4972 5.50406 8.49558
827 2 7.08805 8.90176 4.29462
828 2 9.04803 0.215686 5.83969
829 2 8.44005 7.40226 4.87586
830 2 3.62698 5.00936 7.65603
831 2 5.81955 5.30394 1.44274
832 2 7.28478 8.45922 6.97022
833 2 1.13022 2.18805 1.57741
834 2 2.91588 0.113599 2.12619
835 2 1.78213 1.58224 7.14642
836 2 6.86486 3.96505 9.38149
837 2 0.238114 5.48393 9.27533
838 2 8.24576 3.03519 6.55864
839 2 5.71654 8.91788 6.63427
840 2 5.69435 7.98635 5.20997
841 2 7.79182 4.30027 0.945591
842 2 5.03875 4.26557 0.537836
843 2 0.368174 8.65842 6.17298
844 2 2.00223 0.343633 9.09278
845 2 4.07325 7.99349 2.30479
846 2 1.23014 0.331029 7.71241
847 2 7.08371 8.29016 5.34619
848 2 8.07222 6.35615 7.22222
849 2 3.65136 1.31949 0.7074
850 2 9.02248 7.16677 9.17418
851 2 4.85871 5.75978 7.93006
852 2 1.21976 4.04862 8.65703
853 2 6.20706 1.78602 5.74597
854 2 7.26377 2.25187 2.06655
855 2 3.86465 7.02368 6.0208
856 2 6.21425 2.60243 1.60069
857 2 0.038619 0.608419 4.74913
858 2 3.4868 2.82099 7.60735
859 2 5.22237 7.94788 0.746787
860 2 1.90145 0.746288 4.66562
861 2 2.9911 8.45853 7.24891
862 2 3.07229 4.06734 0.684898
863 2 7.00226 3.00677 3.09381
864 2 7.1337 2.80623 7.47193
865 2 3.77232 5.07468 5.86276
866 2 0.815414 9.16684 2.21604
867 2 7.56841 7.5472 7.61937
868 2 9.35724 7.9371 1.77984
869 2 0.764235 8.19374 4.73496
870 2 5.27986 6.08456 4.12014
871 2 2.43004 1.63547 4.77452
872 2 2.57834 3.3092 4.53383
873 2 5.38156 2.88203 4.76204
874 2 6.07393 9.04386 0.645459
875 2 3.97814 6.16719 1.73419
876 2 6.53688 2.48416 9.07037
877 2 1.5053 6.70514 2.04218
878 2 6.5774 5.3445 7.0205
879 2 1.10667 5.62965 4.09773
880 2 4.2506 2.23469 4.83581
881 2 2.9604 7.31495 4.72945
882 2 2.87211 6.05327 4.94835
883 2 8.08953 4.29142 6.96433
884 2 7.27303 2.52938 8.46537
885 2 5.13869 2.45465 2.76639
886 2 1.86945 9.139 3.53504
887 2 7.94567 0.354036 3.43804
888 2 9.26424 2.96292 7.52228
889 2 1.99964 4.80522 3.09469
890 2 4.83845 5.6933 5.31245
891 2 2.17648 8.50492 4.52168
892 2 6.65524 6.62396 7.13445
893 2 5.20793 1.90382 8.27819
894 2 5.66496 0.796248 0.276081
895 2 7.87456 5.77128 5.53827
896 2 8.6515 5.58523 2.18194
897 2 6.78311 7.11622 8.8759
898 2 2.52587 4.91321 7.80237
899 2 8.69358 0.054819 1.96528
900 2 0.524704 0.979416 6.32104
901 2 7.76352 1.68834 3.40624
902 2 2.76325 5.67965 3.68812
903 2 1.17828 1.36929 4.85013
904 2 0.136133 3.19644 9.00009
905 2 1.0365 0.799307 3.43589
906 2 7.31715 3.2313 0.539739
907 2 8.67044 3.11427 0.542345
908 2 5.92242 6.36079 0.470174
909 2 4.76991 8.88968 5.69006
910 2 2.17465 1.24464 7.81696
911 2 5.41336 7.53058 3.25233
912 2 3.49452 4.31852 3.02787
913 2 4.20016 6.71067 4.93068
914 2 0.550585 4.6791 7.99728
915 2 4.89648 2.65164 1.27652
916 2 1.62614 1.96915 9.37743
917 2 8.12226 1.55652 8.12459
918 2 9.10358 1.56529 2.46194
919 2 5.41919 0.781768 3.54938
920 2 4.04047 3.77829 6.5232
921 2 2.34896 7.62345 2.69455
922 2 8.11364 0.49678 8.01964
923 2 5.03635 1.6628 2.02203
924 2 4.22431 2.11793 9.10058
925 2 6.14231 9.32681 2.26821
926 2 2.52523 2.75113 5.32512
927 2 5.16382 0.798392 6.8114
928 2 1.8125 3.72931 1.68255
929 2 2.51933 4.62574 9.03451
930 2 9.09123 0.342992 8.46959
931 2 4.40924 8.30838 7.53485
932 2 6.59671 2.49892 4.57116
933 2 8.3476 1.77029 1.31977
934 2 6.04339 4.22426 1.959
935 2 1.61639 5.04061 5.41647
936 2 1.00978 2.90945 2.2215
937 2 1.13739 6.80208 0.227691
938 2 3.67756 0.456746 5.00157
939 2 1.15218 7.16571 3.18165
940 2 2.24611 7.72004 6.11799
941 2 8.6789 8.66197 7.77218
942 2 3.33213 0.0240182 9.1594
943 2 2.25778 3.51873 3.2275
944 2 1.81088 5.09622 1.7826
945 2 8.23467 3.97087 3.59767
946 2 8.23316 3.57628 8.82286
947 2 3.33572 8.47416 5.45821
948 2 5.36177 5.5443 2.59302
949 2 5.62066 1.86581 0.541951
950 2 0.861977 3.3761 6.44279
951 2 3.59165 0.0444792 7.67865
952 2 5.94747 3.70306 8.08883
953 2 5.19556 4.57176 4.64864
954 2 1.92036 6.90938 4.22306
955 2 8.49515 8.19572 6.35477
956 2 7.47067 5.14291 2.02166
957 2 5.98609 5.57546 5.45988
958 2 0.696752 8.79667 3.62477
959 2 7.13206 0.489032 5.32579
960 2 2.93624 4.47231 4.42373
961 2 9.30987 6.77867 6.19512
962 2 4.68986 0.0561064 1.46971
963 2 3.14651 5.60044 6.79961
964 2 3.52385 6.61438 3.36877
965 2 2.33808 7.44262 8.49433
966 2 7.41581 5.34754 3.43627
967 2 9.16434 1.65757 3.62498
968 2 8.78542 3.80524 4.83874
969 2 7.44124 6.22725 2.34024
970 2 4.79706 4.13305 2.06218
971 2 1.83588 9.29661 0.900774
972 2 4.35655 6.22754 6.65762
973 2 4.642 6.94811 0.0744585
974 2 4.316 4.42711 3.42754
975 2 0.71233 6.60394 8.4661
976 2 7.8798 7.27342 5.94722
977 2 5.13371 8.34442 2.59009
978 2 3.68769 0.302337 6.33506
979 2 5.04336 4.84229 6.6577
980 2 1.84148 3.36398 0.103542
981 2 9.16055 8.85786 8.99688
982 2 7.84742 6.82797 0.285868
983 2 1.14691 1.02889 0.799992
984 2 5.10594 2.98873 0.060598
985 2 8.04645 9.0415 5.50632
986 2 8.53229 1.05147 0.274264
987 2 4.58047 0.508253 2.26313
988 2 7.58079 7.80811 4.33301
989 2 5.80822 0.272266 4.75073
990 2 3.40733 2.53529 4.33321
991 2 8.92437 7.79359 7.00726
992 2 6.31657 6.41789 8.1758
993 2 8.12661 8.35671 3.53166
994 2 7.61874 5.46347 7.86358
995 2 3.87265 5.25756 4.51162
996 2 2.41822 1.84886 6.31511
997 2 5.61363 0.645752 8.78085
998 2 0.206113 5.25915 0.96185