#bin. KALJ data file T=0.5

1000 atoms
2 atom types

0 9.4 xlo xhi
0 9.4 ylo yhi
0 9.4 zlo zhi

Masses

1 1.0
2 1.0

Atoms

1 1 2.38815 2.43577 8.48161
2 1 6.63397 2.77629 8.71917
3 1 2.37184 6.46798 2.381
4 1 6.52165 6.59567 1.45426
5 1 2.2037 8.97543 4.66909
6 1 7.06567 1.28093 7.3003
7 1 1.15032 7.66889 8.51015
8 1 4.45702 2.24065 7.22856
9 1 3.2334 3.42859 5.00341
10 1 8.38044 7.35314 8.2365
11 1 8.98131 1.43068 9.16741
12 1 7.71291 1.51427 2.37804
13 1 9.27312 1.66751 3.02544
14 1 2.97871 5.49116 0.828513
15 1 9.20398 2.50755 9.17742
16 1 2.48524 0.42909 6.67254
17 1 8.51453 3.69649 7.37785
18 1 8.8385 7.32199 9.16701
19 1 3.61667 1.4498 0.170939
20 1 5.02582 2.89636 7.87111
21 1 0.983783 1.78163 3.12753
22 1 3.07257 3.70077 7.32993
23 1 5.93975 2.02441 8.54397
24 1 4.49848 7.25568 6.53729
25 1 6.23303 1.73839 7.00731
26 1 8.34175 7.61138 3.56543
27 1 7.91235 8.74504 8.93376
28 1 3.28316 2.72559 6.00413
29 1 1.37803 2.49808 8.3033
30 1 0.131485 0.537072 2.6379
31 1 1.40702 4.97552 2.93724
32 1 4.4027 1.01631 5.83426
33 1 2.50291 3.47457 8.71211
34 1 7.0794 8.15118 2.46943
35 1 8.48333 8.79368 5.71697
36 1 8.5584 6.91691 1.88879
37 1 5.67627 3.75893 2.34486
38 1 1.7873 9.30206 2.81952
39 1 2.27589 8.00924 5.30949
40 1 1.72416 0.795779 0.154947
41 1 6.35419 9.01371 8.08827
42 1 0.566494 6.94961 8.02331
43 1 2.9207 1.91132 2.15721
44 1 5.78135 2.68246 3.95572
45 1 4.71801 0.200935 7.01296
46 1 1.27895 6.5239 2.2654
47 1 3.75361 5.35486 6.83637
48 1 5.75173 4.93149 3.96441
49 1 3.95438 3.64284 5.74346
50 1 9.10585 0.101552 3.42602
51 1 5.00277 5.22763 4.86795
52 1 5.63053 2.15379 1.06544
53 1 7.11708 3.42171 5.57382
54 1 8.16278 7.38725 7.20138
55 1 1.51401 3.50664 5.74434
56 1 1.18669 4.58679 5.91446
57 1 0.356049 0.663422 7.42347
58 1 7.51516 8.97865 0.603644
59 1 0.10541 8.72494 5.29529
60 1 1.40915 5.80245 9.17053
61 1 5.2359 6.21464 3.05445
62 1 0.537828 0.520485 1.71793
63 1 3.5132 5.30017 8.48088
64 1 4.23306 6.28545 8.01313
65 1 2.90379 2.88749 0.136198
66 1 5.25285 6.11666 8.29372
67 1 2.52653 7.78664 3.28388
68 1 3.2958 6.29365 8.50063
69 1 3.59826 4.33037 0.946881
70 1 1.53506 3.332 2.93203
71 1 8.17398 3.7131 8.84351
72 1 5.76165 7.02424 0.64952
73 1 2.67508 8.06678 0.341322
74 1 4.75562 7.98298 0.113265
75 1 1.28865 0.565987 4.06746
76 1 4.92431 1.48778 3.42634
77 1 3.59825 2.812 7.0231
78 1 9.20939 6.49067 1.20285
79 1 3.4679 7.63352 2.62693
80 1 0.258366 5.71145 3.93028
81 1 3.276 2.01318 3.76036
82 1 5.4498 0.234875 1.78213
83 1 3.04225 8.68055 5.43791
84 1 0.481663 6.10034 8.63633
85 1 1.87755 5.97237 3.11872
86 1 5.68499 5.1658 8.80057
87 1 8.03925 5.08526 4.60792
88 1 1.35551 8.52838 5.08477
89 1 0.367526 4.50511 0.863629
90 1 5.95673 8.8003 4.39535
91 1 9.22724 5.52677 6.78077
92 1 1.04693 7.67415 7.43192
93 1 1.4383 7.98771 0.254531
94 1 6.76724 7.59624 0.159694
95 1 5.54296 5.90856 4.02343
96 1 2.74215 8.34937 7.77316
97 1 3.88133 5.37142 1.22896
98 1 7.91953 7.82482 1.80685
99 1 0.809453 1.48382 6.45521
100 1 4.88059 2.07385 6.12077
101 1 3.27866 8.53642 3.28418
102 1 7.37785 9.0463 7.93198
103 1 2.28782 1.62877 3.75049
104 1 1.31064 9.09172 0.176722
105 1 7.61303 0.348086 7.06086
106 1 4.9732 3.06377 5.69031
107 1 8.5885 7.41787 0.920158
108 1 8.8901 8.84572 6.6662
109 1 4.11635 4.72449 2.85403
110 1 0.539881 7.01528 6.85188
111 1 2.67764 9.20119 8.25147
112 1 3.78631 3.34801 2.93787
113 1 0.419688 5.97047 7.61335
114 1 3.58828 6.26619 3.91751
115 1 4.72051 0.451041 5.04498
116 1 2.5657 5.18532 7.9774
117 1 6.3035 7.78077 6.91407
118 1 6.89255 0.513761 0.61912
119 1 8.28647 6.31192 0.904464
120 1 5.4963 9.33877 3.41039
121 1 4.7 8.33083 7.62392
122 1 0.527374 1.39259 0.20154
123 1 1.05768 1.58268 4.28138
124 1 0.526063 6.29666 0.39476
125 1 8.46934 3.195 3.87078
126 1 0.929597 3.44496 6.67115
127 1 2.86321 7.26288 4.23792
128 1 3.958 1.33978 8.52367
129 1 4.07436 5.58166 2.21601
130 1 1.96005 5.43509 7.19213
131 1 8.87255 0.170564 5.18436
132 1 6.06332 5.6758 3.09988
133 1 6.79006 7.52063 1.72039
134 1 5.32555 1.76291 7.57352
135 1 6.02358 2.64829 7.68534
136 1 2.41668 9.2552 9.37821
137 1 3.43975 4.63618 7.57957
138 1 4.62016 3.42243 8.71491
139 1 1.22966 8.84717 4.14042
140 1 1.0589 4.01994 4.83697
141 1 1.71469 8.42362 7.83479
142 1 3.83423 1.873 6.3664
143 1 3.1621 6.48437 6.54718
144 1 8.84857 7.0709 6.38026
145 1 4.79339 5.66478 7.39107
146 1 8.24294 8.36121 2.79144
147 1 2.51921 8.28653 6.30441
148 1 7.15157 3.12621 7.92213
149 1 1.35634 9.37224 1.41155
150 1 4.06426 8.68338 5.2314
151 1 0.0549243 0.206403 6.04021
152 1 5.3366 1.11805 1.34322
153 1 9.19886 5.3857 0.7639
154 1 5.77608 8.24329 7.65721
155 1 5.31553 7.91628 6.83295
156 1 3.83136 2.23307 0.852171
157 1 7.97492 1.80283 7.32426
158 1 1.44902 8.38579 6.69382
159 1 7.6441 8.87966 6.34204
160 1 7.36873 1.85188 9.21767
161 1 8.74576 3.84519 1.1891
162 1 9.16388 3.61744 0.0197875
163 1 8.14093 1.62752 8.53082
164 1 2.93612 7.52244 6.97884
165 1 0.218902 9.1217 0.292699
166 1 7.76338 7.01449 6.02808
167 1 7.57409 7.81782 0.803182
168 1 5.5921 3.32904 1.27407
169 1 3.39625 4.73578 5.9761
170 1 1.4163 6.54332 8.48701
171 1 9.29459 3.56157 3.31976
172 1 6.15578 9.10527 1.2226
173 1 7.16099 5.60801 3.04798
174 1 1.61983 2.45299 3.74142
175 1 3.61625 0.846757 0.992785
176 1 0.525145 0.86151 4.73217
177 1 3.0908 1.08973 4.19149
178 1 5.56606 7.02505 6.40908
179 1 5.80353 6.0271 0.136663
180 1 4.00347 8.84105 6.86813
181 1 8.18028 4.41873 1.92837
182 1 5.80572 2.09641 3.04967
183 1 4.38188 8.87075 0.411562
184 1 4.04552 4.39434 8.60395
185 1 0.481777 3.76416 5.86747
186 1 7.27921 6.08909 6.02
187 1 5.4786 2.6725 2.0558
188 1 0.235726 7.026 4.40968
189 1 2.57457 1.87699 5.64765
190 1 8.38088 4.17578 3.40265
191 1 5.79706 3.74132 7.88304
192 1 7.54541 5.35446 6.73386
193 1 5.43003 8.72947 6.15113
194 1 3.78307 0.333192 5.49669
195 1 8.49582 8.28894 0.278374
196 1 5.43318 8.31717 3.56172
197 1 2.3392 4.96611 4.36091
198 1 2.79147 5.50195 6.47754
199 1 1.50178 7.41298 5.74681
200 1 3.90436 8.77206 4.11022
201 1 6.29473 7.64889 8.42865
202 1 0.720575 3.02633 5.23677
203 1 2.1366 6.39851 6.86001
204 1 5.59989 3.44502 6.39537
205 1 8.9573 6.44562 7.16736
206 1 5.73895 1.56544 4.10531
207 1 6.54331 1.12893 9.15873
208 1 7.92561 5.3123 5.77195
209 1 6.37389 0.742039 1.92028
210 1 0.173015 4.90181 7.70193
211 1 3.63506 2.11264 2.84595
212 1 4.70106 8.05495 2.19412
213 1 3.82323 0.512963 6.55684
214 1 8.7893 6.33402 0.0368529
215 1 1.8979 7.41616 6.69695
216 1 4.14311 2.61192 8.21579
217 1 6.62736 3.1277 1.89398
218 1 3.93045 2.49541 1.9665
219 1 4.73524 5.92659 0.67027
220 1 8.23643 2.31311 0.120947
221 1 2.2137 0.7815 5.65446
222 1 4.68852 3.26698 2.27567
223 1 7.21225 6.39436 2.20839
224 1 7.39766 4.881 0.558388
225 1 1.62027 3.10397 4.60679
226 1 5.75031 5.81421 7.36433
227 1 3.78526 1.50606 1.72671
228 1 7.01039 4.62813 8.69328
229 1 2.17678 0.671509 3.51894
230 1 2.08513 8.73855 0.853919
231 1 1.41687 4.40215 6.90485
232 1 5.00805 6.68148 7.2852
233 1 6.75674 8.76959 7.01915
234 1 1.09939 4.31265 9.32193
235 1 8.88656 6.16482 4.42792
236 1 2.14796 7.4143 9.03847
237 1 7.14758 1.93183 6.27555
238 1 5.77405 7.84295 9.3399
239 1 2.30733 6.38222 5.83306
240 1 4.61033 9.36324 6.02255
241 1 6.60212 4.78546 3.3747
242 1 4.66285 3.08228 6.6457
243 1 5.41554 8.43411 1.49642
244 1 6.58761 3.73364 0.957973
245 1 7.82494 2.74237 2.15134
246 1 8.96204 5.45186 8.41718
247 1 8.35751 1.33904 1.47373
248 1 8.15797 5.84324 7.71925
249 1 1.30891 6.48003 7.38892
250 1 2.94364 0.0364778 4.01502
251 1 1.46609 8.19007 2.99243
252 1 4.91248 4.38645 4.30867
253 1 0.721776 5.60787 6.01703
254 1 6.65984 1.92048 4.47605
255 1 7.67904 6.91882 0.316412
256 1 8.50445 4.79066 6.42242
257 1 3.37092 9.23549 0.612987
258 1 5.63863 0.442354 4.26806
259 1 4.89434 4.98598 6.67845
260 1 4.4991 8.65694 8.70467
261 1 7.27154 3.92663 0.0736884
262 1 4.78269 2.24637 2.66579
263 1 6.45233 2.75068 6.36995
264 1 7.15284 5.49356 5.06078
265 1 7.52311 3.4542 4.42442
266 1 7.98306 5.37147 3.51379
267 1 3.73657 0.689425 2.5077
268 1 5.40105 3.97665 9.27832
269 1 1.83454 4.90162 8.7198
270 1 8.55293 0.350549 7.32117
271 1 2.17206 2.36469 0.585462
272 1 5.97001 1.73961 5.8398
273 1 8.50071 5.05113 2.65048
274 1 5.82956 6.85466 8.95098
275 1 3.26263 6.30291 0.207817
276 1 9.11431 7.83875 2.56442
277 1 7.50326 4.45713 3.87946
278 1 1.93925 1.7741 7.62865
279 1 0.827422 0.474407 0.675631
280 1 6.32307 4.46491 0.205879
281 1 6.26829 7.74678 3.62895
282 1 4.56009 8.92508 1.41741
283 1 8.58418 8.47132 4.68851
284 1 5.11715 7.86986 8.46407
285 1 3.62839 5.32767 3.50814
286 1 0.738983 9.22666 6.84558
287 1 4.14341 5.96266 4.87601
288 1 0.964992 1.39269 2.0833
289 1 6.29068 3.05083 2.93371
290 1 2.21733 8.81934 3.65165
291 1 3.17803 9.14455 6.36516
292 1 2.34132 2.8721 5.41953
293 1 3.83629 0.123459 3.31471
294 1 2.76378 5.51412 9.14396
295 1 4.22022 2.90102 5.03348
296 1 5.57837 4.78715 7.53568
297 1 8.07736 4.91866 8.44631
298 1 3.14082 6.51172 4.92236
299 1 7.17925 8.53597 1.4655
300 1 6.61782 4.01623 2.66987
301 1 0.0412477 2.94519 6.76005
302 1 6.26139 9.29586 6.21943
303 1 4.19408 6.20529 6.64766
304 1 7.75339 2.45812 3.94918
305 1 2.73831 0.734269 0.368876
306 1 8.82895 6.94307 2.90602
307 1 5.60427 7.25521 1.722
308 1 5.71696 0.987176 3.16899
309 1 2.43863 4.46079 7.08419
310 1 2.09382 1.02761 4.57692
311 1 5.67447 1.17482 0.285777
312 1 0.445019 3.46677 1.42649
313 1 7.38863 3.77119 1.97083
314 1 5.13196 4.39836 8.35368
315 1 3.97207 3.81582 6.8014
316 1 1.86765 0.786258 2.16976
317 1 1.54169 1.9247 9.24673
318 1 9.00399 6.45142 8.17505
319 1 2.21786 8.9419 7.07266
320 1 7.18685 0.111811 3.83337
321 1 3.64418 4.14465 3.60462
322 1 9.15382 7.41703 7.54112
323 1 4.52894 8.57231 3.26667
324 1 6.89448 4.57501 1.56026
325 1 6.02947 4.81203 2.35497
326 1 0.627913 7.01092 5.41708
327 1 4.24161 6.06833 9.09556
328 1 4.8439 4.16659 0.900167
329 1 1.52592 3.54701 1.83059
330 1 3.05501 2.74133 1.30665
331 1 4.07037 3.5929 7.85154
332 1 0.548881 1.89209 8.71624
333 1 5.06642 5.15519 3.1397
334 1 3.66816 6.87659 7.38911
335 1 4.57988 2.9673 1.28876
336 1 7.96171 6.29992 5.26546
337 1 5.58182 7.23599 7.86385
338 1 8.61817 1.7782 5.26239
339 1 7.46335 6.7115 7.92281
340 1 7.82328 7.23709 2.70951
341 1 -0.00683321 8.20134 0.816314
342 1 4.4894 7.34078 7.80816
343 1 2.42416 5.29427 2.55634
344 1 5.63815 9.35352 5.31485
345 1 7.33251 7.75597 3.49996
346 1 9.30362 4.66989 9.3293
347 1 2.1342 3.42331 0.877946
348 1 5.65639 2.9929 8.65505
349 1 5.02906 3.15473 0.43816
350 1 5.37963 7.28 3.00689
351 1 8.13193 3.27324 0.416241
352 1 4.19122 7.00326 0.27418
353 1 0.0721763 3.34221 4.41029
354 1 0.900607 8.77314 8.53613
355 1 7.42642 5.00583 7.67812
356 1 1.11072 4.42621 7.99058
357 1 9.05036 8.9356 2.51577
358 1 5.27839 5.62904 2.08994
359 1 3.3797 2.18968 8.86436
360 1 3.97106 3.94889 4.55452
361 1 1.34529 2.40599 2.41529
362 1 5.75776 4.10696 3.31757
363 1 7.65849 5.7691 0.135438
364 1 1.14033 1.6979 0.911927
365 1 1.47256 3.72544 8.65318
366 1 6.33329 5.88245 6.4249
367 1 0.460314 5.69207 1.56496
368 1 2.20288 7.74397 1.25199
369 1 6.3319 3.80381 8.75829
370 1 5.98444 1.74649 1.98207
371 1 9.39509 7.54063 3.51065
372 1 2.30819 4.55295 6.09072
373 1 7.00266 9.35632 9.05586
374 1 6.04349 6.71102 4.60367
375 1 5.86722 6.37031 5.52402
376 1 4.16376 2.62794 9.30856
377 1 1.2912 5.58232 8.01643
378 1 6.32461 9.05872 2.25505
379 1 8.51678 4.93003 7.45367
380 1 8.15429 6.08555 2.66555
381 1 3.25629 0.742817 8.91268
382 1 6.70248 7.20915 2.75563
383 1 6.63758 5.33837 9.25649
384 1 7.15651 0.153378 1.57031
385 1 5.05544 0.0696665 9.2643
386 1 8.49369 0.889634 3.19087
387 1 0.159401 9.20299 4.39086
388 1 8.19392 1.32065 0.416314
389 1 8.25984 2.84517 4.8403
390 1 3.09344 4.8827 1.7214
391 1 4.27685 0.341123 8.56568
392 1 9.21175 2.52762 5.04811
393 1 3.66949 8.11206 0.134297
394 1 8.85192 4.2203 8.15722
395 1 7.64995 8.30542 7.30455
396 1 3.54399 3.06038 3.94387
397 1 5.56511 5.03558 0.520701
398 1 7.69944 5.3883 2.05836
399 1 0.526566 3.3493 2.44383
400 1 7.31848 9.24142 2.57492
401 1 5.0858 1.51448 5.11022
402 1 0.36991 0.97768 3.654
403 1 8.69103 5.80261 1.82895
404 1 6.99944 7.00818 4.24353
405 1 3.24277 0.0875623 7.37421
406 1 4.72569 1.93078 1.64576
407 1 5.09233 1.2471 2.30923
408 1 1.35216 2.78422 1.09405
409 1 2.71866 3.54088 3.25899
410 1 0.454999 1.66544 7.60729
411 1 6.02828 1.08417 5.00377
412 1 7.60363 1.94007 4.95102
413 1 3.18958 7.20292 9.15136
414 1 8.45495 4.06703 4.46437
415 1 1.71761 3.01419 9.33959
416 1 7.33379 1.14505 1.45087
417 1 1.32976 6.18923 5.29469
418 1 5.06996 0.328223 0.84145
419 1 7.54604 3.38642 3.32011
420 1 0.747668 1.87435 5.24826
421 1 6.5112 8.65541 5.30642
422 1 4.54973 3.28168 3.88776
423 1 8.86606 2.94508 1.82802
424 1 7.25095 0.895774 4.62338
425 1 1.81298 2.08595 4.78648
426 1 8.55062 0.644621 8.58663
427 1 6.49282 4.99043 7.02253
428 1 3.96569 0.767519 7.58868
429 1 4.82534 6.83196 1.07838
430 1 2.98479 8.33605 4.37466
431 1 9.32535 2.04652 6.20151
432 1 5.66965 0.844788 7.01134
433 1 3.73585 8.6644 7.94429
434 1 5.62977 6.13374 1.19715
435 1 0.323091 2.31123 2.42689
436 1 9.13166 1.77232 0.850501
437 1 7.36713 5.88326 1.08277
438 1 8.35939 0.271575 0.10701
439 1 4.39782 7.55918 3.15872
440 1 0.798945 5.83102 2.92321
441 1 6.76634 2.63055 3.72739
442 1 6.4472 3.39206 7.18572
443 1 3.79457 6.41512 1.06261
444 1 7.83567 6.38815 6.94479
445 1 4.94637 1.05235 9.07133
446 1 7.66852 4.30804 6.96184
447 1 3.31334 5.95498 2.83883
448 1 7.08631 7.98128 6.25256
449 1 9.36025 9.29634 8.62506
450 1 2.01745 4.01771 0.0446661
451 1 5.28453 9.16056 8.12795
452 1 6.55809 6.95318 6.12488
453 1 4.05806 7.07345 1.92165
454 1 4.80782 6.6475 5.72631
455 1 6.78264 5.10653 5.99585
456 1 7.63859 6.16195 4.35111
457 1 5.94028 7.99258 2.52229
458 1 0.15664 6.41946 2.22934
459 1 0.155846 7.41721 1.67277
460 1 7.5937 0.894561 9.09366
461 1 0.697518 4.56567 4.05015
462 1 3.86606 8.17946 1.74942
463 1 2.25952 0.715529 1.24053
464 1 8.93733 3.89717 6.38186
465 1 8.76018 8.37173 7.56687
466 1 6.99896 8.51821 4.32202
467 1 6.51893 2.65634 1.01822
468 1 8.08368 9.32486 3.2038
469 1 1.23023 2.35967 7.11557
470 1 1.15292 1.00683 8.01696
471 1 1.952 7.30754 7.7334
472 1 4.45384 5.58581 5.85438
473 1 9.14123 3.19315 8.42902
474 1 5.86974 8.83537 8.96817
475 1 2.87589 1.54789 8.30138
476 1 0.208362 0.919912 8.37384
477 1 7.32551 7.69954 8.05262
478 1 0.733547 9.32618 3.43568
479 1 1.36268 5.4944 2.07691
480 1 5.23235 5.98038 6.4327
481 1 3.52966 7.48947 1.03434
482 1 5.42588 7.26436 4.03547
483 1 4.84655 5.13581 1.34936
484 1 7.6996 3.96942 1.02264
485 1 8.52105 5.36221 9.35315
486 1 0.959316 3.62002 3.83972
487 1 0.612943 4.97006 5.05093
488 1 6.60963 3.78374 3.72791
489 1 0.525789 8.31576 2.07387
490 1 7.34491 6.56676 3.3317
491 1 6.1431 6.72778 3.50112
492 1 1.48478 6.73479 0.213329
493 1 7.58146 6.89731 1.37563
494 1 6.04705 3.31315 5.44371
495 1 2.25516 2.47264 2.95608
496 1 3.27525 4.21318 2.47959
497 1 7.2151 5.80052 8.54555
498 1 6.92791 1.80356 8.17416
499 1 4.31143 2.35828 3.60562
500 1 4.70795 5.00546 9.38671
501 1 6.81794 4.05976 6.38769
502 1 9.18484 4.01526 2.36547
503 1 3.53038 7.99688 6.07779
504 1 3.68421 7.73479 3.83997
505 1 7.71154 2.72433 8.71846
506 1 1.74081 5.4671 6.09903
507 1 6.57087 0.351381 7.21682
508 1 4.51477 5.70627 3.92967
509 1 3.80616 3.27775 0.612384
510 1 4.99477 4.52527 2.29458
511 1 5.03173 0.828164 7.95413
512 1 7.01514 6.86777 8.8663
513 1 0.676968 7.43755 0.620752
514 1 1.36097 5.35986 3.93264
515 1 7.12522 7.68802 5.20313
516 1 2.31622 7.63322 2.20896
517 1 8.30053 2.36911 1.13146
518 1 0.23822 3.78071 7.49522
519 1 2.90665 3.64169 6.1794
520 1 2.18227 0.501489 7.73306
521 1 8.49988 4.50798 5.42399
522 1 4.80736 6.88751 8.83126
523 1 4.13889 9.1031 2.35394
524 1 0.747682 0.462769 9.08757
525 1 8.46269 2.94824 6.4539
526 1 4.94718 1.85844 8.48285
527 1 8.1634 1.34616 4.2188
528 1 5.83561 4.42217 6.31267
529 1 7.44048 4.44975 5.24145
530 1 5.78563 9.05721 7.07381
531 1 8.04073 0.0940448 4.55797
532 1 2.55553 7.02071 0.586708
533 1 4.61496 8.02069 4.24844
534 1 7.77551 7.86462 4.48517
535 1 8.80778 1.23592 7.72198
536 1 0.367225 8.09276 4.26033
537 1 0.704895 3.05105 8.86169
538 1 2.01653 7.97399 4.1915
539 1 2.11264 9.14328 5.73437
540 1 0.350273 2.70922 7.75119
541 1 6.50755 0.889373 3.9359
542 1 0.548066 5.1174 8.69658
543 1 3.0036 8.25661 8.7704
544 1 9.09955 5.86289 3.06914
545 1 6.35308 5.34025 8.04359
546 1 0.311649 6.02366 5.00273
547 1 8.50575 6.10493 6.17556
548 1 0.337801 8.18616 6.92663
549 1 2.91516 2.13602 6.80726
550 1 9.17834 8.048 6.03665
551 1 6.53849 5.61691 2.07505
552 1 1.37066 4.2476 1.01684
553 1 1.07305 9.09692 5.86453
554 1 9.09146 4.76996 1.62891
555 1 6.68036 8.70912 3.32973
556 1 1.45263 0.140236 4.98845
557 1 0.708255 5.31053 0.344904
558 1 0.173518 5.10912 2.408
559 1 3.15961 5.92987 7.47622
560 1 3.37169 0.00234147 1.67772
561 1 4.17332 1.35475 4.34106
562 1 0.295421 9.0386 1.31254
563 1 3.99503 4.95693 4.48235
564 1 7.69047 2.62758 5.81459
565 1 7.92385 2.8168 7.38717
566 1 4.44965 0.612251 1.73702
567 1 8.75275 5.51333 5.16741
568 1 3.04909 3.91547 0.154692
569 1 8.86287 2.82318 2.81269
570 1 5.79514 4.44628 1.40062
571 1 2.13049 4.16343 5.05616
572 1 1.11052 8.27877 1.14375
573 1 7.02761 2.31804 7.21999
574 1 6.56801 3.07582 4.62239
575 1 9.08892 2.3958 3.72523
576 1 2.67683 5.35142 5.41611
577 1 4.4583 4.68016 7.61139
578 1 4.55066 6.74556 3.83577
579 1 8.87306 0.633263 4.27379
580 1 2.19114 6.99259 4.96432
581 1 9.21675 1.1208 6.71243
582 1 6.25742 2.06452 0.132923
583 1 0.636579 2.41886 0.279692
584 1 0.674985 4.24739 3.04266
585 1 1.9595 8.47722 8.86411
586 1 4.70913 4.02528 3.25289
587 1 5.2851 8.93134 2.47001
588 1 8.00412 6.5561 8.81483
589 1 2.56023 4.43689 0.956163
590 1 7.17852 7.21184 6.9908
591 1 6.96555 5.95236 7.42029
592 1 7.17957 2.9434 0.202916
593 1 7.33498 1.56051 3.73002
594 1 4.63583 0.502349 3.84126
595 1 6.95652 2.15496 1.85548
596 1 1.27862 6.52799 6.25024
597 1 7.23582 2.29145 2.86193
598 1 0.136345 1.1543 5.62327
599 1 2.96033 0.844144 1.8718
600 1 4.04131 7.79167 8.61265
601 1 9.3731 1.29885 1.82383
602 1 3.15708 4.47259 5.02268
603 1 1.88577 4.22462 3.7395
604 1 5.16305 2.17616 0.0450386
605 1 3.54381 9.07019 8.99375
606 1 1.57944 1.68701 5.75313
607 1 2.31699 2.79347 7.45097
608 1 8.43201 9.11454 8.15625
609 1 4.56531 7.88387 1.08856
610 1 4.59606 1.2203 6.86253
611 1 2.54731 2.69659 4.22351
612 1 7.42063 2.98731 1.20198
613 1 6.21703 7.92337 1.00943
614 1 9.29443 1.65568 4.48497
615 1 7.71279 7.75418 8.97151
616 1 7.76897 4.02224 7.99628
617 1 3.08903 2.98256 2.37481
618 1 6.44454 6.38018 8.15949
619 1 3.60512 3.46416 8.84404
620 1 0.360481 4.00738 8.5441
621 1 6.43136 0.253098 3.04745
622 1 6.64332 5.90896 3.99712
623 1 1.94361 6.71165 1.42608
624 1 5.37233 8.32237 5.22174
625 1 7.02014 0.599224 8.26128
626 1 8.84213 3.44108 5.46508
627 1 9.25271 4.77272 3.35364
628 1 0.316845 6.59355 3.41545
629 1 6.5992 8.72178 0.340025
630 1 8.78154 9.0284 0.955486
631 1 1.07246 7.40217 3.6461
632 1 4.259 4.01426 0.135658
633 1 1.70034 5.18864 5.12548
634 1 8.09378 0.913918 5.39806
635 1 3.00474 8.47735 1.22015
636 1 6.97008 8.38226 8.69992
637 1 4.24541 4.54044 5.35219
638 1 0.114174 9.05107 7.67774
639 1 5.35726 4.29348 5.34012
640 1 6.7838 4.17516 7.74826
641 1 9.01635 2.08208 7.25325
642 1 3.88447 1.18268 3.41485
643 1 5.9816 0.188302 0.265828
644 1 4.94059 2.12589 4.31813
645 1 5.2763 3.24866 4.66293
646 1 6.16893 6.75713 7.12821
647 1 0.43866 7.09037 9.12352
648 1 7.4595 0.767669 3.10417
649 1 0.705203 2.5525 4.33637
650 1 9.09049 0.748545 0.708658
651 1 6.42763 4.36709 5.37475
652 1 6.86847 6.48459 5.17815
653 1 4.54675 5.35232 8.39383
654 1 6.72351 6.37773 0.401417
655 1 1.2779 5.82285 0.98073
656 1 2.11162 5.95541 4.66837
657 1 3.20747 7.59953 5.12854
658 1 1.28034 9.33998 7.64247
659 1 9.3667 4.88974 5.82948
660 1 0.856151 9.21359 2.33073
661 1 2.10577 2.63813 1.81935
662 1 3.84735 7.87126 7.22761
663 1 0.247089 8.09852 9.17631
664 1 8.56907 2.38687 8.10965
665 1 3.59815 4.8099 0.0687384
666 1 2.17203 4.15744 2.69098
667 1 0.421876 4.39411 6.69993
668 1 3.76589 6.91237 5.6681
669 1 6.79428 2.40839 5.45419
670 1 6.61768 0.931539 6.35934
671 1 8.36323 6.99782 4.47863
672 1 6.64236 4.75776 4.43285
673 1 5.99898 7.80718 5.83819
674 1 1.98562 3.48444 6.80113
675 1 1.05719 6.33664 4.19847
676 1 2.82074 4.6451 3.35846
677 1 6.46461 1.37333 0.916686
678 1 0.736917 3.46194 0.482155
679 1 3.62053 1.83107 7.65182
680 1 0.900687 5.29556 6.97842
681 1 2.87993 0.388693 4.9632
682 1 4.09268 4.51277 1.78883
683 1 8.00868 0.434435 1.03156
684 1 6.69857 1.47331 2.75043
685 1 7.96153 3.81144 6.02895
686 1 2.16398 6.05023 0.542521
687 1 5.75132 5.23081 5.72508
688 1 4.91988 6.59066 2.19
689 1 8.38906 1.8735 6.40552
690 1 8.27793 5.14698 0.999687
691 1 2.95912 6.93814 1.68207
692 1 8.22703 1.94402 3.25597
693 1 1.77039 7.04868 2.95072
694 1 8.81953 8.29182 1.64557
695 1 0.759961 8.09424 5.88368
696 1 8.20603 7.9567 6.37327
697 1 0.295809 8.0495 8.08553
698 1 7.33703 3.23641 6.65422
699 1 2.71418 7.24666 5.93864
700 1 8.63162 1.98532 2.28826
701 1 8.87065 8.44347 3.67114
702 1 1.15526 0.7701 5.82188
703 1 4.62599 1.44147 0.627996
704 1 6.11886 5.66668 4.87154
705 1 5.86983 0.446021 8.71244
706 1 2.25693 6.23745 7.88418
707 1 1.96608 2.50712 6.34288
708 1 2.93821 1.25278 2.91957
709 1 5.06217 4.00222 7.08915
710 1 3.93099 7.0861 4.55004
711 1 7.39067 1.96088 0.811386
712 1 0.847712 6.6976 1.36955
713 1 2.75091 3.87579 4.20717
714 1 7.67169 1.13065 6.37034
715 1 5.36601 7.26949 5.1264
716 1 1.39268 0.637443 6.86893
717 1 4.8952 9.02761 4.47297
718 1 7.93496 8.65518 3.90324
719 1 3.83122 0.359098 4.4668
720 1 6.24754 7.80293 4.72592
721 1 2.13648 5.64373 1.45685
722 1 4.56195 8.23766 6.20957
723 1 2.86059 1.71775 1.04122
724 1 2.53949 1.66756 9.27588
725 1 8.41869 0.362875 6.31183
726 1 8.27138 4.38648 0.231661
727 1 6.13366 1.1546 7.96289
728 1 3.20282 2.80209 8.06355
729 1 3.30774 1.33151 5.29991
730 1 4.44547 7.66079 5.36517
731 1 2.12436 3.93909 7.87236
732 1 2.32651 6.41258 9.04368
733 1 2.89334 0.0347408 2.83345
734 1 2.42531 9.36339 1.8814
735 1 2.78532 6.77407 3.31997
736 1 1.2439 7.53316 1.74952
737 1 2.68993 5.70863 3.65855
738 1 8.95235 6.73057 5.35676
739 1 1.58056 0.262187 8.62703
740 1 1.91375 4.654 1.81839
741 1 7.5919 8.77237 5.12767
742 1 3.24252 2.43445 4.90243
743 1 5.98614 6.38511 2.38919
744 1 5.97672 3.99786 4.47045
745 1 3.72436 3.53896 1.75548
746 1 6.91981 1.34371 5.47703
747 1 7.17712 0.196572 5.55823
748 1 5.51994 8.66783 0.547276
749 1 8.31991 6.35422 3.58398
750 1 6.55561 0.153896 4.70566
751 1 0.833249 2.54996 6.08234
752 1 1.20137 3.32742 7.6979
753 1 7.83893 0.914265 7.85027
754 1 8.27645 3.55524 2.50017
755 1 3.13051 5.91623 1.78489
756 1 2.81387 4.49073 8.66616
757 1 9.03993 4.91708 4.44646
758 1 0.0162108 4.14408 5.03353
759 1 0.855172 4.52627 1.89685
760 1 2.57529 3.73525 1.79427
761 1 1.94326 1.61643 1.62132
762 1 7.54848 4.43619 2.77327
763 1 9.1306 2.93913 0.771493
764 1 3.48234 5.97836 5.76841
765 1 3.06647 7.44457 8.07771
766 1 0.573269 2.78353 3.31322
767 1 2.82769 1.25498 7.32474
768 1 6.0406 3.16609 0.167444
769 1 4.75574 4.11523 6.14347
770 1 1.68767 8.52558 1.96329
771 1 1.89151 1.5358 2.81335
772 1 8.28758 7.70189 5.3139
773 1 4.17742 6.50464 2.87563
774 1 4.11765 0.472711 0.176436
775 1 1.8863 5.06132 0.431372
776 1 0.144134 6.43403 6.13343
777 1 5.07713 6.38719 4.76506
778 1 0.641996 7.3022 2.60822
779 1 5.22734 3.13804 3.10563
780 1 5.39727 0.87841 6.0068
781 1 3.15816 5.61193 4.5305
782 1 1.92589 1.24177 8.61216
783 1 4.14627 1.95605 5.35307
784 1 0.479552 8.45053 3.12429
785 1 6.49719 5.46009 0.952647
786 1 1.1881 0.777217 2.96529
787 1 9.26532 7.70777 5.09892
788 1 8.10017 8.98955 1.83071
789 1 4.78431 0.380443 2.79233
790 1 8.84503 0.395373 1.75304
791 1 7.95461 0.591744 2.1642
792 1 2.0136 1.36159 6.66516
793 1 5.48334 2.50932 6.76865
794 1 8.76967 8.25516 8.60937
795 1 1.9167 6.74132 3.93666
796 1 1.21542 7.3882 4.62565
797 1 0.39781 2.36654 1.3776
798 1 3.07892 1.16764 6.27932
799 1 5.76265 2.29106 4.95069
800 1 3.04108 8.53408 2.23261
801 2 0.452484 1.11228 1.06999
802 2 0.372563 1.92864 3.75998
803 2 4.0346 2.23198 4.41158
804 2 5.56504 3.26681 7.19885
805 2 6.95187 4.88873 2.45146
806 2 1.21374 6.49024 3.34633
807 2 4.30806 3.98758 2.49332
808 2 4.37867 1.79183 9.28558
809 2 3.19739 4.7471 4.12593
810 2 9.35528 4.12208 4.07312
811 2 0.472218 0.14724 5.18136
812 2 5.55663 1.19514 8.51209
813 2 6.68162 8.24941 7.80327
814 2 9.0471 0.370804 7.94802
815 2 4.8259 3.943 1.72466
816 2 3.91467 6.85675 8.77163
817 2 4.21288 1.38848 2.68906
818 2 7.14066 1.29116 0.421976
819 2 2.7167 9.33149 1.0726
820 2 2.7105 4.7062 0.129924
821 2 2.99344 0.412525 5.8923
822 2 1.90905 0.138123 0.700805
823 2 5.03572 1.13078 4.27255
824 2 7.75603 2.40486 6.65008
825 2 5.73416 2.59613 5.86068
826 2 3.81475 8.42295 0.931449
827 2 2.41039 0.571314 8.82195
828 2 8.08573 9.07288 7.38784
829 2 0.38849 2.16111 6.90345
830 2 0.219546 8.77153 6.28133
831 2 9.28737 6.9801 0.462723
832 2 4.26135 4.77 0.664447
833 2 2.77692 2.1158 7.67264
834 2 6.94256 6.42398 6.7286
835 2 6.63277 7.20328 7.78227
836 2 1.40007 0.990627 1.35567
837 2 6.04682 4.23145 7.10161
838 2 2.7904 1.8725 4.5061
839 2 4.10299 4.71923 6.43705
840 2 4.70783 2.26906 0.760004
841 2 8.93576 0.994316 5.04056
842 2 1.94678 3.32803 3.71266
843 2 6.2665 9.36403 3.82567
844 2 3.84914 5.56306 0.350891
845 2 3.53367 0.0524588 8.28068
846 2 0.184524 7.30721 6.06775
847 2 7.60631 4.98185 9.18095
848 2 7.86917 8.31375 8.16048
849 2 5.15335 5.82971 5.49425
850 2 8.10124 2.7889 3.12373
851 2 3.2772 5.07596 2.61196
852 2 1.46752 4.6283 4.44255
853 2 6.86587 3.97118 4.77876
854 2 2.10264 1.35398 0.667061
855 2 4.16879 0.154503 1.03975
856 2 6.99117 0.247451 6.42078
857 2 7.83814 6.98776 3.87914
858 2 0.621421 6.11573 6.78575
859 2 9.1123 1.80322 8.39336
860 2 4.72736 7.26615 4.55476
861 2 4.91698 3.74965 7.87958
862 2 0.700652 7.89022 5.12499
863 2 4.35615 9.1927 7.80464
864 2 9.0097 6.83553 3.87011
865 2 3.17358 3.82664 8.22216
866 2 7.10168 3.24756 2.61221
867 2 7.85054 2.00068 1.7124
868 2 0.100107 2.9418 5.83122
869 2 6.52926 5.85184 5.61302
870 2 4.31963 4.68196 3.74411
871 2 2.78206 6.3871 4.19927
872 2 4.89513 9.0059 5.33499
873 2 6.32074 0.465439 5.50615
874 2 8.86363 7.68808 4.24245
875 2 5.12383 7.65734 5.96596
876 2 1.29694 1.17159 5.00984
877 2 7.97576 0.530859 3.8242
878 2 9.38001 5.78281 9.27609
879 2 8.98788 5.70118 7.597
880 2 3.08798 3.59353 0.986203
881 2 5.33185 7.81401 0.743508
882 2 1.93951 3.20039 8.21213
883 2 8.0081 0.0865225 5.5644
884 2 9.24711 5.73678 5.8383
885 2 5.45506 1.5664 6.56178
886 2 5.44135 0.101307 6.4163
887 2 0.598615 0.685513 6.59935
888 2 6.35417 8.2732 1.75043
889 2 8.37004 6.70636 7.65355
890 2 8.62023 2.49693 5.781
891 2 6.66754 6.35006 2.87621
892 2 3.15643 2.74015 3.23017
893 2 8.95584 8.91062 9.26699
894 2 1.48109 7.22596 0.922142
895 2 3.78553 5.23483 5.23958
896 2 6.37528 8.45423 6.30868
897 2 4.44931 1.58145 7.86128
898 2 1.50698 1.32071 3.60285
899 2 3.28889 4.4592 6.74615
900 2 4.92975 4.91327 5.77547
901 2 5.7047 0.357583 2.54853
902 2 2.24226 8.01344 7.16666
903 2 2.22171 8.54871 2.61142
904 2 0.695334 0.21371 8.23802
905 2 2.63652 2.91251 6.61868
906 2 5.29032 3.65904 3.92074
907 2 0.994193 5.65502 4.70128
908 2 0.852939 8.62762 7.63691
909 2 8.02191 3.66739 5.1861
910 2 4.9079 2.6459 8.75303
911 2 3.8122 8.02571 4.69838
912 2 1.23543 1.39706 7.19224
913 2 5.82324 5.28186 1.45098
914 2 3.06813 0.76057 8.0031
915 2 1.71889 8.32092 5.8589
916 2 3.5775 7.22147 6.44709
917 2 0.78767 8.49808 0.445188
918 2 7.61434 2.20954 8.02099
919 2 5.93303 8.76007 2.98024
920 2 1.03194 7.61719 6.5047
921 2 7.27755 5.31241 4.05442
922 2 8.07716 5.74541 8.73438
923 2 8.3644 5.67543 6.88864
924 2 2.73216 6.38411 1.12831
925 2 3.31146 9.04674 4.7094
926 2 4.66254 3.74777 5.20816
927 2 8.52604 2.1909 4.32657
928 2 4.16723 2.6343 5.92244
929 2 6.39659 3.98715 1.79703
930 2 4.89508 8.79825 6.8447
931 2 6.46882 6.15724 8.97133
932 2 3.10147 8.54638 7.03637
933 2 5.15183 2.37299 3.50571
934 2 3.12345 7.81226 1.77605
935 2 8.9025 7.86019 6.8291
936 2 3.17282 0.615809 3.47251
937 2 5.04071 6.59263 0.23382
938 2 8.33963 1.14069 6.91909
939 2 8.14934 3.24477 8.15879
940 2 7.77021 8.26262 5.73777
941 2 8.99123 4.36947 7.09458
942 2 1.48195 2.71752 5.45895
943 2 6.37997 2.39845 2.42956
944 2 7.89438 6.14463 1.74816
945 2 3.94524 5.39171 7.75557
946 2 3.71825 1.28274 6.96325
947 2 6.16819 4.46815 8.32898
948 2 3.30719 6.76856 2.56387
949 2 1.06934 5.04147 1.29652
950 2 3.62816 6.9868 3.41193
951 2 8.68404 1.16986 5.97993
952 2 6.25091 7.14006 5.36298
953 2 1.0717 1.20851 8.87133
954 2 2.29159 7.9359 8.33156
955 2 5.44196 8.05965 4.37762
956 2 5.02511 5.73985 9.09782
957 2 1.67511 9.26862 6.50068
958 2 6.04141 0.606378 1.06907
959 2 4.31369 5.59633 3.01191
960 2 7.66093 4.64229 6.17503
961 2 2.06756 5.76054 8.62243
962 2 6.49173 1.76996 3.57138
963 2 7.40538 2.74269 4.92384
964 2 5.71141 5.32456 6.63126
965 2 4.97553 2.40531 5.17773
966 2 7.48752 8.32346 0.0972868
967 2 6.99488 7.06693 0.818156
968 2 8.84385 1.40576 3.77213
969 2 7.50005 6.92382 4.91034
970 2 9.18947 0.441573 9.26937
971 2 5.83034 3.8664 0.66028
972 2 2.84951 6.74232 7.37776
973 2 8.59063 1.10434 2.29531
974 2 7.85391 1.74529 5.70497
975 2 9.29462 7.28329 8.46368
976 2 9.25022 0.204647 6.89382
977 2 3.92027 8.78828 6.05283
978 2 1.84741 4.83304 7.76667
979 2 8.12911 3.4372 1.59869
980 2 2.05269 0.194817 4.16385
981 2 2.02813 5.05916 3.46871
982 2 8.80767 5.51725 3.84155
983 2 9.0872 3.10683 7.58127
984 2 7.12816 0.851363 2.2626
985 2 4.45986 6.05111 1.49943
986 2 3.94598 8.29341 2.72184
987 2 5.80551 0.356812 7.76251
988 2 0.61847 5.11879 3.32764
989 2 8.06148 8.48746 1.15173
990 2 1.26942 2.1006 1.66163
991 2 8.66523 9.14849 4.07295
992 2 7.22317 3.40884 8.70854
993 2 1.39582 4.1341 2.47092
994 2 2.21401 3.22339 2.43375
995 2 8.5387 2.94734 8.95808
996 2 5.86388 4.80675 4.85687
997 2 0.960267 2.89302 1.87953
998 2 8.60928 0.287978 2.65176
999 2 7.48152 8.62053 3.15167