#bin. KALJ data file T=0.5

1000 atoms
2 atom types

0 9.4 xlo xhi
0 9.4 ylo yhi
0 9.4 zlo zhi

Masses

1 1.0
2 1.0

Atoms

1 1 3.74893 7.33657 2.09715
2 1 4.22425 4.91553 2.72166
3 1 2.58318 3.98148 6.09297
4 1 3.44809 4.01339 0.49154
5 1 2.09336 9.09779 2.48861
6 1 3.86599 6.65619 4.83488
7 1 6.20572 5.71586 7.54454
8 1 8.49209 1.8908 6.7488
9 1 0.932368 6.65471 5.81298
10 1 9.01177 5.65438 0.238142
11 1 2.1226 0.731042 5.63651
12 1 7.82463 2.56825 7.11139
13 1 8.19682 8.36968 7.83674
14 1 3.4245 5.75059 7.32769
15 1 8.27004 8.211 8.92836
16 1 8.54063 6.43866 8.26494
17 1 5.86441 0.0920043 1.81161
18 1 6.87313 7.71029 5.1812
19 1 9.15793 7.33137 1.80556
20 1 7.22052 3.16042 1.27205
21 1 8.56452 2.09523 0.0531746
22 1 6.38371 8.99105 8.96686
23 1 8.11231 9.3342 9.23378
24 1 2.1797 5.41166 9.0915
25 1 3.61928 8.52577 1.35626
26 1 7.52512 0.674686 2.95641
27 1 6.44794 3.41492 8.59175
28 1 5.62983 3.40776 2.37566
29 1 1.28601 6.06032 7.54664
30 1 0.133229 1.2818 4.38355
31 1 9.26982 1.4297 1.69689
32 1 7.08254 5.36831 5.24114
33 1 7.8645 7.32049 0.811865
34 1 2.76052 8.46742 0.751403
35 1 4.32019 5.30792 5.71908
36 1 3.11017 8.99754 3.0093
37 1 7.80513 4.68133 8.41748
38 1 0.324173 0.493879 1.40689
39 1 5.18676 7.80322 3.96036
40 1 4.25018 9.32703 7.65735
41 1 3.80712 0.877955 6.22288
42 1 1.47172 0.24285 3.99227
43 1 5.28491 0.251494 8.95954
44 1 3.90334 9.42077 3.60702
45 1 1.77921 7.12771 9.04449
46 1 0.119767 3.82961 3.2178
47 1 6.26977 8.54329 1.39818
48 1 4.46085 1.35699 5.46513
49 1 1.73574 3.31545 6.41372
50 1 6.98998 1.55499 4.45374
51 1 6.62288 6.70954 2.6526
52 1 4.77033 7.96319 0.866687
53 1 8.86594 9.37267 0.783297
54 1 7.13161 9.37709 4.36044
55 1 0.878968 5.26182 3.08037
56 1 3.48419 7.49042 4.45882
57 1 3.5814 4.52771 5.68783
58 1 4.45354 4.96513 3.78813
59 1 5.0745 6.39188 6.95096
60 1 2.45397 1.62346 5.29355
61 1 3.78853 5.73274 3.27944
62 1 4.40016 8.23135 1.87187
63 1 0.264505 3.51956 6.62301
64 1 1.21974 8.48617 2.80729
65 1 6.96549 1.56256 2.27927
66 1 1.36825 2.10268 8.73745
67 1 9.31209 4.57954 6.64964
68 1 4.77578 7.53524 7.31132
69 1 9.02129 6.57223 3.39863
70 1 8.66638 5.55024 3.80123
71 1 7.28341 7.94084 7.52402
72 1 3.09073 2.03363 9.0812
73 1 3.90101 5.91258 2.28141
74 1 6.15299 1.84812 2.89314
75 1 4.54724 2.886 2.59693
76 1 7.27195 6.07043 7.54505
77 1 1.56021 4.16465 5.67398
78 1 5.26392 7.13401 1.28106
79 1 6.81202 0.191702 8.1094
80 1 0.218676 2.21183 9.38531
81 1 4.2498 4.68981 7.48783
82 1 4.1921 9.34892 1.52848
83 1 5.77833 7.29187 5.13167
84 1 1.60411 5.24864 8.24551
85 1 8.18279 2.62256 8.54761
86 1 5.17595 5.40167 7.51041
87 1 1.45741 3.55844 4.76426
88 1 8.57628 0.751927 1.32684
89 1 5.68003 6.998 2.48562
90 1 5.74824 5.94768 2.78057
91 1 0.759482 6.69566 3.98926
92 1 8.32821 0.872069 0.216001
93 1 2.56226 1.19908 6.41234
94 1 2.72377 4.57135 4.45429
95 1 7.57312 7.13245 4.61077
96 1 5.80617 7.12579 7.17258
97 1 1.09079 3.97966 8.78224
98 1 5.47059 8.03805 1.85332
99 1 6.85813 8.97235 6.20992
100 1 4.91561 5.65405 9.19546
101 1 5.41429 4.79809 0.011234
102 1 1.95655 2.83196 2.54765
103 1 4.44461 6.29116 3.84203
104 1 7.11974 6.07783 6.34229
105 1 0.368376 6.09797 4.76592
106 1 8.59802 8.21715 5.38187
107 1 4.17587 3.98791 3.39932
108 1 8.78227 8.88695 3.41758
109 1 6.9531 4.31417 8.80551
110 1 8.67531 7.50944 7.83447
111 1 6.31433 8.30113 0.414548
112 1 7.87461 3.08168 0.0612332
113 1 3.20869 4.97423 9.40245
114 1 6.49472 3.73944 1.95158
115 1 4.89832 1.5544 2.47948
116 1 6.08043 2.22153 9.16739
117 1 8.85735 9.03124 8.53909
118 1 8.61642 3.64478 0.667395
119 1 3.90948 2.6563 6.55499
120 1 1.91239 8.41589 7.51177
121 1 3.61188 1.69591 5.09156
122 1 2.84653 8.2379 3.80441
123 1 3.96639 6.2048 0.222602
124 1 0.0443283 9.11928 6.87289
125 1 6.12488 4.70838 6.09844
126 1 7.83138 4.39809 1.21261
127 1 4.45782 8.69504 5.34791
128 1 7.66576 6.28017 5.46237
129 1 8.77977 7.458 0.268845
130 1 3.44332 2.38901 0.760125
131 1 6.99943 1.58393 3.38902
132 1 7.95115 8.23626 2.69664
133 1 5.35915 2.48929 3.14294
134 1 0.455517 8.74031 8.84033
135 1 8.52532 7.81008 4.28058
136 1 6.99316 1.94395 7.92459
137 1 2.65492 4.99572 6.63251
138 1 5.22772 8.08073 5.6202
139 1 2.21366 2.16659 6.08058
140 1 0.37949 4.85278 8.70947
141 1 2.04349 8.987 3.46625
142 1 5.6997 0.984375 5.87036
143 1 4.43165 2.544 0.831816
144 1 3.6468 0.838693 4.18957
145 1 9.1607 2.27733 8.4114
146 1 1.36758 2.186 2.00117
147 1 7.20523 2.90357 8.18142
148 1 0.939945 7.6925 4.44874
149 1 2.63901 0.658072 2.64979
150 1 0.824372 8.61739 5.05245
151 1 7.16211 7.83397 6.49767
152 1 6.14577 -0.0395607 5.52185
153 1 2.26214 6.31782 0.382354
154 1 4.07633 5.90652 1.29891
155 1 7.96969 0.450528 4.7253
156 1 7.352 0.688876 6.39199
157 1 6.38125 5.09124 9.29692
158 1 3.55917 7.97279 8.52251
159 1 2.09683 6.67459 7.59768
160 1 6.08356 6.30064 6.6178
161 1 1.39456 2.3406 6.71909
162 1 0.189633 3.50748 2.14852
163 1 6.59819 0.859552 7.32967
164 1 2.73756 0.142677 7.91663
165 1 1.37861 6.81465 4.86429
166 1 6.49916 6.30748 8.97606
167 1 4.33715 8.87715 0.602536
168 1 7.29673 4.14565 2.33006
169 1 1.72798 4.73618 0.513537
170 1 8.41034 2.53412 3.13271
171 1 5.44631 9.12156 7.05101
172 1 3.58557 7.07896 9.10977
173 1 3.24807 5.25274 1.7537
174 1 4.3363 4.5679 9.31615
175 1 7.24709 3.94963 7.84775
176 1 2.86855 1.66919 4.28487
177 1 5.98456 6.45551 1.6649
178 1 6.22003 3.62485 0.940096
179 1 5.88075 3.36648 3.48793
180 1 0.66475 0.660929 6.46965
181 1 8.72347 5.78027 1.19813
182 1 3.14289 9.06732 4.33426
183 1 3.75993 4.90776 0.924096
184 1 5.43502 6.38566 8.03933
185 1 9.24851 7.94574 6.82975
186 1 0.226362 2.43182 1.74135
187 1 1.75895 2.4206 4.77958
188 1 1.23008 6.35558 0.158242
189 1 3.11059 5.3188 5.16495
190 1 4.60113 5.1516 1.88896
191 1 5.08861 3.31265 5.07174
192 1 3.32076 1.88853 6.06784
193 1 3.88249 1.99284 2.77294
194 1 1.96678 8.73204 4.43473
195 1 5.85533 8.31265 4.71396
196 1 1.19965 0.207777 2.86112
197 1 5.505 4.20633 1.76164
198 1 7.44001 0.718458 9.17399
199 1 5.10402 8.876 4.34643
200 1 1.9029 9.06429 8.3602
201 1 4.88027 1.80176 3.75158
202 1 2.77459 6.3041 3.14339
203 1 3.67089 1.49989 7.02546
204 1 6.30638 7.52215 1.141
205 1 3.55101 0.772151 7.79788
206 1 4.53654 0.0954776 6.63231
207 1 6.88778 4.85961 2.9828
208 1 0.822742 5.7753 2.06499
209 1 6.20985 0.351593 6.49152
210 1 0.810415 2.38558 7.88716
211 1 6.03478 9.33306 0.74965
212 1 4.74382 7.25757 2.109
213 1 1.98867 6.26279 3.78851
214 1 7.84798 2.52199 1.97987
215 1 5.60335 6.0377 3.79022
216 1 7.68564 3.84605 6.79107
217 1 2.38977 0.310556 6.9477
218 1 2.30873 2.1727 3.39436
219 1 0.389451 4.92762 0.37264
220 1 8.61072 0.639992 8.53667
221 1 5.66174 7.21318 6.17079
222 1 4.96919 6.15859 1.77971
223 1 4.08285 0.556355 0.0964446
224 1 6.22612 5.4617 4.69734
225 1 2.27675 3.28613 7.62625
226 1 2.75084 2.13554 6.99032
227 1 7.95445 5.31335 4.66285
228 1 6.39069 0.759581 8.95947
229 1 8.83203 2.67409 7.42479
230 1 6.79999 0.531787 0.480472
231 1 7.97257 3.8188 5.7771
232 1 6.60098 4.82046 7.89808
233 1 8.97961 9.29541 1.86276
234 1 5.94462 8.42617 3.63671
235 1 7.2136 8.12998 1.02415
236 1 8.33849 3.53488 3.67323
237 1 6.61556 0.674771 3.80961
238 1 7.5415 0.993557 8.1328
239 1 6.96328 5.24451 7.02641
240 1 0.374085 1.14079 8.12006
241 1 2.77192 5.30877 2.94442
242 1 4.84909 4.86275 8.4406
243 1 6.02329 9.33989 4.16169
244 1 7.46391 4.34765 4.65514
245 1 6.55843 4.75232 1.81146
246 1 7.61055 2.24642 3.9084
247 1 5.45682 3.09402 0.216589
248 1 6.26348 8.18407 5.90815
249 1 5.54727 4.20842 5.45999
250 1 5.2147 4.21489 3.46053
251 1 7.52291 2.87923 4.96135
252 1 8.71053 5.7969 5.20829
253 1 2.40249 6.64521 1.30825
254 1 6.03722 3.9983 9.38143
255 1 4.71733 4.02428 2.43225
256 1 0.55741 5.87642 0.722607
257 1 0.0966622 8.62304 4.19202
258 1 3.2987 6.48139 1.64034
259 1 4.39829 2.4338 4.60987
260 1 3.81367 3.55595 2.45995
261 1 0.960933 8.37621 7.90395
262 1 6.94441 1.55392 8.88768
263 1 6.75766 3.48761 5.41925
264 1 6.57017 2.50242 4.56601
265 1 3.17145 2.95123 1.6446
266 1 0.286851 6.84816 0.041433
267 1 6.04727 4.28428 2.76798
268 1 5.73982 0.91398 1.08639
269 1 3.16688 5.76139 0.842747
270 1 8.85924 8.36369 2.27108
271 1 1.71188 8.28834 0.87143
272 1 1.81807 3.10856 0.908364
273 1 9.10683 4.76311 3.32622
274 1 3.53171 2.86511 8.36146
275 1 4.43644 0.452159 8.49647
276 1 9.1968 8.47657 0.250974
277 1 6.65627 2.69652 2.11888
278 1 4.24151 2.43799 5.58541
279 1 0.453673 3.04387 8.67444
280 1 2.51482 1.26117 7.57375
281 1 4.16894 7.86598 2.80679
282 1 1.1187 8.60793 3.92721
283 1 2.14442 6.34665 5.49951
284 1 6.66963 6.6142 5.00587
285 1 0.0142177 0.938886 5.38964
286 1 0.481182 1.7587 5.84287
287 1 4.65443 0.301937 5.57153
288 1 0.632959 6.759 1.86494
289 1 7.91219 1.39015 1.97198
290 1 5.12341 4.14897 7.65633
291 1 8.11786 3.40553 7.74344
292 1 6.87239 3.13815 7.01053
293 1 8.29989 4.56735 4.09351
294 1 1.14343 3.27463 7.39965
295 1 5.50494 3.34525 7.17642
296 1 8.07784 5.62306 9.02223
297 1 9.16895 5.14231 4.60399
298 1 9.03223 3.85059 5.95106
299 1 4.26493 8.53903 6.96888
300 1 1.50902 1.44117 6.15034
301 1 5.92165 9.11702 8.04388
302 1 8.68916 7.46562 6.10225
303 1 4.04819 3.33152 5.02145
304 1 0.850924 6.0705 8.58408
305 1 5.44359 8.12432 7.7907
306 1 1.39162 9.25326 0.836694
307 1 6.06986 1.69019 4.00354
308 1 2.77381 8.61348 8.64511
309 1 0.2392 6.33188 7.44479
310 1 7.8466 6.59642 3.32622
311 1 0.87052 8.37775 0.283906
312 1 3.77598 7.83903 0.421822
313 1 5.19564 6.86084 3.40371
314 1 5.03712 0.337469 0.572136
315 1 5.87482 5.57921 8.54649
316 1 9.37034 3.9504 8.3736
317 1 8.23359 6.35632 4.35909
318 1 8.4761 2.67434 4.41189
319 1 2.50346 1.71427 2.42759
320 1 2.47699 7.15684 4.07074
321 1 0.278519 3.91638 9.34025
322 1 5.3394 9.09406 6.02954
323 1 9.27425 1.33522 8.95299
324 1 9.27637 5.79831 8.59213
325 1 0.883801 7.69042 8.74453
326 1 3.80565 1.8605 3.84432
327 1 2.32481 2.38504 1.68817
328 1 6.2145 3.39818 4.58075
329 1 0.252984 7.63639 0.852721
330 1 4.20267 3.23517 1.61038
331 1 9.19333 0.190906 5.97337
332 1 3.25424 3.03049 7.35109
333 1 1.08549 3.81094 0.532572
334 1 1.7069 6.70151 6.54606
335 1 7.53162 6.06545 1.22954
336 1 7.68351 5.63506 3.6495
337 1 8.33668 0.383038 3.4963
338 1 4.60448 1.12186 4.51225
339 1 6.52055 5.56107 1.12068
340 1 3.32389 7.10413 6.29032
341 1 6.43887 7.2575 9.37475
342 1 0.82567 2.73697 4.42102
343 1 2.4448 8.05371 2.91872
344 1 2.49904 4.2215 9.4235
345 1 9.29763 4.8519 5.63241
346 1 8.9233 3.05267 9.27066
347 1 7.02338 5.51234 8.50963
348 1 8.10585 1.549 3.07307
349 1 2.78979 3.5326 2.37964
350 1 2.27792 4.11674 7.07486
351 1 5.21537 8.88653 1.21024
352 1 4.3768 5.57401 6.7478
353 1 7.70724 7.50164 5.72719
354 1 2.82727 7.03546 8.455
355 1 8.64122 7.74113 3.19831
356 1 6.8177 2.17464 6.82327
357 1 1.53544 4.62777 4.72085
358 1 5.21289 4.08817 6.59656
359 1 1.12476 6.95069 8.05253
360 1 5.43161 2.15302 0.889247
361 1 8.35474 0.195321 6.57885
362 1 1.81009 8.41931 5.41245
363 1 9.15773 6.28984 2.01562
364 1 9.24929 2.94213 3.78171
365 1 4.51154 6.55132 8.64981
366 1 2.34294 9.25364 1.3069
367 1 9.38403 2.73955 6.02719
368 1 4.29616 7.59417 6.31859
369 1 7.42297 7.29367 2.557
370 1 1.741 1.03351 2.39823
371 1 0.464306 9.38177 3.5351
372 1 5.91011 2.63059 5.43782
373 1 5.78282 1.37901 6.92913
374 1 6.98919 9.23901 1.24919
375 1 2.80284 7.85481 9.24028
376 1 4.53501 4.25493 1.31445
377 1 6.52466 9.12988 7.24031
378 1 2.55652 6.0293 2.18378
379 1 6.90351 6.8973 3.62234
380 1 8.03928 4.70524 7.36568
381 1 2.95806 3.16331 0.108758
382 1 4.80764 1.08148 6.4899
383 1 2.80588 1.01553 1.71581
384 1 2.81088 8.22837 4.83415
385 1 4.65587 7.23897 0.0707351
386 1 3.01137 0.360098 5.96602
387 1 9.16313 2.63771 0.847453
388 1 2.9157 1.08192 0.0374944
389 1 4.71925 2.02314 6.78495
390 1 1.1951 5.72333 4.23165
391 1 6.62305 7.77642 4.2
392 1 2.20766 5.57477 1.21192
393 1 4.21118 0.042677 4.66383
394 1 3.32572 3.80126 4.06263
395 1 6.45932 1.53002 0.435888
396 1 2.43556 2.72939 8.60473
397 1 6.70826 5.92878 3.4094
398 1 8.86194 4.65827 0.685128
399 1 7.88644 1.93284 5.0627
400 1 8.35141 3.74832 4.83192
401 1 5.88947 5.83223 0.402508
402 1 9.22186 4.08519 4.22794
403 1 8.69956 1.89661 2.36453
404 1 1.25325 0.22701 1.82323
405 1 2.32753 4.81493 5.56684
406 1 4.41974 2.21568 1.80282
407 1 5.24674 7.93397 2.90313
408 1 1.54276 1.81047 1.04133
409 1 8.49951 7.1037 5.1353
410 1 5.8056 4.42448 8.52887
411 1 5.25422 4.96962 2.64865
412 1 2.84824 5.55991 3.93598
413 1 1.81552 8.09153 6.49817
414 1 7.19228 8.36768 2.04572
415 1 8.13795 8.50074 0.558118
416 1 8.17886 7.78468 1.79699
417 1 8.45921 1.70266 0.988322
418 1 5.53482 2.90969 8.58117
419 1 2.62545 3.22926 3.40254
420 1 7.49681 6.41261 8.5493
421 1 0.0986517 6.70325 6.5126
422 1 6.36974 0.78733 4.81314
423 1 7.67498 5.189 1.82045
424 1 3.82352 2.94897 3.37692
425 1 8.72246 5.01806 2.1787
426 1 9.21986 1.77393 7.50068
427 1 7.23442 2.0552 1.30182
428 1 1.86209 7.9276 3.70173
429 1 4.40172 1.4591 7.69475
430 1 6.79279 9.14547 3.35379
431 1 0.603862 5.32412 7.72939
432 1 0.580377 6.4607 2.97568
433 1 7.53037 4.0275 3.3642
434 1 0.11714 2.65666 2.86064
435 1 6.75566 8.66642 5.04409
436 1 1.50216 7.52887 7.3596
437 1 1.84308 3.95632 2.37696
438 1 1.70578 6.63151 2.12741
439 1 2.92431 3.6713 8.49012
440 1 1.08082 0.8601 0.632933
441 1 5.28345 2.28253 7.68367
442 1 2.70801 8.60607 6.90533
443 1 1.78845 4.14516 1.3751
444 1 8.30623 4.59492 6.41424
445 1 0.811191 8.41267 6.89477
446 1 8.07791 1.49861 8.84634
447 1 0.215549 3.53143 0.977524
448 1 1.02077 7.46459 3.30558
449 1 6.48695 0.758866 2.85314
450 1 1.34856 0.131935 9.22574
451 1 0.529347 4.30022 7.49125
452 1 0.142821 7.44416 2.74981
453 1 4.74883 1.35137 0.968237
454 1 1.17106 7.36433 0.352025
455 1 4.26945 7.36314 3.78152
456 1 2.33303 5.40671 7.52623
457 1 6.48732 4.41784 5.03596
458 1 1.89052 7.67386 4.71722
459 1 6.67784 1.40985 6.24176
460 1 1.92634 3.99872 3.97482
461 1 1.2711 2.51484 5.66343
462 1 7.19054 7.17204 1.59218
463 1 0.92606 1.25887 9.13302
464 1 9.20362 7.84085 8.66028
465 1 8.72337 8.69929 6.28811
466 1 1.62354 0.992649 7.06191
467 1 5.00199 1.32239 8.53912
468 1 6.7665 7.01428 5.90872
469 1 9.14426 0.992332 3.33299
470 1 9.27154 8.9528 5.17013
471 1 8.93031 8.42904 1.21314
472 1 8.77702 1.889 5.70319
473 1 6.23155 3.90922 7.66348
474 1 1.83919 7.43556 5.73474
475 1 8.62648 0.841542 2.45837
476 1 3.14142 4.73952 7.60854
477 1 2.73745 0.704175 4.74037
478 1 3.09866 6.80199 0.598667
479 1 1.45587 5.06141 7.06465
480 1 1.92825 8.02585 8.5303
481 1 5.18711 3.19289 1.32465
482 1 4.78855 3.12527 3.79423
483 1 2.9053 6.25627 4.65745
484 1 1.90982 0.823916 1.23438
485 1 0.160862 6.85992 8.40354
486 1 7.16998 8.97841 0.138716
487 1 7.81688 6.75082 6.4529
488 1 8.59204 6.45079 7.17666
489 1 0.00503458 0.709837 7.21068
490 1 4.82062 8.83952 3.37232
491 1 3.91415 8.36678 3.91398
492 1 3.0251 2.57849 2.6266
493 1 0.910796 5.03088 6.05589
494 1 5.26787 1.79348 4.74987
495 1 3.63823 0.628516 5.227
496 1 3.4184 3.96316 6.89735
497 1 2.43693 4.57704 8.44685
498 1 1.56051 2.98726 3.82598
499 1 4.34603 8.16816 8.01822
500 1 6.02175 1.81966 8.28222
501 1 5.96717 5.07446 3.55464
502 1 8.93887 1.11622 6.36129
503 1 5.04435 0.724948 7.46866
504 1 6.92356 6.97808 6.94179
505 1 4.50811 4.20828 5.40952
506 1 8.46759 6.96221 2.67773
507 1 0.944397 1.15863 3.52363
508 1 5.11931 8.97245 2.31695
509 1 5.81223 0.757866 8.09609
510 1 9.22068 6.70992 0.972942
511 1 8.75807 1.82855 3.87372
512 1 8.78756 2.88793 2.22499
513 1 8.90862 4.11185 1.60254
514 1 9.07726 4.92298 7.8671
515 1 4.95301 8.80893 8.43748
516 1 3.13871 7.34159 3.23589
517 1 0.718222 1.56403 7.03143
518 1 3.92976 2.69484 9.26948
519 1 1.77768 5.79488 2.83917
520 1 3.01169 6.06583 9.15589
521 1 5.37522 0.501982 4.89341
522 1 2.14709 9.10382 6.22619
523 1 1.76668 5.0673 3.753
524 1 2.29687 1.75694 8.41087
525 1 6.63526 0.752538 1.5932
526 1 4.00698 3.70678 8.91977
527 1 2.65618 7.11656 2.25318
528 1 3.0732 1.4151 3.2782
529 1 2.92724 3.02684 6.39962
530 1 7.95797 8.76304 1.57567
531 1 0.870911 1.78474 4.8975
532 1 1.20307 4.27392 3.16331
533 1 4.03764 7.19941 8.0023
534 1 6.13894 7.48938 3.21368
535 1 3.65239 7.88459 5.46168
536 1 4.29442 0.9795 3.40842
537 1 4.90625 2.16392 9.36231
538 1 5.27609 1.95185 5.86673
539 1 8.34614 5.8692 2.82446
540 1 3.56914 6.31778 8.33623
541 1 3.32425 1.98786 1.76303
542 1 3.41404 5.56559 6.12176
543 1 2.02501 8.71885 9.3732
544 1 3.24338 0.342621 8.79361
545 1 7.59136 6.31304 2.23773
546 1 5.26729 8.11924 6.67986
547 1 0.996222 9.12849 6.03087
548 1 0.592842 0.424051 4.63725
549 1 1.88625 2.29853 7.58565
550 1 1.15976 4.18239 6.62646
551 1 3.96835 5.54 8.83948
552 1 0.166671 5.15571 1.53487
553 1 3.74538 3.57418 5.96214
554 1 4.65096 4.05294 4.3929
555 1 1.43665 1.93949 4.03503
556 1 1.24414 5.67986 5.33569
557 1 3.58733 7.81527 7.10773
558 1 6.91052 2.36343 5.58646
559 1 4.22758 6.73503 2.86529
560 1 2.46286 3.19358 4.45274
561 1 3.25694 4.49448 2.40409
562 1 0.466512 7.54438 7.58498
563 1 4.10663 6.98569 0.998403
564 1 6.54511 2.55501 3.52306
565 1 1.03479 0.912115 5.52194
566 1 1.19318 5.332 9.27045
567 1 8.16282 7.6777 6.93767
568 1 0.945475 1.28868 1.70907
569 1 1.48847 3.06828 8.24871
570 1 4.72672 5.98867 5.04162
571 1 8.34067 4.64347 5.31644
572 1 6.67608 5.74653 2.23036
573 1 1.22591 3.31203 1.75003
574 1 3.39011 2.76856 4.3242
575 1 1.13679 2.27928 3.04846
576 1 6.13677 3.67423 6.23757
577 1 4.43283 8.23908 9.18048
578 1 9.24371 8.46398 7.70716
579 1 6.12383 8.59645 2.52078
580 1 2.73248 7.22561 5.15736
581 1 5.77324 9.38879 3.05733
582 1 5.6463 5.24495 1.7557
583 1 0.446498 2.06701 3.77569
584 1 5.28215 3.98614 0.6662
585 1 8.66297 9.26823 7.53242
586 1 5.00561 6.88998 4.4923
587 1 7.68251 0.401052 1.83904
588 1 7.79287 8.83244 3.66544
589 1 1.45056 8.61002 1.77876
590 1 7.19055 4.44762 5.89469
591 1 3.43947 6.58223 3.84793
592 1 8.26445 9.25179 5.57068
593 1 0.249178 5.86256 5.78475
594 1 6.97468 4.55375 0.474566
595 1 8.32219 6.72976 1.50886
596 1 8.03478 5.59303 6.8738
597 1 1.47678 9.3814 7.22566
598 1 1.58258 4.15274 7.84265
599 1 0.637224 7.84418 1.97496
600 1 6.8811 9.34272 2.29639
601 1 0.0558952 7.81901 5.01378
602 1 8.67819 4.08979 2.65141
603 1 3.088 3.72598 5.06249
604 1 6.42332 8.19465 8.0492
605 1 4.42378 5.96831 7.77724
606 1 4.39257 3.5064 7.05875
607 1 2.24653 0.641181 8.71562
608 1 5.731 7.99816 8.9674
609 1 0.374836 1.67615 2.63341
610 1 7.92656 4.27545 0.132742
611 1 4.96964 0.559467 1.76607
612 1 1.90339 3.42747 9.20261
613 1 5.80219 1.16761 2.11247
614 1 1.30512 1.45714 7.91127
615 1 2.04831 1.21407 3.54682
616 1 9.31723 3.35025 5.14256
617 1 0.293974 5.79444 3.77491
618 1 7.02154 3.547 0.240859
619 1 5.79881 4.73928 7.04822
620 1 8.05134 5.30723 0.692907
621 1 8.56479 1.25324 4.74635
622 1 6.94194 8.13675 3.1305
623 1 6.30254 8.05508 6.99688
624 1 8.09719 2.69134 0.927479
625 1 1.14262 5.24182 1.23609
626 1 0.667956 4.7765 4.07294
627 1 0.211409 8.39375 3.09547
628 1 1.15336 2.77903 0.0781988
629 1 3.92632 5.59796 4.40932
630 1 4.11371 6.76931 7.02967
631 1 4.09052 1.17832 1.96729
632 1 2.1083 5.50073 4.74145
633 1 0.428176 8.97496 2.29358
634 1 4.7282 5.01577 4.74269
635 1 2.66924 3.64602 1.0437
636 1 7.33374 8.53561 8.47556
637 1 2.02397 6.2191 8.46539
638 1 5.24627 6.27469 5.89699
639 1 1.96297 1.32248 0.183165
640 1 7.07679 2.56953 9.11494
641 1 3.19876 6.86805 7.47344
642 1 8.12295 1.86409 7.85648
643 1 7.54524 8.23619 4.53643
644 1 3.3969 0.131178 0.87901
645 1 3.84202 3.83902 7.85522
646 1 5.68769 6.24041 4.97598
647 1 5.56622 1.37678 -0.0156767
648 1 6.45581 4.12455 3.73364
649 1 4.22901 6.33797 6.03102
650 1 4.0837 2.43806 7.48561
651 1 4.95315 6.32816 0.730137
652 1 3.4707 0.0775792 6.9773
653 1 7.24738 0.141769 5.43582
654 1 4.95543 7.43102 8.34989
655 1 3.08672 7.4709 1.30509
656 1 6.43101 2.53803 0.666612
657 1 5.29783 8.72371 0.141566
658 1 1.40195 7.36626 1.3324
659 1 0.367024 2.46458 6.92116
660 1 4.7775 5.78003 2.97165
661 1 6.00258 4.67879 0.874608
662 1 6.76739 4.2471 6.8359
663 1 3.42039 8.75862 0.0953623
664 1 0.788924 5.78874 6.71653
665 1 3.69412 0.518174 2.66651
666 1 1.49938 0.0560976 5.11119
667 1 7.43644 1.08339 1.05876
668 1 5.93801 6.99635 4.10106
669 1 1.05351 3.30787 2.85503
670 1 6.20275 1.68685 5.22133
671 1 1.20813 4.78901 2.19666
672 1 4.95464 5.2117 0.906109
673 1 2.65599 1.7534 0.938776
674 1 0.928139 7.45789 6.49236
675 1 2.58431 0.133121 0.242007
676 1 7.34434 6.84456 0.0539374
677 1 7.77604 6.96744 7.73377
678 1 8.60019 3.21272 6.56974
679 1 7.68173 1.73434 6.11738
680 1 0.147299 7.57675 3.82239
681 1 3.28815 8.23997 2.29764
682 1 3.75106 4.57465 4.71679
683 1 4.05799 1.64412 0.264105
684 1 7.35072 7.95904 9.38402
685 1 7.79814 5.34512 5.92402
686 1 2.99557 5.44644 8.35502
687 1 5.66026 4.48267 4.40417
688 1 7.73212 7.60653 3.63157
689 1 0.246732 8.38146 5.98546
690 1 4.87037 0.47555 2.77186
691 1 3.57957 1.13985 1.0123
692 1 8.13062 9.23542 2.59344
693 1 8.39422 0.969075 7.46683
694 1 2.25445 7.47982 0.63785
695 1 4.41649 2.30385 8.4796
696 1 7.95471 4.89191 2.89372
697 1 4.73205 7.11744 5.47232
698 1 4.22968 4.52247 6.42735
699 1 9.33965 6.76651 5.4617
700 1 7.80468 8.71379 6.83025
701 1 3.38989 8.61721 7.66159
702 1 8.45447 2.90393 5.48144
703 1 6.31157 5.72455 5.83892
704 1 8.7686 4.80559 9.01727
705 1 5.72681 2.44626 6.73272
706 1 3.19275 2.78498 5.40697
707 1 7.3818 2.35784 2.82104
708 1 4.46821 7.90726 4.76009
709 1 2.46389 7.33983 6.89363
710 1 1.40893 6.23741 1.2377
711 1 2.18835 2.39795 0.192596
712 1 2.41756 4.38218 3.21368
713 1 9.05593 5.57066 6.84903
714 1 0.63587 4.28823 5.0477
715 1 5.45312 5.28504 5.42308
716 1 5.04368 0.317351 3.77577
717 1 5.3723 5.51362 6.48336
718 1 5.14593 3.04141 6.11382
719 1 8.15344 5.61882 7.89704
720 1 7.20241 6.01716 4.43361
721 1 2.21613 4.94131 2.10282
722 1 8.10456 3.46192 1.66957
723 1 8.8994 3.92552 7.3258
724 1 7.46897 1.39547 7.18999
725 1 5.45 6.62682 9.12484
726 1 8.47791 8.85027 4.43831
727 1 2.65698 6.27217 6.663
728 1 7.83377 0.160327 0.781374
729 1 1.70131 7.68939 2.31333
730 1 0.703553 4.26682 1.48106
731 1 0.841396 2.70322 1.03113
732 1 7.85268 1.23119 4.03646
733 1 3.11133 9.31975 1.93758
734 1 0.253162 4.51399 2.39754
735 1 7.20248 1.20236 5.35696
736 1 8.1474 7.21178 8.88862
737 1 0.787004 3.69434 4.0458
738 1 2.40597 8.28962 1.72945
739 1 3.64439 4.65005 8.4683
740 1 7.56949 0.229305 7.25535
741 1 3.4959 8.96677 5.35889
742 1 7.20407 3.45388 4.08324
743 1 0.500574 9.27663 7.76875
744 1 1.79183 1.08117 4.59616
745 1 4.35794 3.56456 0.540297
746 1 0.251274 0.669038 2.45921
747 1 0.56352 1.71951 0.778261
748 1 4.99195 3.84335 9.04686
749 1 6.66575 6.55949 0.846911
750 1 8.20383 0.870988 5.67984
751 1 5.97602 7.28044 8.38607
752 1 4.72215 3.25917 8.10415
753 1 6.54631 6.64668 7.92944
754 1 3.86257 8.95787 8.63819
755 1 0.801098 3.44062 5.63554
756 1 3.20384 6.38091 5.68417
757 1 -0.0111565 0.869163 0.397498
758 1 2.72873 8.07179 5.92258
759 1 3.4381 4.76308 3.571
760 1 4.03268 8.92607 2.50831
761 1 9.29474 2.14824 4.81968
762 1 5.58797 7.50806 0.422677
763 1 8.21124 3.68413 8.67572
764 1 2.73829 4.69932 1.03924
765 1 0.542403 8.81281 1.25687
766 1 7.48799 2.89399 6.14003
767 1 5.62023 2.59083 4.20705
768 1 3.50604 3.95916 1.5653
769 1 0.905382 7.66409 5.53752
770 1 2.67231 7.75392 7.78464
771 1 6.16624 1.78289 1.43461
772 1 5.56227 1.05299 3.3135
773 1 3.63572 8.55884 6.26362
774 1 2.16519 3.18029 5.42126
775 1 9.34026 5.61968 2.82888
776 1 3.82132 1.34818 8.68624
777 1 6.39877 7.66278 2.20665
778 1 8.29758 6.41583 0.372004
779 1 2.80471 0.438402 3.67307
780 1 6.95854 5.01196 3.99601
781 1 7.6184 1.82208 0.354198
782 1 0.316839 0.403809 8.84819
783 1 8.69171 6.19816 6.13387
784 1 2.45341 9.13244 5.21154
785 1 1.93283 6.99907 3.09274
786 1 1.86077 5.63891 6.25649
787 1 0.461537 9.33227 0.407573
788 1 7.57671 8.50101 5.67128
789 1 1.17498 0.463119 8.23391
790 1 6.20569 2.71754 7.74771
791 1 7.98546 3.41155 2.69197
792 1 9.18337 6.86899 4.37352
793 1 7.86333 0.0452439 8.17106
794 1 7.14215 5.76335 0.302671
795 1 0.184632 3.18923 7.66846
796 1 6.88601 3.37722 2.96815
797 1 9.01208 0.396493 4.27676
798 1 3.24017 1.92976 7.94774
799 1 5.52544 2.41081 2.10052
800 1 7.05948 7.42245 8.42752
801 2 2.17974 4.05803 5.01662
802 2 8.96973 5.84112 7.6891
803 2 3.31519 1.32326 2.34022
804 2 7.28173 2.63483 0.606092
805 2 6.73181 8.70829 4.09098
806 2 6.25904 5.46272 6.65743
807 2 3.00513 3.77647 7.6362
808 2 1.04045 7.11351 2.5378
809 2 4.71376 3.04404 9.11895
810 2 7.68968 9.32361 6.20061
811 2 0.329554 3.00769 0.263738
812 2 2.73382 4.18168 1.83919
813 2 0.538403 1.92038 8.56266
814 2 2.60121 2.73955 0.879367
815 2 6.46013 2.90269 6.07798
816 2 0.881796 0.658645 7.43305
817 2 4.00959 9.35425 6.0084
818 2 1.77112 4.89103 2.89357
819 2 8.09887 0.993635 6.60489
820 2 0.846809 2.92079 6.35973
821 2 4.5561 9.19488 9.17579
822 2 6.67529 1.05447 8.1798
823 2 5.55979 5.8022 1.11834
824 2 2.51109 7.01431 6.02507
825 2 5.013 4.78288 6.00883
826 2 3.78782 2.70716 2.23191
827 2 6.3488 6.30069 4.17766
828 2 7.20978 0.749692 4.59321
829 2 6.13475 5.15305 2.51844
830 2 7.37498 4.96514 9.17808
831 2 8.99844 0.0857311 2.81519
832 2 6.54298 0.674697 5.74004
833 2 1.61836 1.74186 5.34676
834 2 5.8324 6.71165 0.53683
835 2 7.05919 3.61538 6.3115
836 2 7.82401 7.75121 8.30261
837 2 4.25884 0.548646 0.889532
838 2 0.194788 7.45883 6.02811
839 2 9.30547 1.87395 6.48053
840 2 8.80418 3.93188 9.26227
841 2 2.11765 3.71498 8.41348
842 2 4.34548 5.36531 0.391287
843 2 1.96559 0.572787 7.87474
844 2 6.04221 6.58447 3.27117
845 2 3.81419 7.07776 5.56022
846 2 5.51647 3.66433 8.24685
847 2 8.12333 8.12313 6.18642
848 2 8.39308 7.09777 3.75607
849 2 9.0343 6.05901 4.34864
850 2 2.07202 1.55061 1.66032
851 2 4.59 3.76602 6.12156
852 2 8.72677 2.31112 1.62626
853 2 1.73014 5.75921 1.97812
854 2 6.10839 2.83805 2.79198
855 2 5.75482 4.8719 7.825
856 2 6.98962 5.23572 6.07001
857 2 8.2287 4.3978 2.02128
858 2 4.45556 4.15238 8.35361
859 2 5.35727 1.47388 7.75569
860 2 6.64833 8.16444 8.91438
861 2 4.98907 5.72574 8.40565
862 2 4.21765 7.48001 8.77175
863 2 7.523 4.71313 6.69702
864 2 7.68388 8.99963 4.91166
865 2 0.471799 0.159358 5.4876
866 2 7.74435 3.6381 0.779819
867 2 5.15076 0.18399 8.09708
868 2 9.03271 4.13157 5.14474
869 2 2.1987 2.74991 6.90341
870 2 4.06935 3.3992 4.15567
871 2 6.12654 2.07132 5.99039
872 2 2.99563 1.13097 8.37339
873 2 6.06325 2.97341 1.53223
874 2 7.53495 0.393628 3.75584
875 2 4.81837 6.9004 6.30789
876 2 1.52796 7.13566 4.00537
877 2 0.446216 4.25805 5.9283
878 2 1.25643 8.49733 8.86371
879 2 4.84552 2.83701 7.11854
880 2 3.02573 1.1493 5.62637
881 2 8.87476 3.28321 3.0243
882 2 2.60262 7.01612 9.34743
883 2 3.60347 0.575251 1.73142
884 2 0.589678 2.68809 5.22667
885 2 4.04585 1.88422 1.14351
886 2 4.40348 2.41343 3.36644
887 2 1.10418 8.28035 6.08659
888 2 4.56436 8.42251 6.17854
889 2 0.90447 3.9156 2.30112
890 2 8.46124 4.98719 1.38884
891 2 2.74505 0.813869 0.864984
892 2 6.99643 7.41156 0.626964
893 2 3.09358 0.886976 7.007
894 2 0.700562 6.71252 0.85506
895 2 1.82919 0.420734 0.475041
896 2 3.31593 3.72962 3.17221
897 2 5.26489 2.09724 8.57184
898 2 7.36748 5.14115 7.74178
899 2 6.29351 1.69685 7.4505
900 2 2.88268 8.91912 5.90489
901 2 7.46871 8.82536 7.62976
902 2 1.67056 6.80931 0.735914
903 2 4.8246 4.9044 6.94306
904 2 8.93193 6.49304 9.14874
905 2 4.72021 6.75846 7.70793
906 2 9.03333 3.07807 8.32006
907 2 2.45458 5.29378 0.458742
908 2 3.65015 8.40338 4.70764
909 2 3.87592 5.32838 7.95869
910 2 2.00092 7.22197 8.25373
911 2 7.26371 9.34731 8.78754
912 2 5.4176 1.07554 4.18884
913 2 0.951511 1.14516 4.37851
914 2 7.01962 4.13709 1.37729
915 2 3.81986 5.89804 5.31234
916 2 2.022 0.427622 3.10922
917 2 9.20149 7.10039 7.22556
918 2 5.13654 3.43068 3.03631
919 2 0.800328 3.62092 8.05875
920 2 6.57016 7.44152 7.6069
921 2 1.12759 6.01917 3.42247
922 2 4.11034 0.702393 7.16481
923 2 5.11026 2.50447 5.16033
924 2 2.6891 2.5193 7.81186
925 2 0.962997 8.12626 1.17202
926 2 5.35721 3.57649 4.24318
927 2 7.55777 2.0458 8.53022
928 2 5.99461 6.59926 5.76934
929 2 0.988203 6.87893 8.89283
930 2 8.98497 3.24578 1.48219
931 2 5.66315 8.15546 1.01808
932 2 2.00376 1.77296 6.93803
933 2 1.65702 1.25135 8.65832
934 2 4.24547 6.65355 1.82586
935 2 8.30338 5.86193 1.96847
936 2 1.74804 4.60488 8.98764
937 2 5.01097 6.48045 2.60196
938 2 3.27941 4.13922 9.07628
939 2 7.35005 3.26539 2.19049
940 2 3.94885 7.73985 1.24233
941 2 3.57465 3.23651 0.821371
942 2 0.538196 7.11033 4.93861
943 2 6.28297 3.06583 9.37151
944 2 7.28211 5.17694 0.972956
945 2 8.49618 4.30544 8.09612
946 2 8.68759 7.54764 1.12455
947 2 5.83072 0.375465 7.31797
948 2 3.40965 8.16355 3.11837
949 2 5.29512 9.03083 5.14823
950 2 7.32913 8.82077 2.78097
951 2 0.751886 2.68021 2.33201
952 2 1.88434 4.57953 6.40221
953 2 2.11672 3.35104 1.7088
954 2 4.18497 1.61597 6.27774
955 2 7.03248 8.51916 6.96845
956 2 0.716699 2.82937 3.52939
957 2 3.50563 6.33231 6.55954
958 2 3.15237 2.34624 3.53483
959 2 2.16311 7.46096 1.61491
960 2 0.969736 6.83697 7.03547
961 2 1.68127 1.65386 2.96113
962 2 4.64733 1.19396 9.35694
963 2 0.582906 4.94332 6.91369
964 2 3.93542 4.584 1.79833
965 2 6.8219 6.41982 1.72212
966 2 9.14646 1.99619 3.15556
967 2 8.60573 8.4661 7.11788
968 2 8.82667 0.389617 5.17495
969 2 4.87501 8.73219 7.57212
970 2 5.18206 5.28323 4.05289
971 2 5.84446 0.512832 0.143551
972 2 7.3861 3.55249 8.81016
973 2 6.52045 2.50312 8.49431
974 2 8.22393 2.46559 6.17821
975 2 0.995947 4.65514 8.16186
976 2 3.55987 5.00929 6.92833
977 2 1.94819 3.85618 0.548631
978 2 1.8887 7.90409 9.35898
979 2 1.81746 3.54062 3.14343
980 2 0.409164 5.75265 9.28842
981 2 1.34271 1.84434 0.165133
982 2 0.566213 5.28999 4.94546
983 2 1.62283 5.67879 0.54992
984 2 5.33557 0.443168 6.4496
985 2 7.43765 5.62071 2.7309
986 2 8.77609 1.45269 8.18249
987 2 5.9872 8.72505 6.44975
988 2 7.56869 3.07076 3.42006
989 2 2.67826 2.36697 4.90033
990 2 8.9898 0.180341 9.21844
991 2 3.414 6.75014 2.57228
992 2 0.21256 7.7353 0.0454749
993 2 5.23025 1.58009 1.65023
994 2 9.18455 1.68902 0.522237
995 2 2.68414 5.73662 5.80692
996 2 2.69566 6.23162 7.8983
997 2 9.23791 0.329497 8.11803
998 2 2.16639 6.61685 4.63059