ITEM: TIMESTEP
2546
ITEM: NUMBER OF ATOMS
1000
ITEM: BOX BOUNDS pp pp pp
0.0000000000000000e+00 9.4000000000000004e+00
0.0000000000000000e+00 9.4000000000000004e+00
0.0000000000000000e+00 9.4000000000000004e+00
ITEM: ATOMS id type x y z vx vy vz 
1 1 2.34814 5.82017 3.52567 -1.6383 0.427928 -0.615644 
2 1 5.70612 0.466593 3.47151 0.448049 -1.58621 -0.77407 
3 1 0.810177 0.119087 0.289263 -0.495154 -0.739718 -0.1206 
4 1 7.87408 4.37722 9.22266 -1.07793 -0.0757936 -0.147702 
5 1 2.6185 6.20714 5.85338 -0.0716513 -0.696355 0.408246 
6 1 0.596959 8.4868 1.29825 0.733897 0.615252 0.317795 
7 1 8.31142 2.52708 2.26692 -0.47072 -0.527884 -1.19178 
8 1 1.14226 7.06245 2.2056 -0.338723 0.503913 -0.575386 
9 1 3.90183 5.72289 2.24739 -0.181494 -1.2923 0.388323 
10 1 1.05839 5.15662 8.77402 1.05987 -0.299151 0.545508 
11 1 8.77433 4.34682 1.14129 0.648596 0.368101 0.163467 
12 1 4.91195 9.38599 3.71085 -0.207965 0.272936 0.0257063 
13 1 5.31068 7.64548 0.493508 1.11005 -0.183811 1.34061 
14 1 9.36852 5.66556 1.98818 -0.960621 -1.01536 -1.27008 
15 1 4.42173 1.88439 9.37482 -0.726153 -0.375013 0.588639 
16 1 3.4629 7.3771 2.03862 0.966459 0.882224 -0.283588 
17 1 1.9264 1.89964 0.0549959 -0.277581 0.320177 -0.656777 
18 1 4.38114 1.52089 3.61818 0.669213 -0.451015 0.125335 
19 1 7.28433 8.15815 2.45835 -1.12059 -0.0871899 -0.437752 
20 1 7.85426 5.4321 9.18267 -0.271718 -0.889201 1.36269 
21 1 5.49431 6.20421 6.03448 -0.26663 0.121666 0.501292 
22 1 0.05038 1.29572 2.17999 -0.03055 -0.189129 0.377896 
23 1 0.930057 3.2297 4.2163 1.57347 -0.149361 -0.0106298 
24 1 8.61556 4.96422 8.79708 -0.696975 0.834179 0.0980195 
25 1 8.64747 6.30823 3.56781 0.483963 0.129854 0.584354 
26 1 5.09416 3.89503 6.9705 0.433479 0.824604 -1.16011 
27 1 5.27273 1.75644 3.50509 -0.197418 2.33128 -0.361415 
28 1 2.82813 0.544682 3.92118 0.727372 1.46898 -0.439251 
29 1 4.00898 2.13079 4.2077 -0.576632 -0.376246 -0.224278 
30 1 6.15317 6.67342 4.37558 -0.242922 -0.239931 -0.0253961 
31 1 7.06729 7.11877 5.51517 1.89319 -0.0362412 0.322411 
32 1 3.23754 2.80986 3.3205 -0.573292 0.340787 0.969523 
33 1 4.16132 3.20045 8.1463 0.891169 -0.511186 -1.20893 
34 1 8.79957 3.76957 4.03596 0.0581974 0.14405 0.375127 
35 1 5.96528 9.06756 3.8944 0.660473 1.11524 0.422073 
36 1 6.24119 1.07896 2.18089 -1.40293 0.123112 -0.814713 
37 1 2.24298 1.40281 2.47685 1.06228 -0.515286 0.418849 
38 1 0.491262 0.630242 4.57202 -0.0352142 0.648608 0.674682 
39 1 5.55034 6.77603 5.08854 -0.736284 0.717108 0.583878 
40 1 2.93578 7.52491 6.55551 -0.400711 -1.7046 1.01734 
41 1 8.68596 5.50447 0.318691 -0.439866 -0.142792 -1.67184 
42 1 4.26271 8.88114 8.35549 1.09632 0.306298 0.760249 
43 1 4.5409 5.95701 6.06979 -0.531656 -1.08836 1.65224 
44 1 3.33214 4.67781 7.30565 -0.334973 0.10991 0.911133 
45 1 2.74239 2.20524 2.80823 0.106409 1.18501 0.313718 
46 1 3.99452 6.77047 4.76894 1.25907 1.80561 -0.324504 
47 1 3.53005 5.77078 5.96636 -0.310487 -0.520521 -0.569867 
48 1 4.32829 5.12539 5.69443 0.799753 -0.781663 1.28833 
49 1 4.44653 7.13428 0.478109 0.585466 -1.06395 0.0624124 
50 1 5.99843 2.93638 6.26845 0.475896 -0.530407 0.264992 
51 1 1.47896 0.179788 1.72147 0.519318 1.27452 -1.214 
52 1 4.32817 4.13104 2.39344 0.0705393 -0.619899 0.345386 
53 1 3.58475 9.27885 3.85161 -0.296758 0.0962973 0.921878 
54 1 9.36104 2.2268 1.97386 -1.56466 0.91529 0.132798 
55 1 8.54419 0.861714 1.86873 -0.617049 0.180229 -0.298544 
56 1 8.1428 2.86286 0.675198 -1.02413 -0.716763 -0.0480637 
57 1 4.23145 7.66027 3.39067 1.0205 0.502649 1.25909 
58 1 5.88036 1.24527 4.07542 -0.551615 0.922075 0.15885 
59 1 8.6266 5.90966 8.86366 -0.602447 -0.24167 -0.751632 
60 1 6.80644 5.39737 4.95037 -0.0804618 1.08412 -0.566769 
61 1 2.92253 3.01234 5.52725 1.50477 0.572392 -1.30918 
62 1 7.95778 4.66114 7.57039 0.485231 0.378643 -0.690534 
63 1 0.804579 5.37464 2.40941 0.423288 0.39043 1.04247 
64 1 7.39142 3.08553 2.54167 -0.554825 -0.441804 -0.288102 
65 1 3.79285 5.66521 1.2467 1.65381 -0.734458 0.516421 
66 1 7.36205 0.579335 9.05806 0.0497614 -0.601041 -0.441685 
67 1 7.62057 4.84946 8.44378 1.15885 -0.80724 0.578412 
68 1 0.625351 8.02269 5.27861 -0.936447 -2.30141 -0.468156 
69 1 2.45359 5.05449 7.09651 -0.338012 0.258323 0.669973 
70 1 6.15864 0.843126 7.81048 -0.612811 0.106966 1.8164 
71 1 7.23156 7.28673 1.43865 1.37263 0.309927 -0.434763 
72 1 6.09147 2.3919 0.519205 0.903566 -0.484203 0.0668487 
73 1 2.89788 9.127 4.4807 1.23877 0.413025 -1.45638 
74 1 3.15645 8.54839 1.19264 -0.392381 -0.630106 0.528468 
75 1 1.91691 5.89528 5.1584 -1.98363 -0.671337 0.803371 
76 1 3.73544 8.15659 7.95461 -0.0952523 0.136949 0.683446 
77 1 7.00274 6.13627 5.70295 1.34413 0.37623 1.15727 
78 1 9.11708 0.553951 1.10542 -0.96575 1.43699 0.449469 
79 1 3.87702 8.39576 5.82382 -0.0100486 1.0444 0.0055296 
80 1 7.6121 6.26485 7.67608 -0.595891 -1.41516 -0.0838606 
81 1 4.06679 1.09783 2.80581 -1.15379 -0.789743 0.282995 
82 1 1.36461 8.52949 4.85101 -1.06573 -1.3924 0.362446 
83 1 1.93036 0.600456 4.23748 0.701347 0.43081 0.0420664 
84 1 8.02046 3.54514 5.98858 -0.498038 -0.102933 0.126714 
85 1 6.2134 5.0563 1.84254 0.21668 -0.472144 0.730904 
86 1 2.57754 1.35148 4.3813 1.15457 -1.57614 -1.5522 
87 1 5.289 6.67704 0.377574 -0.584698 -0.48066 -1.10494 
88 1 2.33394 2.65418 3.65092 0.370086 0.111426 -1.34022 
89 1 5.08434 2.59955 3.08539 0.818021 0.864251 0.247079 
90 1 5.52202 8.19112 1.25219 -0.634883 -0.669005 -0.496131 
91 1 4.83727 3.63271 5.28706 0.427687 0.437066 -0.839177 
92 1 5.9368 6.99505 6.60109 0.766561 0.541703 0.384819 
93 1 6.9005 1.36566 2.83896 -0.0769894 -0.472366 1.87631 
94 1 6.58801 0.066833 9.23891 0.986914 -0.592861 -0.16215 
95 1 7.80074 9.19894 9.38663 -1.42198 -0.766999 -0.0522801 
96 1 9.2324 4.14597 3.28081 0.996569 0.810909 -1.09737 
97 1 5.20009 4.22774 2.78145 0.114718 0.199747 0.309922 
98 1 9.34427 8.24276 9.334 -0.585828 -0.5749 -0.428914 
99 1 4.49013 1.92504 2.75263 0.662658 -0.894185 0.332727 
100 1 8.06213 6.80497 4.2044 0.692586 0.41516 1.21166 
101 1 4.97073 4.99717 3.2938 -0.201849 -0.82199 0.709865 
102 1 0.337188 3.80967 2.54726 -0.17123 0.745823 -0.909843 
103 1 5.10604 3.75423 0.0885185 -0.795461 -0.217498 1.37316 
104 1 4.84872 5.87864 3.66818 1.93809 -0.0674452 0.222867 
105 1 6.76549 3.45945 7.80098 -0.626338 -0.857834 0.10378 
106 1 4.50209 8.51795 7.4633 1.18132 -0.285759 -0.0199959 
107 1 5.83766 2.50167 1.43058 -0.120263 -0.0539133 -0.695873 
108 1 3.32865 0.180246 2.26518 -0.753715 -0.819563 0.276757 
109 1 3.52563 2.48255 4.99308 0.00695463 -0.344951 -0.20859 
110 1 5.31151 0.0744415 5.27052 -0.281093 -1.83407 -0.469656 
111 1 3.81421 4.09008 7.94188 -0.595264 0.453109 0.45324 
112 1 0.433765 5.10055 5.42088 -0.0100163 -0.806944 1.10918 
113 1 9.11924 0.626663 3.66393 0.361909 -0.0333877 0.173906 
114 1 0.668278 5.76214 8.11959 1.04882 0.826746 0.434516 
115 1 6.98499 6.85257 3.9479 0.125942 0.850653 -0.90981 
116 1 2.022 6.73815 2.00412 -0.0467908 0.380097 0.771103 
117 1 8.16414 3.87585 4.74765 -0.0297994 0.814344 -0.110385 
118 1 4.41349 7.50191 7.75401 -0.512685 1.20898 0.211983 
119 1 0.0739713 2.93019 5.37889 0.184526 0.855618 -0.800394 
120 1 2.6915 0.560093 4.90894 -0.169174 -1.92879 -0.165322 
121 1 3.24883 5.89684 3.7713 -0.0535117 0.227833 0.407378 
122 1 2.58299 4.63986 7.95737 -1.98329 0.504365 -0.888115 
123 1 4.26588 8.80196 4.23198 0.535566 0.471759 0.327805 
124 1 5.75421 1.89764 7.54797 -1.17093 1.36712 -0.353472 
125 1 8.66727 7.40004 1.34908 1.16911 0.270099 -0.316267 
126 1 6.83119 1.48379 5.44548 0.874267 1.1413 -0.715916 
127 1 5.1222 7.01505 7.23296 -0.35089 0.528838 -0.383588 
128 1 8.6141 6.3624 2.55528 1.04717 0.84818 -0.425725 
129 1 6.65383 7.52946 2.14061 -1.16825 -0.472209 0.526902 
130 1 4.86047 7.84014 1.85875 0.245007 -0.201099 0.388206 
131 1 4.08243 6.05031 4.17602 -0.514952 -1.06519 0.322588 
132 1 3.892 2.68426 8.97555 0.46732 0.38636 -0.135446 
133 1 4.4478 0.434638 5.51702 -1.14451 -0.082203 -0.0864185 
134 1 3.8106 8.13184 2.67464 0.352526 -0.144407 -1.50663 
135 1 4.91689 4.92661 2.22165 -0.874333 -0.544553 -0.934479 
136 1 1.70807 8.10718 4.09231 -0.751113 -1.39973 0.0460974 
137 1 0.576728 7.45381 1.33947 -0.769562 -0.936016 0.94874 
138 1 3.17991 1.3536 2.60775 -0.525254 -0.304188 0.107638 
139 1 6.66427 7.63808 6.9354 -0.232102 -0.484796 -0.350901 
140 1 5.93285 8.20897 4.37692 2.27566 -0.360457 0.561371 
141 1 8.24837 0.901691 0.863535 -1.02231 0.122519 0.766194 
142 1 2.58055 9.16142 2.62591 0.000186688 0.628479 0.218876 
143 1 7.67234 3.29793 9.32172 -2.0522 0.0634623 -1.05922 
144 1 7.19362 4.51269 1.93923 -0.212682 0.480399 0.71468 
145 1 1.96764 4.47694 6.37936 1.33368 -0.748361 -0.609253 
146 1 4.37773 5.88422 8.36797 -0.0997645 -0.406804 0.508563 
147 1 8.65005 5.08915 2.20195 1.45652 0.551163 -0.973387 
148 1 5.78002 4.39646 5.57368 -1.74236 0.69734 0.489125 
149 1 6.70298 0.0569361 8.26089 -0.171146 -0.44201 -0.893859 
150 1 3.43314 0.523111 3.16882 -0.415123 0.087319 0.0678489 
151 1 6.06714 1.6178 5.9747 -0.523731 -0.492627 0.787129 
152 1 9.35299 2.1756 9.06128 0.205854 -0.0916695 -0.445513 
153 1 1.35703 2.57529 0.40293 -1.03995 0.0114978 1.05925 
154 1 2.61305 3.19824 8.89124 0.50499 0.486918 -1.10069 
155 1 3.97643 0.991571 1.16263 0.418179 0.566702 0.726472 
156 1 6.88009 7.5517 3.10938 -0.83398 -0.993214 0.408579 
157 1 2.45956 5.10088 2.93852 0.224452 1.63239 -0.311769 
158 1 3.73445 0.233508 0.646199 0.335741 0.837018 -0.222728 
159 1 7.45405 0.660904 4.16335 0.137151 0.311491 0.0958841 
160 1 1.76162 5.44395 7.66917 0.0663569 -1.17069 -0.285869 
161 1 5.01814 0.583096 9.02199 -0.52099 -0.14683 0.681838 
162 1 6.62948 3.39911 8.9523 0.0382321 -1.0243 -1.22515 
163 1 4.39006 4.34805 0.25695 -0.281993 0.0890808 0.15534 
164 1 1.55357 5.71146 1.89396 -1.13826 -0.123191 0.696 
165 1 6.9662 5.61859 2.05862 0.502594 -0.891855 -0.375424 
166 1 6.49854 4.65202 4.40046 0.040625 -1.22571 -0.167614 
167 1 8.5926 6.2578 0.968895 -1.01778 -0.417175 -0.700255 
168 1 2.32857 9.06182 1.70328 -0.810899 -0.181621 -1.23979 
169 1 3.79493 6.57618 2.6678 0.0596711 -0.537808 0.283865 
170 1 6.84365 6.85129 6.45302 1.28029 1.15016 -0.699768 
171 1 6.50062 4.57235 6.43362 -0.394718 0.389457 1.10391 
172 1 2.47719 9.05857 0.680574 -0.632739 0.496453 -0.727095 
173 1 2.65145 8.28557 3.98713 0.130177 -0.0983598 -0.0509185 
174 1 5.79666 5.11173 4.93015 -0.615316 0.434983 -0.0722484 
175 1 4.52538 6.30161 9.31042 -0.556755 -0.253305 -0.60153 
176 1 4.06867 5.8744 6.90003 -0.0371248 -0.465276 -0.714684 
177 1 3.19907 3.95119 5.66111 -0.280304 -0.242626 -0.0296711 
178 1 7.582 6.10716 3.76805 0.178156 -0.239019 -0.168052 
179 1 0.725094 9.12175 2.09759 0.825862 0.189399 -0.209485 
180 1 6.28802 2.16162 6.8082 -0.676653 0.360167 -0.683461 
181 1 4.6725 3.59375 0.902476 0.946435 -0.275792 0.336118 
182 1 3.42545 1.54354 4.82282 1.50564 0.11172 0.281887 
183 1 1.22459 6.22278 2.6369 -1.25646 -1.18114 -1.56272 
184 1 6.44409 5.03561 8.12478 -0.0851291 0.674648 -1.26447 
185 1 8.0286 3.20838 4.0812 -0.602162 0.106325 -0.565778 
186 1 4.44744 3.44722 6.15153 0.342546 -1.07426 -0.0478119 
187 1 9.10307 5.63144 2.98442 0.354076 -0.647363 -0.360242 
188 1 8.12212 2.12163 7.54737 -0.705621 -0.658746 -0.439833 
189 1 6.89946 1.48364 6.45915 -0.222496 0.326416 -0.121684 
190 1 6.58496 7.45352 8.25775 -1.82956 0.410012 0.529865 
191 1 9.37767 7.51554 4.79947 0.532674 -0.574411 0.726543 
192 1 4.00611 5.84958 3.22443 0.309962 0.492915 -0.17407 
193 1 6.76217 6.82894 7.46793 0.943097 0.0447051 1.03434 
194 1 4.17102 2.68215 3.33477 0.664252 -0.109526 0.491041 
195 1 6.34295 3.55441 0.641358 -0.688003 0.0879897 2.02742 
196 1 0.498825 3.37854 8.22968 0.678649 -0.451028 -0.315568 
197 1 1.44763 4.3173 9.21033 -0.507257 0.216781 -0.941137 
198 1 7.46202 7.31997 4.68279 0.615442 0.421431 0.318563 
199 1 5.48881 7.38274 4.36731 -1.0935 0.657891 -1.68753 
200 1 6.54153 0.912674 8.7203 -1.76304 -0.00949579 -1.40209 
201 1 9.0554 6.84704 4.22734 -0.0425214 -0.128697 2.04762 
202 1 8.49462 2.72592 9.18544 0.63692 0.619428 -0.747989 
203 1 8.99466 1.87387 4.17584 0.244411 -0.76703 -1.09358 
204 1 3.26142 0.965811 1.75499 0.767763 0.447235 0.38297 
205 1 7.01669 5.33108 6.22088 -1.29931 -1.42358 -0.435039 
206 1 0.578191 0.0791212 1.22782 0.27847 -0.0922983 -1.02605 
207 1 6.32891 4.09547 8.3735 -0.744211 -0.0119734 -0.77296 
208 1 0.592034 7.58093 0.382783 0.336862 0.401181 -1.80122 
209 1 2.68544 1.51028 3.4449 0.0419239 -0.0750831 -1.14402 
210 1 3.02331 3.64414 1.07621 -0.917262 -1.09685 -0.467629 
211 1 6.68943 8.42541 8.06508 -0.796448 0.260501 0.181172 
212 1 3.79721 6.92769 9.20118 -0.633976 -0.661241 0.468461 
213 1 4.8916 6.35979 4.54595 -0.374379 1.75271 0.259442 
214 1 0.161481 3.30069 3.71542 -0.260268 1.27979 0.15639 
215 1 6.09818 4.27281 3.21025 -0.672767 0.296719 -0.127313 
216 1 7.04036 9.07809 2.57291 1.10103 -0.641618 -0.425259 
217 1 7.62653 4.81935 3.19298 -1.57706 -0.614421 -0.0301821 
218 1 4.73174 5.54891 7.55197 0.517164 0.368997 -0.18433 
219 1 1.37931 6.92872 1.27419 -0.875735 -0.496816 -2.05824 
220 1 5.37626 4.84771 0.394079 -1.30277 0.217455 -0.352088 
221 1 7.27289 8.36696 3.43044 1.44224 -0.174853 -0.8631 
222 1 7.05247 3.99297 0.15014 -0.330417 -1.45643 -0.593616 
223 1 1.43311 3.48988 8.55858 0.635524 -0.451406 -0.754059 
224 1 8.08783 4.37021 5.52223 0.819617 0.589782 0.165829 
225 1 0.706054 3.64762 9.26631 0.648687 -0.888671 0.437689 
226 1 5.61874 4.32016 1.91717 -0.578969 -2.07662 0.891492 
227 1 7.04123 6.60597 3.04732 0.0764355 0.131802 -0.537547 
228 1 0.0685751 6.39269 7.59494 -0.730459 -0.321249 -1.01959 
229 1 2.93392 0.267385 0.101217 -0.864648 -1.75739 1.19582 
230 1 0.344777 1.31856 3.94793 1.4869 -0.405653 0.619074 
231 1 8.05874 4.38365 2.44 0.0813752 0.149288 -0.746926 
232 1 2.7853 8.03556 0.434995 -0.234963 -0.442392 -1.29437 
233 1 0.276957 2.28478 3.61075 0.83047 1.00183 0.738969 
234 1 5.66804 1.59214 1.63551 0.00862028 -0.481706 -0.0664044 
235 1 0.316704 8.49903 3.4801 0.0254495 0.317259 0.406618 
236 1 2.23323 7.58486 3.45005 -1.55997 0.223948 -0.25612 
237 1 7.58507 9.24598 4.71741 -0.679183 0.941912 0.0422612 
238 1 9.12531 4.43502 4.93686 1.05205 -0.193755 0.341055 
239 1 5.54711 7.84568 6.60666 0.453226 0.409864 0.519654 
240 1 6.30583 5.97976 1.52568 -0.848579 -0.120582 0.190327 
241 1 6.85039 9.00478 5.26773 0.253248 0.621496 -0.703942 
242 1 0.26421 6.31951 2.6299 0.0767828 -1.21072 -0.428258 
243 1 9.35887 6.47091 8.59438 -0.902624 0.182776 -0.209419 
244 1 4.77671 4.43979 4.22331 -0.361612 -0.525127 0.664289 
245 1 4.6564 9.33729 0.203649 -0.621085 0.395268 -0.786898 
246 1 7.41129 7.86449 8.61313 -0.446619 -0.0893389 0.63847 
247 1 1.96437 8.51654 3.23904 0.247557 0.00744645 -0.40844 
248 1 5.39477 3.74638 8.58161 -0.167802 1.08246 -0.773152 
249 1 1.68543 0.618676 2.5811 0.467893 -0.456097 1.59307 
250 1 8.68058 7.36273 2.30659 1.0412 -0.487015 -0.483071 
251 1 5.19896 4.75463 7.33587 0.599907 -0.711079 0.951527 
252 1 6.07097 8.29934 0.448606 -0.482726 -0.141169 -0.400572 
253 1 2.17627 6.60284 4.01103 0.151254 0.210991 -0.609216 
254 1 4.29529 4.49335 7.18454 -1.05924 0.354106 -0.333131 
255 1 4.83936 5.3588 4.49415 0.613932 0.86882 1.13948 
256 1 3.32854 8.8168 0.311289 -1.44813 -0.97504 -0.665438 
257 1 7.80064 5.84024 6.15869 0.0532317 0.574152 -1.74217 
258 1 8.97436 3.25588 0.462321 0.464603 -0.4075 -0.137479 
259 1 6.26692 0.217587 0.753647 1.30889 0.52769 -1.08708 
260 1 0.224293 6.4511 3.59499 -0.992778 0.309157 0.48841 
261 1 6.30849 9.19334 7.41398 -0.675081 -0.172937 0.467762 
262 1 1.20006 9.40754 4.46547 -0.289114 -0.393666 0.437206 
263 1 9.12555 1.52347 3.26682 1.20432 0.462663 -0.859405 
264 1 1.81344 2.65947 8.89924 0.470759 0.522801 0.769766 
265 1 8.09477 1.66108 5.13028 0.0850885 -0.513775 -0.320844 
266 1 4.4376 0.865522 0.351311 -1.03865 -0.133325 1.73662 
267 1 1.66629 3.7036 5.86774 -0.0835496 -0.430532 0.0885535 
268 1 3.49947 3.59748 8.77751 -0.487289 -0.929972 -1.6606 
269 1 4.69432 6.52781 2.07415 -2.08909 -0.824597 -0.764244 
270 1 3.52187 8.97811 2.95815 0.144466 -0.0790004 0.435321 
271 1 5.40766 6.12271 1.2245 -0.810696 1.02476 0.174014 
272 1 3.17332 5.60691 6.86561 0.719006 0.179782 0.292452 
273 1 6.74052 4.8515 2.68274 0.533315 -0.0260398 0.178856 
274 1 7.95718 8.44854 5.21732 -0.735904 1.19547 -0.135809 
275 1 0.444684 1.91862 2.7585 -0.094384 0.587124 1.69174 
276 1 0.0713549 5.00869 0.701888 1.35309 0.426117 1.60166 
277 1 0.791923 4.44447 1.0675 -0.702994 0.511264 -0.116936 
278 1 2.87484 2.18864 1.88148 -0.52675 -0.252395 0.0785126 
279 1 0.492602 4.17365 3.98082 1.88171 0.20579 1.34782 
280 1 6.10462 8.26939 7.34822 -0.914365 -1.17831 -1.56787 
281 1 0.0750135 5.53526 9.16287 0.834406 -0.996549 0.123947 
282 1 6.12518 0.628607 5.16518 -0.540634 0.340964 -0.177078 
283 1 0.516543 1.05162 0.458037 0.0689632 1.31837 -0.721885 
284 1 2.37234 4.18159 4.35171 0.892887 0.662702 -0.526377 
285 1 5.50888 9.16092 1.20768 0.353733 0.028637 0.742169 
286 1 3.3621 8.32276 4.70134 0.577592 0.16512 0.0359729 
287 1 5.83403 2.88415 7.29521 -0.322459 -1.36613 0.0347464 
288 1 7.26001 7.71761 7.67142 -1.96757 -0.390045 -0.672137 
289 1 3.09896 7.40953 4.84892 -0.28274 -0.600168 0.360535 
290 1 7.03444 0.564853 2.21685 0.363988 -1.21724 -1.32432 
291 1 4.27313 1.18713 4.53643 -0.221219 -0.274324 0.345129 
292 1 3.74305 8.15265 6.94863 -2.0427 -0.959036 1.57594 
293 1 2.38075 3.72149 5.19781 1.80646 0.230644 0.99876 
294 1 1.62938 1.96694 4.97231 1.16124 -1.0208 -0.846388 
295 1 0.742148 4.30157 4.95941 1.40703 0.386547 1.53698 
296 1 3.62432 1.37927 0.315362 0.389714 -0.781157 -0.688681 
297 1 6.12677 6.33728 0.631045 -0.48699 -1.25899 -0.0997 
298 1 7.47323 7.17243 2.41226 -0.697188 -0.915571 0.862653 
299 1 7.1326 8.79373 8.82416 0.500278 0.721589 0.412453 
300 1 0.404398 2.75325 0.352125 0.326607 -0.936788 -1.5153 
301 1 0.882576 5.50015 6.16459 -0.886273 0.122897 0.546772 
302 1 5.31369 0.487847 0.630159 0.694055 0.896382 0.0961701 
303 1 4.42407 2.8975 4.75427 0.568131 -0.0600233 -1.87634 
304 1 7.92089 7.98975 7.05581 -1.29125 -1.13189 1.06603 
305 1 8.11547 4.80912 0.617747 -0.809064 0.23703 0.141194 
306 1 1.8202 8.42863 0.270228 0.946554 0.329652 -0.450423 
307 1 9.13636 5.66138 8.14022 0.765712 0.0300975 -1.05258 
308 1 6.34641 6.0574 6.41816 -0.741524 0.084334 0.201467 
309 1 3.81498 7.90834 0.250284 0.65631 1.05277 1.50692 
310 1 9.13433 7.01778 3.03183 1.21542 0.309565 -1.37889 
311 1 0.208434 7.13152 2.15462 0.658498 0.44393 0.308875 
312 1 6.30266 2.02419 2.24166 1.28906 -0.973539 -0.461472 
313 1 9.07079 6.73628 6.73954 -1.20712 1.5427 -0.343181 
314 1 7.67248 2.29719 0.0416834 0.314439 1.64618 0.790969 
315 1 0.633936 6.89144 4.30565 -0.57698 -0.398417 -0.622081 
316 1 7.06634 3.57719 1.77591 -0.29632 -0.490493 0.228706 
317 1 0.920878 5.64526 7.19329 0.678275 -0.817642 -0.918973 
318 1 6.60658 2.76815 3.79158 0.264736 1.09973 -0.410458 
319 1 6.549 1.87353 1.29237 0.167928 -0.599595 0.0391169 
320 1 5.41441 2.13529 6.46075 -0.291952 0.639895 1.55871 
321 1 0.838197 4.22738 8.48447 -0.49382 -0.471461 -0.2114 
322 1 6.36237 2.43997 8.94723 0.124504 -0.0999426 0.822067 
323 1 3.08303 4.62053 4.84968 -0.970681 0.0522967 0.434353 
324 1 7.11173 1.4586 1.93281 1.78475 -0.704076 -1.82587 
325 1 3.53275 6.30938 8.44738 0.176927 -1.3352 -0.875409 
326 1 3.55226 8.477 8.86807 0.0630914 -0.271006 -0.250204 
327 1 8.47466 9.29715 5.21805 -0.912762 1.09572 0.332854 
328 1 4.18504 3.45462 1.73955 0.18134 0.532679 -0.302335 
329 1 5.1876 7.09048 1.28384 0.578741 0.542094 -0.162617 
330 1 8.11125 8.25823 6.12931 -1.57357 0.498785 0.733437 
331 1 2.45225 0.557549 2.03892 0.197509 0.708901 -0.00863538 
332 1 4.1072 7.70934 8.71847 0.565172 0.237559 -0.827163 
333 1 0.973841 0.0958228 2.98048 0.556112 0.561131 0.279887 
334 1 6.57367 2.47227 7.74772 -0.142489 0.410943 -0.912247 
335 1 2.23825 7.81207 9.03718 0.784015 -0.0718408 -0.617338 
336 1 8.20933 7.89843 8.01754 0.789439 -0.228375 0.264769 
337 1 3.35368 3.70612 7.15437 0.234698 -0.988875 1.02021 
338 1 2.22317 2.94376 8.06999 -0.370422 -0.437706 -0.236048 
339 1 2.20027 5.97406 2.57239 0.0468404 -0.0851598 -0.455969 
340 1 5.64173 4.18481 4.63963 -1.18952 1.22641 0.893568 
341 1 8.28052 1.05681 3.32929 -0.35647 0.145426 -0.161315 
342 1 6.93517 5.894 0.745892 0.388287 -2.03216 0.169373 
343 1 7.33035 4.26135 6.10587 -0.44158 -2.33938 0.462115 
344 1 6.16155 4.53448 7.3516 0.89273 -2.57799 0.0244854 
345 1 7.37389 1.38345 1.02537 0.0054123 0.875064 -0.513472 
346 1 8.40686 3.04198 7.56622 -0.357127 0.244544 -0.0571924 
347 1 8.81756 4.81311 7.89176 0.492019 -0.14917 1.05986 
348 1 8.7486 3.07954 4.71126 -0.226129 0.798026 0.670889 
349 1 8.22525 5.85832 1.79109 0.240759 -0.183881 -0.206783 
350 1 5.67516 5.83705 4.30005 -0.21379 1.51774 -1.34297 
351 1 5.40821 1.75234 2.54874 -1.67525 0.0835194 -0.0119495 
352 1 6.00258 1.29048 3.10585 -0.637681 0.483715 0.529823 
353 1 5.83016 8.01278 8.24932 -0.964212 -1.78897 0.252555 
354 1 6.93484 5.12168 1.24727 0.272478 -0.0181203 0.909909 
355 1 6.2485 8.51214 6.43528 -0.178025 1.38131 -0.491411 
356 1 0.130414 4.20456 7.82385 0.17418 1.25592 -0.806596 
357 1 6.7961 2.36829 6.05233 -0.065044 -0.200586 1.02502 
358 1 4.68423 3.44952 2.96671 -0.0400745 0.475812 -0.380544 
359 1 8.2397 3.46304 2.35734 -0.00376556 -0.822132 -0.151694 
360 1 8.10401 6.79793 1.81554 0.70061 0.351019 0.675079 
361 1 4.91903 1.0681 2.10455 -0.480447 1.30501 2.26692 
362 1 6.27403 5.86286 2.6391 0.641874 -0.987572 -0.00642381 
363 1 3.83778 3.31833 5.36339 0.241609 0.350305 0.848516 
364 1 6.97962 4.28908 3.62364 -0.986981 -0.914845 -0.172991 
365 1 2.36474 5.1619 1.9738 0.711586 0.0673403 0.205204 
366 1 4.93757 4.60421 5.16108 0.227643 1.12032 -0.53841 
367 1 6.85863 7.1974 9.13827 0.0336183 -1.13197 -0.285814 
368 1 5.0297 4.59049 8.95313 -0.180095 -0.773024 0.729702 
369 1 0.86394 6.9984 3.12795 -0.101833 1.44413 0.150103 
370 1 0.769134 3.56617 5.55032 0.428258 -0.405488 0.143555 
371 1 1.49267 9.09669 0.892053 -1.30907 0.910983 0.831346 
372 1 4.49276 6.39712 1.09016 0.46579 1.18103 -0.0717682 
373 1 8.58192 4.82996 3.15851 0.854562 -0.330593 0.930237 
374 1 5.60795 7.53872 5.6662 0.00470594 -0.794632 -0.126839 
375 1 1.06302 5.07757 3.85664 -0.131138 -0.351052 0.0748066 
376 1 7.75964 2.56045 6.12545 0.0474776 0.923093 0.389853 
377 1 6.44718 4.22837 1.37223 2.13725 -0.673132 -0.534119 
378 1 0.499693 1.05255 1.3845 -0.740374 0.744578 0.766043 
379 1 8.68833 4.84887 6.94921 -0.627584 1.06796 -0.0277823 
380 1 7.38986 1.78689 4.44676 0.251201 0.208076 -0.375057 
381 1 2.47611 3.75447 0.282041 -0.51627 1.16767 0.684883 
382 1 1.30115 6.31139 3.62731 0.230591 -0.482891 -0.807032 
383 1 5.4223 8.51542 5.94419 0.409355 0.0348919 -0.133649 
384 1 6.12183 7.33123 3.65556 0.551404 -0.459801 -0.756364 
385 1 1.87508 1.87063 4.00971 -1.23126 -0.597183 0.253906 
386 1 0.980319 2.73395 5.0613 -0.610144 -0.294959 1.07858 
387 1 6.87437 2.40243 2.93444 1.06493 0.170273 0.00586549 
388 1 1.57845 1.13535 1.71145 0.819727 -0.200712 0.832856 
389 1 0.226019 3.80737 1.54126 -0.242919 0.371697 0.0345584 
390 1 7.65404 8.25373 0.0438933 0.209832 -0.0927715 -0.305048 
391 1 7.02319 8.51426 7.0621 -0.029843 -0.436357 -0.473974 
392 1 1.55723 5.47355 3.12875 0.540436 0.0234439 0.0202013 
393 1 5.06677 7.04454 6.25465 0.719341 -0.637587 1.44656 
394 1 6.53016 8.06843 9.04065 -0.241056 -0.74343 0.253926 
395 1 8.54028 6.42275 8.00111 0.647488 0.867865 -0.60666 
396 1 7.72335 5.24577 2.37027 -0.323877 -0.606494 -0.428607 
397 1 4.27278 3.48343 7.16737 -0.353259 -1.71179 -0.931258 
398 1 1.27855 0.673717 0.919315 -0.240566 -0.524252 0.751249 
399 1 5.10698 3.05057 7.9278 -0.104725 -0.100382 -0.705255 
400 1 1.32031 7.93084 0.970965 -0.762378 0.298942 -0.784737 
401 1 5.83227 2.20679 4.13026 0.514713 2.14167 0.597393 
402 1 2.16586 5.03972 4.73755 1.03197 -0.701908 -1.74479 
403 1 3.77094 6.7772 3.61536 0.108687 -0.86804 -0.888305 
404 1 6.30306 7.42734 4.97477 -0.131726 0.11278 -0.539248 
405 1 8.71486 4.19445 6.25061 0.252385 -0.177981 0.24125 
406 1 1.09415 2.56248 1.30296 0.274102 0.67225 1.42461 
407 1 8.12637 5.70231 3.06208 -1.70213 0.453217 0.929208 
408 1 2.77457 1.85764 0.52218 -0.468915 0.745534 -0.795196 
409 1 2.90981 6.64703 2.36379 -1.28837 0.796112 -0.72586 
410 1 4.73543 5.22289 6.65818 -0.386224 0.0331353 0.790819 
411 1 2.83817 5.0737 4.06006 -0.276948 -0.838913 1.95944 
412 1 2.79463 5.6315 7.76884 1.05477 -0.46869 1.3519 
413 1 7.36012 6.3042 1.47524 0.0115421 -0.90661 0.82104 
414 1 7.24832 0.00240453 7.44937 -0.740328 -0.170228 0.848196 
415 1 2.01459 8.99359 4.15662 -0.712409 0.587009 -1.52022 
416 1 9.40196 3.36745 7.32771 -0.0267593 -1.33566 -1.49006 
417 1 2.55054 3.65342 6.28681 0.473225 0.741577 0.177246 
418 1 5.58066 1.25542 8.59431 1.37648 0.186414 -0.16249 
419 1 8.69023 3.42052 1.35487 1.54611 0.771458 -0.44028 
420 1 7.81195 1.10137 2.48356 -0.295394 -0.183904 -0.0115822 
421 1 7.04896 5.61469 8.59623 0.935641 -1.01777 0.16137 
422 1 5.19688 5.45111 8.50764 -0.682359 2.03475 0.118532 
423 1 4.28459 6.73947 6.63579 0.585955 -0.779562 0.818524 
424 1 0.183057 7.48246 3.70932 -0.664675 1.06097 -0.787668 
425 1 6.24488 0.00430473 1.98244 -0.242675 -0.083334 -0.716518 
426 1 3.46689 5.49715 4.62814 -0.414045 -0.644755 0.183977 
427 1 5.34175 5.04722 1.34601 1.04697 -0.978492 1.15205 
428 1 5.11522 9.03269 8.77736 -0.483148 -1.99749 -1.57481 
429 1 5.65794 5.4701 6.71214 0.0946206 -0.338703 -0.625301 
430 1 5.01811 6.15631 6.88165 -0.514235 0.18543 -1.14454 
431 1 2.60271 2.1037 4.99661 -0.430495 -0.232472 0.197688 
432 1 1.43016 6.40752 6.90251 1.89556 0.366151 1.88568 
433 1 9.23115 8.9288 1.61842 -0.0335561 0.151017 -0.0727616 
434 1 7.08772 0.548375 5.2168 -0.875918 -1.2243 1.79552 
435 1 5.96412 7.34111 7.5109 1.12682 0.290118 -0.969645 
436 1 6.66911 1.54143 7.39958 0.292708 0.58893 0.385415 
437 1 6.12186 1.61495 9.29679 -0.501867 -0.0469687 -0.812916 
438 1 1.93351 0.335827 0.238694 0.375441 -0.498541 0.182083 
439 1 7.81452 8.74981 1.91563 -0.182719 -0.646832 -0.354192 
440 1 1.4639 8.6024 1.71565 -0.884784 0.138231 -0.0637864 
441 1 7.29884 5.15508 4.02471 -0.126404 -0.641876 0.655676 
442 1 8.2787 4.9654 4.7996 -0.906548 -1.03427 0.362572 
443 1 5.0098 0.911654 3.99327 -0.370153 0.384924 1.10653 
444 1 2.25582 4.04086 8.72929 -0.0668823 -0.582895 -0.433768 
445 1 5.46413 8.20639 9.12147 -0.38995 -1.3102 -1.21273 
446 1 0.164989 5.92621 6.70595 -1.00364 0.539456 1.45016 
447 1 1.77655 7.66275 1.78333 -0.340246 -0.156452 -0.760841 
448 1 4.96957 0.0743577 1.97281 1.54132 -0.998032 -0.0312596 
449 1 0.727171 5.89863 4.30887 -0.366477 0.7844 -0.679079 
450 1 7.17151 2.38782 1.95417 -0.923755 0.536023 0.682489 
451 1 7.36579 2.26282 5.28954 -0.381612 0.532443 -1.00732 
452 1 4.75423 4.27073 1.54024 1.62198 0.217336 0.716919 
453 1 5.73104 3.76612 7.68693 -0.101442 -0.720144 -0.749413 
454 1 0.411669 2.90551 2.88523 0.361563 0.662832 0.869607 
455 1 5.42661 8.78264 6.91416 -0.581529 0.0339973 -1.09492 
456 1 1.72404 3.66791 6.86752 -0.389803 -0.279904 -0.5352 
457 1 3.81812 4.10107 6.42756 -0.148174 1.68924 -0.34727 
458 1 5.84766 7.95203 2.77672 0.733406 -0.378421 0.637526 
459 1 7.69215 6.75448 6.12258 -0.867507 0.149838 0.334684 
460 1 3.90837 7.62504 4.3305 1.07631 0.0302558 -1.44646 
461 1 3.89731 4.13389 1.09664 -0.54559 0.369381 0.142394 
462 1 0.863646 4.73897 6.82209 -0.0449562 -0.517211 -0.635911 
463 1 2.96696 4.53386 6.43136 -1.16156 0.887794 -0.283245 
464 1 7.99836 1.75197 1.71248 0.13304 0.352986 0.454085 
465 1 0.982029 3.62696 3.31338 -0.276116 -0.517573 -0.795903 
466 1 8.61493 3.34689 6.69991 0.541425 -0.409203 0.35077 
467 1 5.25011 7.24146 8.17175 0.519743 0.272976 -0.0799396 
468 1 9.05871 8.46317 5.0287 -0.0149829 -0.420506 -0.159061 
469 1 0.154052 3.5999 4.69118 0.85618 0.606061 0.266661 
470 1 6.25055 6.37085 3.46264 -1.51281 0.471046 -0.0705017 
471 1 3.57254 8.31421 3.7016 0.105418 -0.253838 0.532477 
472 1 7.8313 3.00187 1.60252 0.433008 0.556235 0.25569 
473 1 4.71529 4.38554 6.20496 1.95137 0.142889 -0.326635 
474 1 0.157508 2.64663 4.47143 0.387918 -1.10432 -0.163653 
475 1 3.2117 3.70185 4.71423 1.53785 -0.385465 -0.825279 
476 1 7.34709 3.35143 3.48157 -0.281102 -0.920296 -0.241435 
477 1 9.01146 1.3254 0.459314 -0.116354 -0.141761 0.710796 
478 1 0.0526582 0.0239632 2.95047 0.538799 -0.823859 -0.432404 
479 1 8.31602 1.98664 3.48788 1.13025 0.03117 0.329938 
480 1 3.82911 7.48957 6.25764 0.407425 0.709025 0.647131 
481 1 7.93138 7.78248 1.84401 -1.4592 -1.31017 0.743331 
482 1 6.77697 8.70345 4.33242 0.197311 -1.56843 1.15523 
483 1 8.64373 2.82366 5.83335 -0.642201 -1.1513 0.349471 
484 1 9.21761 5.68515 4.00215 0.377374 -0.333293 -0.301285 
485 1 8.57126 8.30871 2.29393 -0.260976 -0.632581 -0.534509 
486 1 8.37711 7.72713 4.61805 0.022658 -0.941174 -0.305271 
487 1 0.043239 4.21851 6.86645 -1.32889 -0.0729157 0.213814 
488 1 7.06195 8.04411 5.15095 -0.191274 1.15435 -0.67326 
489 1 6.50133 0.716179 6.04227 0.0517253 0.0733497 -0.704336 
490 1 9.35442 8.94684 0.653823 -0.31853 -0.328831 0.263764 
491 1 7.42208 0.360045 0.679325 -0.670584 0.0527215 0.547246 
492 1 7.39576 4.57129 4.78509 -0.890555 1.20761 -0.740803 
493 1 5.49073 8.83736 7.89752 -1.52912 -0.572523 1.07551 
494 1 0.0890027 5.94324 1.02605 0.621065 -0.886777 0.845045 
495 1 1.57994 4.77194 1.50671 0.478066 1.25925 -0.630596 
496 1 0.748434 6.99116 5.23275 -1.19109 -0.159442 0.0791796 
497 1 1.18515 2.46241 2.52482 -0.631129 1.304 0.90183 
498 1 5.76919 3.11383 9.23366 -0.6589 -0.468279 0.595337 
499 1 5.62861 4.866 3.97761 1.28179 1.25931 -0.946482 
500 1 8.19024 1.33471 4.22193 -0.381589 1.04962 -0.00583894 
501 1 5.09453 9.38881 6.20651 -1.20416 1.37898 0.515896 
502 1 6.39399 4.61719 0.50022 0.669447 1.06217 1.62976 
503 1 5.59191 5.78294 9.39333 0.414345 -0.314649 -0.894217 
504 1 7.62108 7.52661 3.73654 0.789466 -1.51429 -0.420779 
505 1 4.96531 0.955155 3.05695 -0.72859 0.83129 -0.0991864 
506 1 5.90833 0.238053 6.66506 -0.565808 -1.33246 -1.50033 