ITEM: TIMESTEP
2754
ITEM: NUMBER OF ATOMS
1000
ITEM: BOX BOUNDS pp pp pp
0.0000000000000000e+00 9.4000000000000004e+00
0.0000000000000000e+00 9.4000000000000004e+00
0.0000000000000000e+00 9.4000000000000004e+00
ITEM: ATOMS id type x y z vx vy vz 
1 1 5.75899 3.58275 8.85758 0.642119 -0.0525615 1.12223 
2 1 6.45873 9.33814 3.07367 -1.37282 0.158069 0.20045 
3 1 2.7316 1.16015 7.31487 0.528354 0.303783 0.171476 
4 1 4.17314 3.60206 1.5214 -0.419827 -0.0514868 0.239591 
5 1 9.14397 7.16977 2.98434 0.771065 0.382849 -1.35032 
6 1 1.07399 1.71052 1.68221 -0.156299 -1.48325 -0.573272 
7 1 0.556769 0.97565 7.69 0.405061 0.531011 -1.17524 
8 1 4.01541 7.74366 0.923987 -0.304846 0.303736 0.453904 
9 1 0.0492151 9.3586 5.34861 -0.129009 1.30426 0.175756 
10 1 1.93398 3.82543 1.22978 -0.34496 1.0853 1.11849 
11 1 4.28025 2.92503 9.16964 0.146256 -0.210386 0.450049 
12 1 6.65545 6.80378 6.89997 -0.0217058 -1.07263 -0.599283 
13 1 6.18573 6.71596 1.58608 -0.432497 1.15177 0.163468 
14 1 6.17536 7.61728 6.72196 -0.805367 -0.268074 1.77022 
15 1 4.02167 9.39519 8.93701 -0.878203 0.0717021 -0.559426 
16 1 6.52351 2.39056 6.6907 0.230831 -0.431743 1.77376 
17 1 7.04698 0.542116 3.6178 -0.49375 1.0663 -0.0991853 
18 1 7.78469 2.21675 7.8947 -1.22976 -0.278636 0.817358 
19 1 6.33783 3.37426 0.190252 -1.28409 1.60609 0.781357 
20 1 5.10771 5.33383 1.64005 -0.150011 0.0855158 -0.283703 
21 1 8.82481 2.46767 5.93812 -0.114526 0.453531 0.385566 
22 1 3.76938 7.7749 4.38248 -0.460878 0.270319 0.69546 
23 1 2.0227 4.9286 5.12431 0.836997 0.337139 -0.50978 
24 1 4.67723 9.00376 3.74748 0.589226 0.81257 0.700399 
25 1 6.52445 4.81392 5.36378 0.0367103 -0.16825 1.09957 
26 1 3.89859 5.32606 6.58626 1.1654 0.401397 0.122295 
27 1 5.23289 5.21512 0.679221 -0.410051 0.19708 -1.22789 
28 1 6.59008 1.579 0.82802 0.296628 0.196674 0.180382 
29 1 1.69431 7.15695 2.2221 0.408938 1.60336 0.774189 
30 1 6.86919 8.90645 1.23045 -0.706017 0.0855633 0.724144 
31 1 0.346582 8.38436 5.0356 0.320015 -0.389427 -0.867363 
32 1 5.63481 3.74064 7.15865 0.322014 0.562969 -1.12605 
33 1 8.58601 1.81071 2.30955 0.558906 -1.0553 -0.297387 
34 1 3.95238 0.308375 2.30981 -0.682445 -0.435999 0.358809 
35 1 8.55857 8.28684 4.31466 -0.492258 0.820945 -0.205614 
36 1 4.03878 4.36386 6.52924 -0.00598713 -0.612383 0.620551 
37 1 4.90132 5.543 5.24701 -0.0283275 -2.20186 -0.526856 
38 1 6.17186 7.29065 7.60484 -0.0771884 0.490142 -0.467308 
39 1 3.51765 2.3222 9.00203 0.933366 -0.955485 -0.447398 
40 1 6.74476 7.15795 5.93335 -0.318364 -0.34349 -0.573765 
41 1 2.6232 3.10976 9.01101 0.644502 -0.209824 -1.48251 
42 1 9.36929 1.53205 4.48913 0.374357 -0.582777 -1.03986 
43 1 3.93459 8.59024 0.511003 0.129423 0.347216 -0.577615 
44 1 0.503335 1.1324 5.1732 0.176887 0.214152 0.032099 
45 1 7.70408 6.01283 2.2951 0.981861 1.20327 -0.00128195 
46 1 7.507 7.85979 0.10713 1.04761 -0.564042 0.848564 
47 1 7.15328 8.03407 3.57312 -1.32298 -0.352931 0.35137 
48 1 1.93907 1.20457 5.31872 0.210148 0.682197 -0.355268 
49 1 2.52473 2.17959 9.03497 1.20713 1.2243 0.583261 
50 1 2.15263 9.20446 0.123149 0.747538 -1.00814 -0.902813 
51 1 2.6754 9.09706 1.54817 0.609211 0.0783167 0.982482 
52 1 5.60246 9.13009 5.0801 -0.954525 0.204141 -0.170834 
53 1 5.68201 4.03098 0.420813 -1.31352 -0.145522 1.53662 
54 1 4.57624 8.33311 3.04164 0.155873 -0.0851368 0.271885 
55 1 7.17272 6.08407 0.405296 0.247978 1.63554 -0.182117 
56 1 1.5831 0.769838 4.52104 -0.0996386 0.499689 -0.695159 
57 1 0.956846 8.05098 9.11582 0.600564 -0.0756053 0.840938 
58 1 1.00905 3.84994 2.75534 1.02272 0.562188 0.359139 
59 1 6.60677 2.37559 4.25825 0.00229376 0.570651 -1.14787 
60 1 0.134094 9.09616 8.79218 -0.567972 -0.107697 -0.390502 
61 1 0.281398 8.83067 1.13845 -0.042107 -0.0375742 0.31313 
62 1 9.35546 8.1567 9.10826 -1.0125 -1.33746 1.17583 
63 1 5.06565 3.87668 1.9672 -0.19664 -0.851539 0.891485 
64 1 1.24204 2.16526 6.43097 -0.339351 1.68587 0.737965 
65 1 1.86655 2.30521 1.39199 -0.556174 0.417729 0.540663 
66 1 3.56622 2.11871 2.06956 0.832772 0.667226 0.253836 
67 1 1.95478 6.57008 4.47338 1.64664 0.194252 0.554945 
68 1 0.0290525 2.75485 2.42252 0.688744 0.474464 -0.0792878 
69 1 5.84338 7.85911 8.67549 0.892171 0.723239 -0.949389 
70 1 6.75388 9.14457 2.13834 0.269311 -0.287388 -0.564969 
71 1 1.28757 4.36142 5.06731 0.582084 0.421098 -1.29668 
72 1 5.812 6.35114 7.94867 0.280343 0.0754749 -2.20415 
73 1 2.37563 8.93383 6.37306 -0.421786 -0.50188 -1.26397 
74 1 8.12137 0.960326 5.74909 0.725675 -0.663965 0.821051 
75 1 4.11868 6.21655 7.88701 0.665882 -0.991205 -1.13259 
76 1 4.93947 2.27322 7.8382 0.73572 0.865885 -1.54328 
77 1 4.69192 7.67049 4.8435 0.728717 -0.155263 0.7243 
78 1 5.88091 0.892065 6.44517 -1.40535 -0.686461 1.4991 
79 1 3.37415 0.587731 3.17192 -0.356553 1.0869 -0.614407 
80 1 8.01876 1.29356 1.78525 -0.18085 1.0194 -0.0743124 
81 1 6.24762 1.17851 7.97724 0.227219 -0.161182 -0.674842 
82 1 3.22426 0.584681 8.52614 -0.339028 -1.00432 -0.551131 
83 1 9.16296 1.75608 5.41043 -0.290547 -0.245517 0.146628 
84 1 0.0830872 8.28937 4.05581 -0.410328 -0.833621 0.430897 
85 1 7.33739 3.69729 1.46965 -1.52417 -0.542306 -0.187349 
86 1 5.25269 0.672051 3.19667 -0.673251 -0.767567 -0.793977 
87 1 3.15394 0.70408 4.14455 0.502564 0.713009 0.0640144 
88 1 8.16335 1.83708 0.0349422 0.516144 1.6623 0.669131 
89 1 7.74196 2.69018 0.0830029 -0.869136 -0.113695 0.679325 
90 1 5.12972 5.08061 8.45518 -0.71255 0.486591 -0.615651 
91 1 2.05426 8.93791 3.5475 -0.449699 1.43031 1.69014 
92 1 5.54239 6.17839 2.06521 -0.900239 0.86642 1.03622 
93 1 5.6851 4.71824 3.17172 -0.44108 -0.492576 0.298408 
94 1 9.36734 7.49896 4.6091 -0.114791 0.400966 -0.501975 
95 1 1.16577 2.71638 8.042 0.960543 0.63276 0.656466 
96 1 0.509365 0.941093 1.70733 0.583855 0.796169 -1.8642 
97 1 5.62666 4.99114 5.01112 0.073127 -2.11432 -0.848314 
98 1 8.20699 0.17048 0.3546 -0.688487 0.671112 0.0981042 
99 1 8.42108 0.487776 8.42796 -0.121912 0.320492 0.691102 
100 1 3.67694 0.0668473 0.652551 0.783441 0.167602 -0.138879 
101 1 3.59692 1.60141 4.89677 -1.2983 0.691069 -1.578 
102 1 5.61022 5.94623 6.41599 0.911583 -1.3056 -0.221321 
103 1 2.91716 8.27398 2.10346 -0.233249 -0.821534 -0.534005 
104 1 8.94286 9.20322 7.98262 -0.447998 1.00157 1.8229 
105 1 4.3519 1.55007 7.67716 -0.226804 -0.981554 0.32678 
106 1 4.80352 0.545991 7.9288 -0.387903 -0.299709 -0.524088 
107 1 1.56719 4.01275 6.57285 -1.27551 1.44494 0.295629 
108 1 5.29466 1.36966 7.77333 0.718884 -1.03833 -1.1414 
109 1 1.54325 8.56787 2.70551 -1.62194 -0.759221 -0.605193 
110 1 9.29026 0.323591 2.78662 0.0719059 -0.180233 0.27605 
111 1 6.84938 6.57368 2.71197 0.645203 0.104912 0.119306 
112 1 0.712497 2.65674 7.09222 -0.362212 2.00635 -1.19617 
113 1 7.3409 8.11795 1.01454 -0.307516 -0.0362392 0.365626 
114 1 6.18637 3.64349 7.97416 0.247107 -0.235937 -0.717526 
115 1 5.07071 7.47497 9.04735 -1.07745 0.712058 -0.343085 
116 1 3.04594 9.21159 3.7358 0.120851 -0.00632486 0.558305 
117 1 7.62194 6.73473 0.957457 -0.988336 -0.396763 -0.45008 
118 1 0.814446 2.00049 2.53965 0.121591 -0.00074672 0.15324 
119 1 5.10644 2.84677 8.61975 1.26559 0.100904 0.685123 
120 1 8.08912 0.67587 2.48467 0.12916 -0.0838517 1.1393 
121 1 6.68682 3.43616 2.24622 0.010486 -0.570208 -0.0791047 
122 1 0.818748 0.175198 8.18835 0.620958 0.2963 -0.151663 
123 1 4.02403 1.57532 9.35404 0.0410069 -1.14081 0.200436 
124 1 7.01132 7.03445 0.172431 -0.778729 -0.317667 -1.4819 
125 1 0.0265894 2.90426 3.98806 0.119537 0.979261 -2.10174 
126 1 3.68983 0.162807 7.07942 -0.757095 -0.682631 0.9383 
127 1 2.23769 4.08606 7.23969 0.351817 0.0572793 1.25444 
128 1 2.52294 2.16211 7.46181 0.617126 -0.544423 0.498924 
129 1 7.20904 8.7652 5.00286 -1.62267 0.502988 -1.25094 
130 1 6.54483 2.32489 3.29689 -0.882096 1.0006 -0.25504 
131 1 3.86361 4.80021 2.63949 -1.27137 -0.687585 0.867466 
132 1 5.78895 2.70351 2.84167 0.265652 -0.321285 0.545927 
133 1 0.0711405 6.28997 2.91409 -0.56562 0.129995 -0.578722 
134 1 4.89362 2.24511 9.38408 -0.119542 -0.232956 1.26601 
135 1 7.48844 0.31954 1.80113 0.188065 -0.45546 1.09042 
136 1 7.88773 4.95757 1.12981 -0.356883 -1.11426 0.00907131 
137 1 2.4655 6.32296 5.60236 0.250081 0.388655 0.506183 
138 1 4.97234 0.630106 0.930504 -1.09332 -0.57905 0.258806 
139 1 8.07342 4.41155 2.79695 -0.928965 -0.701445 0.752847 
140 1 6.28133 8.4963 5.1693 -0.649346 -0.954397 -0.672701 
141 1 4.38673 6.8654 3.89439 -0.572814 -1.09197 -0.746527 
142 1 3.03404 5.53281 4.09645 -0.980136 0.422517 0.823709 
143 1 5.74755 2.68788 9.3469 -1.13822 -0.0274854 -0.452868 
144 1 8.26646 1.9981 3.22516 0.81811 1.981 -0.296028 
145 1 9.19896 4.62486 4.9672 1.25345 -0.617194 0.356333 
146 1 5.80734 2.88928 1.91328 -0.541488 0.290621 -1.32793 
147 1 0.783287 0.290898 4.81935 1.73504 0.882467 -0.0890295 
148 1 3.18012 8.77394 7.36001 -0.328432 -0.485484 1.43874 
149 1 0.893151 0.551061 6.82627 -0.326247 0.41902 -0.594813 
150 1 9.15897 4.32272 3.4031 0.450775 -0.325512 0.395571 
151 1 2.44154 0.757852 1.47165 1.00955 -0.435916 0.437125 
152 1 0.0703577 3.17217 6.27992 0.419053 -0.348466 1.38835 
153 1 2.38318 1.46972 0.317975 0.780971 -0.624799 0.624206 
154 1 1.16359 3.85585 4.28924 -0.316819 -1.27005 0.433796 
155 1 7.60057 7.88186 2.65512 0.48058 -0.584376 -1.49464 
156 1 4.08423 0.915247 0.795666 0.579525 0.0892557 -1.23207 
157 1 8.44822 8.36542 2.52644 2.39104 0.834551 0.775621 
158 1 6.43132 5.51635 4.69728 0.864262 0.695741 0.286532 
159 1 5.23288 1.31277 4.83263 0.172737 -0.514094 -0.090308 
160 1 8.45783 6.59704 3.64578 0.281512 0.77974 -0.696049 
161 1 3.85853 1.22931 3.725 -0.185075 0.810314 0.338578 
162 1 4.3267 6.31222 5.42972 0.462321 -0.371188 0.335421 
163 1 6.49103 6.2285 6.166 0.68783 -0.5563 -0.406956 
164 1 3.2533 7.37983 2.37259 0.0999245 1.97922 -0.0472105 
165 1 7.9069 1.15132 8.8405 0.393902 -0.109891 1.35416 
166 1 6.60738 0.411118 1.4216 -0.659064 0.840136 -0.132991 
167 1 2.45684 3.97685 2.88774 -0.732753 0.689751 0.589288 
168 1 5.69563 1.96285 6.34976 -0.694905 -0.74137 0.575491 
169 1 2.72457 1.57405 8.18458 0.703616 0.569464 -0.0367982 
170 1 4.3534 0.0679848 1.41562 0.363809 -1.0804 -0.541179 
171 1 3.41499 0.4583 6.06354 -1.01631 -0.564381 0.0549885 
172 1 0.590947 4.87076 5.44518 0.8365 0.839195 -0.0427567 
173 1 5.70952 1.76009 3.221 -1.39372 0.375658 -0.405437 
174 1 4.58209 5.01484 9.2628 -0.733035 -0.408084 -0.614812 
175 1 5.49087 0.583219 7.25242 -0.478613 0.535786 0.17472 
176 1 3.58031 2.26961 5.59573 0.19184 1.17657 0.55273 
177 1 4.3253 6.8204 1.01184 0.442652 0.602821 -0.385318 
178 1 7.50768 2.0459 8.76119 -0.664031 0.148707 -1.61851 
179 1 3.80595 7.96325 1.8293 -0.031721 0.0894639 -0.25539 
180 1 2.35143 0.385831 4.9854 0.720755 -0.843992 -0.299234 
181 1 3.27965 2.8827 0.311304 -0.166648 0.206039 0.783829 
182 1 1.48293 0.7748 1.57338 0.111386 0.222971 -0.0897565 
183 1 3.15506 4.64997 6.93023 0.502365 -0.99374 -0.968145 
184 1 1.27237 1.05255 8.38586 -1.40424 0.0176836 0.579743 
185 1 6.18643 0.0938448 9.077 -0.720475 -0.759316 -0.707245 
186 1 6.62471 1.51459 6.35895 0.703821 -0.130365 0.584322 
187 1 1.99283 8.40674 1.8619 -0.096086 -0.0538723 1.6283 
188 1 3.21426 1.28761 1.75451 -0.347362 -0.766852 -0.404635 
189 1 5.79119 3.6186 2.51237 -0.228764 -0.113263 0.390301 
190 1 7.12355 1.91669 1.64971 0.087494 -0.0564484 -0.944398 
191 1 4.91347 6.68721 6.47811 0.347028 0.00874292 0.41143 
192 1 1.45396 0.577947 7.60359 0.656808 -1.30051 0.287476 
193 1 6.82387 4.32962 8.23468 0.315182 -0.327325 1.16757 
194 1 7.11383 2.81107 8.19088 0.737649 0.944919 0.189494 
195 1 2.87721 6.50594 4.69775 0.68227 -2.52127 -0.846967 
196 1 2.56221 0.652734 9.2354 -1.33942 -0.00444058 -1.43797 
197 1 2.76522 4.04624 8.81246 -0.0232534 -0.293238 -0.507776 
198 1 4.96814 5.2579 4.30384 0.135829 -0.808123 0.553627 
199 1 1.74709 9.26372 8.18486 0.660893 0.504952 1.09317 
200 1 7.61797 1.99882 2.4761 0.757675 -0.281935 -0.864723 
201 1 7.59755 1.00694 0.326034 -1.01831 -1.07296 -0.118131 
202 1 4.15533 0.901966 8.55216 -1.123 -0.675966 -1.70433 
203 1 5.66837 0.445466 1.61802 -0.141189 0.381669 0.245311 
204 1 5.00423 2.33387 2.41114 0.818319 0.208963 -1.47568 
205 1 3.22573 2.02988 6.47243 1.13329 -1.33612 -0.0602949 
206 1 5.45439 6.61109 8.88064 0.492949 -0.2424 0.526707 
207 1 7.89882 1.66645 0.915099 0.367145 -0.672027 0.553561 
208 1 5.30027 2.19365 1.49361 -1.30578 -0.524823 -0.052713 
209 1 1.40473 8.26004 5.19915 -0.465382 -0.907069 -0.225655 
210 1 1.37767 3.06615 1.66231 1.48609 -1.29053 -0.44164 
211 1 4.96063 2.48129 3.33084 -0.142235 0.676132 0.128455 
212 1 7.40344 4.3619 5.34864 0.18079 0.111632 0.344932 
213 1 4.8744 0.51751 2.15409 0.53138 -0.512778 -0.117116 
214 1 3.8654 4.23591 0.81658 -0.886963 0.928859 0.0397139 
215 1 6.68447 2.99729 5.04728 0.348165 -0.32291 -0.306459 
216 1 4.03249 3.56102 5.97233 -0.403552 -0.639112 -0.0218771 
217 1 3.123 1.75868 4.09896 -1.62296 -0.475856 0.491365 
218 1 2.06848 7.98029 3.51191 -0.00527888 -0.803901 0.773712 
219 1 7.48314 8.77165 6.22125 0.898591 0.798106 1.13371 
220 1 6.27627 5.87231 7.11033 -1.18478 0.210255 -0.915269 
221 1 7.38243 0.248934 9.1796 0.842367 -1.76649 1.90191 
222 1 3.32693 1.83142 3.19145 0.143066 0.886039 -1.0029 
223 1 4.14556 5.28706 1.82966 -0.0473173 -1.78837 -1.19289 
224 1 1.67082 6.25509 3.60936 0.055143 -0.901672 -0.893594 
225 1 3.08645 3.69342 7.11964 0.0340049 0.0233655 0.561291 
226 1 4.85919 7.38706 3.22762 -2.09409 0.142866 -1.0978 
227 1 4.78467 9.27298 2.84284 -0.0982024 0.373925 0.125934 
228 1 5.62235 1.98423 5.42576 -0.738163 -1.16303 0.428313 
229 1 0.976297 1.80551 7.87949 0.0154064 1.04908 0.720687 
230 1 2.64298 3.17695 3.39106 -0.4132 -0.579552 -1.23203 
231 1 7.9375 8.40152 5.47983 -0.458301 0.781807 0.64709 
232 1 1.81195 3.72003 2.19865 -0.705361 0.954005 -1.32464 
233 1 9.26796 0.609742 4.61949 0.68059 -0.0364812 -0.542826 
234 1 0.749649 3.57555 6.8232 0.41153 -1.53147 -0.201023 
235 1 6.09916 4.13956 3.80349 -0.958652 -0.473493 0.517079 
236 1 3.13736 2.46894 1.1974 0.560201 -0.209273 -0.0466715 
237 1 8.83793 7.50898 3.85084 0.12886 0.735763 0.967612 
238 1 5.77191 7.9247 4.58459 -0.0437009 0.923928 0.415464 
239 1 5.95096 5.73326 0.285082 1.09559 1.36945 -1.16434 
240 1 5.96413 3.75798 1.57764 -0.152242 1.27907 0.592837 
241 1 2.71831 1.21357 6.26726 0.155139 0.125172 -0.281031 
242 1 5.53828 2.98777 7.76191 -0.195537 0.22813 0.0308026 
243 1 9.07684 8.1026 3.18216 0.125313 -0.66945 -0.640716 
244 1 0.217374 0.129914 7.37486 0.633132 -0.867435 -0.253569 
245 1 0.665852 0.476105 5.89159 0.792868 0.849736 0.327509 
246 1 0.745995 7.51516 5.11816 0.275048 -1.22465 -0.318143 
247 1 0.534794 8.74252 0.228127 0.133542 1.95674 0.520564 
248 1 2.03715 0.671718 2.36152 1.7464 0.178085 0.00449636 
249 1 8.25872 4.03657 1.2744 0.657569 0.552631 0.359859 
250 1 5.55694 8.79307 8.55014 -0.637871 0.330826 0.551204 
251 1 4.88044 2.70143 0.810729 -0.0696167 -0.123591 -0.564074 
252 1 3.95882 3.28293 4.28402 -0.896189 -1.55015 -0.224721 
253 1 4.87518 2.98911 1.73513 0.013707 -0.337236 0.817098 
254 1 7.11779 6.55027 1.75188 -0.656704 0.627908 -0.7612 
255 1 0.887143 0.903427 0.807081 -0.0329261 0.20373 0.32206 
256 1 8.39617 7.44924 2.2172 1.32861 -0.5072 0.828831 
257 1 8.87939 1.27948 8.91152 0.249881 -0.0378675 -0.335474 
258 1 4.7234 5.74536 6.15011 0.0908652 -1.00384 -0.174 
259 1 3.15175 1.06867 0.787554 -0.56303 0.219891 -1.07727 
260 1 6.87346 0.60953 5.3825 -0.637455 0.0505585 0.60352 
261 1 4.78833 5.04208 6.81213 0.190948 -0.439758 -1.90799 
262 1 3.74508 1.24944 2.55456 -0.242192 0.80096 -0.284587 
263 1 4.1997 8.75858 2.24226 -0.300559 0.663254 -1.50959 
264 1 0.20358 3.8181 4.09466 0.642534 0.0172348 0.0107463 
265 1 3.94739 0.0961239 7.98434 -0.22872 -0.564147 -0.612745 
266 1 4.55438 6.88232 8.4543 -0.135231 1.1932 1.97914 
267 1 1.42071 7.37411 5.74932 -0.45416 1.07431 -0.089008 
268 1 4.05772 2.35355 0.481473 -0.69463 -0.204207 0.415512 
269 1 5.1527 1.04012 8.65649 -0.449451 -0.794227 1.09803 
270 1 1.47218 2.51703 4.26593 -0.548587 0.955388 -0.731726 
271 1 4.42709 3.51723 8.43908 0.0104299 -0.0592061 0.228187 
272 1 6.95784 4.82313 1.17888 0.367203 -0.753154 0.472555 
273 1 6.49655 3.29762 3.20244 0.227144 1.5381 1.09648 
274 1 2.34117 0.424395 5.92892 -1.18739 0.177795 -0.19942 
275 1 6.08028 5.95571 3.93209 -0.211735 -0.477254 0.903286 
276 1 2.69117 5.59701 4.98617 0.19838 0.164965 -0.532594 
277 1 8.58315 0.300903 5.256 -0.399254 0.230844 1.09794 
278 1 0.731224 3.01179 4.58 -0.432495 -0.193026 -0.117242 
279 1 1.92412 3.99632 5.68624 -0.261149 -0.257211 -0.156434 
280 1 1.20324 1.4099 7.04148 -0.397919 0.387598 0.533922 
281 1 2.73302 1.43014 2.56305 -0.381944 -1.8394 -0.430795 
282 1 5.74477 4.28365 5.63828 1.13964 0.314861 0.618318 
283 1 1.77527 5.88717 5.15253 -0.666299 -0.586529 0.759129 
284 1 5.57585 7.29498 5.26844 0.0987902 -1.00718 0.344592 
285 1 6.59171 6.68147 3.61268 -0.525825 0.116548 0.241603 
286 1 8.69689 4.26284 4.26846 1.85582 -0.200388 -0.674342 
287 1 1.87564 0.689568 0.528252 0.449877 1.74749 -0.786254 
288 1 4.03445 2.68755 1.36408 0.285378 -1.98019 -0.657207 
289 1 1.3356 7.63932 2.9956 1.03622 -1.27088 -1.15237 
290 1 0.31479 1.6315 1.04466 0.664698 0.870746 1.79135 
291 1 7.30348 3.23326 3.76325 -1.03134 -0.604946 -0.286802 
292 1 6.01479 0.143649 0.757619 0.84474 -0.325995 -0.0610545 
293 1 3.32518 2.68241 3.82809 -0.232256 -0.0692942 0.341563 
294 1 0.138533 1.06689 0.221693 -0.290283 0.95179 -0.0245584 
295 1 0.496772 3.48828 1.96007 -1.51261 1.025 0.874088 
296 1 7.28172 1.3129 8.0713 0.429501 0.963897 -0.878528 
297 1 8.82029 5.73185 3.33865 0.436502 0.976521 0.383125 
298 1 1.6168 2.04019 0.176326 1.10249 1.17334 0.360392 
299 1 5.70333 6.89921 3.39747 -0.270552 0.232284 -0.198329 
300 1 1.53357 0.0959186 2.91759 0.970985 -0.369119 0.476103 
301 1 1.60541 2.31025 7.32288 0.0993308 -0.0161228 0.75102 
302 1 5.04586 3.37637 0.101827 -0.246741 -1.06896 0.700438 
303 1 0.831003 6.69277 3.36665 -1.25374 -1.27909 -0.253988 
304 1 4.58148 9.32253 0.350524 -0.642807 0.343045 0.0543202 
305 1 4.03273 5.35527 5.61161 0.519872 0.883029 -0.561872 
306 1 3.50652 1.05578 6.78081 0.127607 0.547754 -0.161954 
307 1 1.21506 1.1962 9.36488 -0.571285 0.348269 -0.661224 
308 1 7.86731 9.02127 1.30818 0.336799 -0.136858 0.812757 
309 1 1.85589 9.30434 1.06993 -0.530154 0.244925 0.388437 
310 1 0.700267 9.06751 6.46767 -0.246623 -0.0161172 -0.222737 
311 1 7.64469 5.85053 1.35299 -0.480679 0.503123 -0.521316 
312 1 4.65829 7.51535 1.57125 1.73517 0.372322 -0.325491 
313 1 6.06222 1.03974 8.9201 0.56947 0.33484 0.589033 
314 1 7.1445 5.29206 1.98341 -0.321134 0.675486 -0.00614545 
315 1 8.16656 3.40013 0.537845 0.584522 0.517777 -0.627074 
316 1 9.30557 8.72978 6.94929 -0.660439 -1.10223 -1.60833 
317 1 8.36351 2.74693 2.37993 -0.845803 -0.73821 -0.292615 
318 1 4.68477 1.95274 5.96137 0.219688 0.124681 -1.32573 
319 1 6.60615 2.46642 2.30059 -1.36766 -2.44659 0.439033 
320 1 8.90722 5.96986 4.28102 -0.832021 0.476219 2.09306 
321 1 5.82528 1.9433 2.24506 -0.804177 0.0502595 1.16146 
322 1 8.57165 9.37659 7.02601 0.405931 0.0225849 1.12452 
323 1 7.43802 2.16111 3.71932 -0.704912 -0.458073 0.183547 
324 1 1.69277 2.79897 9.04239 0.108312 1.08849 0.58841 
325 1 0.112961 4.20544 2.51056 1.13473 -0.254124 -0.328 
326 1 2.40251 3.53189 6.44138 -0.0450222 0.0620981 0.520947 
327 1 5.68927 0.101982 2.51833 0.876626 -1.10398 0.446082 
328 1 4.76796 9.00995 8.07944 0.380325 0.576067 -0.0948537 
329 1 7.4668 4.97672 3.67848 0.444794 -0.520786 -0.405187 
330 1 7.17843 3.3 0.592308 -0.137227 1.04617 0.485384 
331 1 4.88255 8.67223 6.43438 -0.233978 -0.15137 -1.5439 
332 1 7.87782 0.731636 7.29982 -0.235784 -0.404338 0.375113 
333 1 8.65891 4.34959 2.05683 -0.265342 -0.0227915 -0.227733 
334 1 5.58965 9.07579 7.58505 -0.427153 0.607721 0.501656 
335 1 6.79589 1.91666 7.51256 -0.719502 -0.711676 0.0630134 
336 1 5.82281 3.40074 5.2609 1.19206 -1.23119 -0.881396 
337 1 7.45235 1.29309 3.10697 -0.116479 0.879761 -1.63004 
338 1 2.17341 6.09149 6.525 -0.296773 0.127264 1.61732 
339 1 9.27435 1.9312 2.90733 -0.0664731 -0.643348 -1.00288 
340 1 0.917318 3.97255 5.86789 -0.226616 1.26 -0.178887 
341 1 6.28481 1.8604 9.35212 -0.174775 -0.223278 0.403733 
342 1 1.76488 3.23281 3.02969 -0.193777 0.0735582 1.32193 
343 1 3.77279 4.36119 5.52772 1.08256 0.892728 0.227381 
344 1 1.52344 7.22302 3.81707 0.117462 0.395455 0.683727 
345 1 6.60203 1.94909 8.45306 -1.06026 -1.55581 -0.000523781 
346 1 6.74649 0.534353 6.31136 -1.6945 0.169324 -0.0960668 
347 1 3.41021 6.7096 5.47455 -0.138837 0.505987 -0.357209 
348 1 3.62666 1.36651 5.86614 -1.21099 0.597156 1.47093 
349 1 8.11913 1.9419 4.47802 -0.704592 -0.821451 0.495069 
350 1 5.13667 4.16575 4.89482 -0.125771 0.116713 -0.030754 
351 1 0.166148 7.21465 0.946566 0.243962 -0.100608 0.757483 
352 1 2.32523 3.10763 7.31739 -0.318046 0.610998 0.340876 
353 1 8.20908 1.72148 6.33967 1.3399 0.307017 -0.325524 
354 1 8.31024 2.71269 3.98696 -1.12358 -0.197084 -0.348803 
355 1 4.07155 8.68539 6.96605 -0.843709 -0.373486 0.275211 
356 1 8.4439 8.43613 0.854819 -0.616017 1.05298 1.5795 
357 1 4.41351 1.29414 5.30887 0.299532 1.11464 -1.47161 
358 1 6.16097 2.71998 5.86943 -0.760403 1.12923 1.06382 
359 1 0.505185 2.91083 8.69633 -1.22637 0.167708 0.855941 
360 1 4.44512 1.94198 1.7802 -1.1535 -1.20452 -0.379254 
361 1 4.9474 3.71674 5.74002 0.567554 0.505128 0.872914 
362 1 0.282456 5.51832 4.70171 0.0389954 0.220074 0.425176 
363 1 4.53103 8.03005 3.94389 -1.62941 0.435552 -1.09039 
364 1 6.05026 7.185 0.000252529 -0.0994251 -0.00187997 0.466033 
365 1 8.18055 1.89987 5.42847 0.721152 0.0773177 -0.260689 
366 1 0.51414 2.15336 5.01692 -1.84724 -1.415 0.589435 
367 1 2.41325 7.35723 4.15666 -0.664226 -0.0675002 -0.537262 
368 1 9.16046 0.867573 5.76091 -0.606109 0.304712 0.395184 
369 1 8.73244 1.13166 2.9854 0.0426249 -1.24359 1.22954 
370 1 9.1995 8.97938 3.46795 0.267016 -0.912529 -0.420077 
371 1 4.03453 7.70366 8.49485 -0.357115 0.425103 -0.149333 
372 1 1.548 9.26443 1.97206 -0.271041 0.0137507 -0.577288 
373 1 8.19384 0.60116 1.20144 -0.132613 0.499153 1.48132 
374 1 2.46567 0.328355 3.13429 0.549017 0.234632 -0.0342281 
375 1 1.9002 2.13189 8.28596 0.772784 -0.948927 -0.581177 
376 1 5.96783 0.311877 5.71908 -0.838794 -0.764082 -2.0428 
377 1 7.99174 3.62157 2.20946 -0.950691 0.275001 -0.434416 
378 1 5.15059 6.28332 2.93179 0.777186 0.504084 -1.55635 
379 1 4.46995 6.03651 4.50929 -1.5715 -0.172199 -0.0480396 
380 1 5.62763 7.9945 0.211696 0.686584 -1.13604 -1.06622 
381 1 6.60752 7.54516 2.95866 1.06629 -1.23783 -1.30687 
382 1 0.661182 3.2728 1.00684 1.25304 1.62728 0.343255 
383 1 6.26484 7.00643 8.49475 0.737974 0.944207 0.419823 
384 1 9.04856 1.85901 0.329263 1.95569 -0.46206 -0.211722 
385 1 4.20509 4.26789 4.18526 0.334215 -1.51142 0.570652 
386 1 4.9765 6.00746 8.28247 -0.311374 -0.441584 0.799803 
387 1 7.41668 5.39951 4.61004 -1.67294 0.342947 0.280762 
388 1 3.41158 0.399513 1.48246 -0.000736364 0.621576 0.823795 
389 1 4.8738 3.30342 6.61311 -0.106444 -1.26064 1.18039 
390 1 5.34456 1.43813 0.0867529 -0.205103 0.504983 -0.132146 
391 1 5.26818 7.745 6.22751 0.788529 0.417625 0.962566 
392 1 4.38757 0.795661 7.11413 -0.0386074 -0.349621 -0.46936 
393 1 1.22994 8.58638 1.28486 0.12205 0.450606 0.413239 
394 1 2.12625 2.03256 4.8483 1.80027 -1.22555 0.484611 
395 1 7.03279 3.06129 6.05414 -0.534034 0.334412 0.22712 
396 1 4.64736 4.64098 5.82604 -0.404697 0.143981 -0.238155 
397 1 8.84034 0.716377 7.58426 0.739099 0.309844 0.974247 
398 1 8.04756 3.10284 7.61979 -0.615338 0.293076 -0.589574 
399 1 8.692 1.58014 7.16615 0.558979 0.292516 0.918602 
400 1 5.66544 7.70024 2.85956 0.727107 0.869462 -1.5162 
401 1 8.56467 3.57578 9.07615 0.375502 0.929533 -0.657572 
402 1 6.18971 1.23694 5.55898 -0.243407 1.74207 0.0252938 
403 1 8.93496 0.46179 3.6681 1.26436 -0.769411 1.10139 
404 1 6.7144 7.38568 2.05007 -0.1078 -0.94119 -1.3423 
405 1 0.338298 5.87557 3.77544 0.85988 0.413786 0.0524581 
406 1 3.31758 8.97089 6.42222 1.14997 0.06747 -1.48044 
407 1 5.32649 0.144244 4.2936 -0.255656 -0.00655964 -0.478763 
408 1 0.596795 4.62764 4.42944 0.971254 -0.9503 0.904594 
409 1 3.29687 7.90527 0.267777 -0.725372 0.500713 -0.453994 
410 1 9.12947 1.63876 6.34296 -0.00981961 -0.0540321 0.869923 
411 1 6.77673 0.512247 8.42859 0.775245 0.710136 0.781822 
412 1 6.40395 4.2868 9.23326 0.0742628 0.83698 0.398372 
413 1 3.35051 7.14255 1.28772 -0.640123 -0.0756925 0.454495 
414 1 7.03268 9.28944 6.93228 -0.0439456 -1.46806 0.554892 
415 1 5.72777 8.1388 7.78024 0.51513 -0.210929 1.85976 
416 1 3.81308 8.8076 5.63561 -0.556864 -0.27778 -0.415023 
417 1 5.39538 8.16101 1.27092 0.49471 -0.42577 1.34536 
418 1 3.48982 9.34224 4.66832 0.957301 -0.0553923 0.382239 
419 1 8.39696 4.87783 3.62273 0.535974 0.630624 1.11431 
420 1 6.88512 1.00474 7.1893 0.326057 0.310431 -1.4191 
421 1 9.25123 7.84734 2.28412 -0.268355 -0.210416 0.285467 
422 1 4.62057 6.17508 1.94142 0.085924 1.03393 1.44865 
423 1 2.08488 8.91441 5.47163 -0.876224 0.344353 0.0595797 
424 1 4.58196 0.814442 0.00391526 0.0912457 -0.663987 1.18456 
425 1 2.69114 2.56287 5.61577 0.898218 0.621493 0.413774 
426 1 7.62517 4.46161 1.9328 0.208294 -0.666905 0.265512 
427 1 6.14878 4.86348 0.673278 1.9498 0.354107 -0.805304 
428 1 8.69112 2.65758 9.30605 0.623562 -0.711902 -0.548154 
429 1 3.99681 5.27484 4.163 -0.414432 0.637311 0.00993921 
430 1 7.26603 2.78331 2.90007 0.526249 0.877679 -0.0753949 
431 1 7.75274 4.47838 4.44421 0.30135 1.14211 1.11928 
432 1 4.09822 2.4591 7.35677 -2.01606 0.498202 1.51844 
433 1 0.179692 6.49188 4.8317 -0.658648 0.312436 -0.112793 
434 1 2.78252 4.42683 5.37791 -0.41036 -0.421218 -0.966366 
435 1 5.71771 6.65678 7.03696 -0.44882 1.42945 -0.490793 
436 1 3.5946 0.719569 9.39124 0.612802 -0.936009 0.271937 
437 1 4.15677 6.91599 7.02193 0.354422 1.19954 0.466617 
438 1 5.94909 5.30809 7.87404 1.1097 0.108902 0.0681593 
439 1 6.43956 8.67403 7.38118 -0.182023 0.0560631 -0.91054 
440 1 8.04936 3.18405 3.17475 -0.0915193 -0.197779 0.245033 
441 1 0.00907521 3.26265 0.102218 -0.505653 1.0964 -0.913989 
442 1 7.65703 0.919225 4.93536 -0.59923 0.832152 -0.87321 
443 1 8.60138 8.13289 6.11337 0.201795 -0.744706 -0.464398 
444 1 5.63847 1.07482 3.97212 0.692349 -0.50557 0.130914 
445 1 8.60843 6.86595 4.54324 0.221527 -0.100377 -1.36918 
446 1 1.57028 0.0813979 6.37615 0.705409 0.479119 1.08965 
447 1 0.876985 2.8092 0.151979 0.546279 -0.680857 -0.852173 
448 1 9.26403 0.132334 6.36103 1.45955 -1.92008 -0.337448 
449 1 1.07195 5.24659 3.82024 -0.464464 -0.670544 1.66216 
450 1 3.98322 8.51833 7.98362 0.794992 0.411327 -0.884561 
451 1 5.03733 4.1974 8.93044 -0.509904 0.311251 -0.897675 
452 1 2.9737 5.58838 6.65765 -0.0534723 -0.404981 0.0214618 
453 1 7.71867 8.94328 2.32431 0.0240117 0.393073 -1.44918 
454 1 4.33413 2.80125 5.5312 1.20845 0.43382 1.2665 
455 1 3.19966 1.93496 0.411413 0.990311 -0.69906 0.910721 
456 1 5.28897 6.36182 5.60186 0.102067 -0.137591 -1.61271 
457 1 4.76875 1.53463 3.44274 -0.0272858 -1.65877 -1.13216 
458 1 2.39404 4.9535 3.56959 1.40151 -0.456162 -0.657182 
459 1 6.0884 5.99603 2.98538 -0.0950662 -0.0375666 -0.801069 
460 1 4.63598 8.63499 9.02241 0.068349 0.0634225 0.719362 
461 1 3.48345 6.25823 7.1471 0.847984 1.05258 0.21755 
462 1 5.5725 5.98706 4.73765 -0.745748 -0.856392 -0.312722 
463 1 8.00953 3.86241 6.01987 -0.280195 0.211844 -0.445177 
464 1 0.918626 7.91821 4.29332 -0.634508 0.667725 -0.16569 
465 1 6.4582 0.607644 2.34219 0.571048 0.409896 0.299811 
466 1 6.00722 5.7034 5.53031 0.745877 0.649367 0.476015 
467 1 6.04001 9.34225 6.70182 -2.09862 0.104352 0.463745 
468 1 0.876913 0.104868 1.33295 0.141293 -0.129972 0.184911 
469 1 2.40146 2.45144 0.567436 1.02288 -0.0694655 -0.0573962 
470 1 8.60958 5.83023 1.38286 -0.938286 0.29834 -0.691365 
471 1 8.73663 3.70844 2.8096 0.097782 0.0604723 0.0486121 
472 1 7.41344 0.128322 4.41457 0.731559 -1.13459 0.0448128 
473 1 0.411123 8.74262 7.91104 1.48954 0.190578 -0.400903 
474 1 0.575791 8.19623 2.81692 -0.312436 0.430028 0.412103 
475 1 5.79606 5.71681 8.73561 -0.666702 -0.95062 -0.0845609 
476 1 0.61042 1.34781 6.29095 -0.047372 -0.484088 -1.59629 
477 1 8.06891 8.19284 1.69227 0.769553 -2.18626 -0.448114 
478 1 4.23771 3.88612 2.40132 0.552327 0.427769 -0.635221 
479 1 6.10544 5.15343 1.61615 0.187045 0.792036 0.728446 
480 1 1.6483 0.4262 8.98847 0.451555 1.2119 0.527502 
481 1 4.17493 2.09604 2.81532 0.614869 -1.40913 -0.186421 
482 1 6.12686 1.61321 4.60012 0.193319 0.537879 -0.212527 
483 1 1.17294 0.0720991 0.39417 -0.678203 -0.557848 0.440487 
484 1 8.24304 1.36363 7.97104 -1.34381 -0.243594 -0.909091 
485 1 7.41282 2.8462 1.95619 -0.148909 -0.47792 1.31594 
486 1 1.63076 9.21379 4.70344 0.720441 1.59579 -0.656202 
487 1 2.23753 7.85213 2.60362 -0.0439345 0.740804 -0.826332 
488 1 4.25452 7.78416 0.0149538 -0.0789982 -0.157874 -0.483883 
489 1 4.54271 4.48507 1.44747 -0.447847 -0.908806 -1.01742 
490 1 1.06817 2.08784 8.78131 1.07696 0.904692 -0.291531 
491 1 6.54861 2.0815 5.30201 -0.300989 0.966105 -0.884045 
492 1 2.0447 3.05026 8.2142 -1.04797 0.027015 -1.34797 
493 1 8.65087 6.77759 0.955832 0.250238 0.653954 -0.775532 
494 1 4.7149 7.17045 5.65857 -1.30325 -0.999255 -0.331357 
495 1 8.08518 7.56386 0.836917 0.866858 0.312811 0.0808977 
496 1 6.56945 3.99259 0.891052 0.0181647 1.94384 0.811832 
497 1 6.78616 0.889248 4.48524 0.225809 -0.449684 1.41239 
498 1 1.2598 1.65383 4.67249 0.363159 -0.648023 -0.941919 
499 1 1.464 3.50504 7.54113 1.12258 -0.171933 0.602299 
500 1 1.48971 8.56712 6.17519 0.182487 1.32873 1.33813 
501 1 8.3856 8.19099 9.33905 -1.14417 -1.08153 1.38944 
502 1 3.52166 3.17158 5.17075 -0.948274 -0.587958 -1.80417 
503 1 7.29353 2.64531 7.19726 -1.37782 0.278889 1.61761 
504 1 3.29487 3.04817 1.93711 1.21334 0.100384 -0.0200642 
505 1 1.12494 9.12968 7.33338 0.0270448 -0.87953 0.936155 
506 1 8.24269 7.38464 3.1408 0.334542 -0.862058 -1.09928 
507 1 6.76722 7.73633 8.90177 0.819346 -0.236219 0.0302665 