ITEM: TIMESTEP
2526
ITEM: NUMBER OF ATOMS
1000
ITEM: BOX BOUNDS pp pp pp
0.0000000000000000e+00 9.4000000000000004e+00
0.0000000000000000e+00 9.4000000000000004e+00
0.0000000000000000e+00 9.4000000000000004e+00
ITEM: ATOMS id type x y z vx vy vz 
1 1 0.754818 4.33952 0.925178 0.544499 -0.900584 0.109625 
2 1 1.78195 3.2697 2.94523 0.408334 -0.551181 -0.271028 
3 1 4.09941 8.33781 8.92809 -1.51987 0.39395 0.0711604 
4 1 9.39537 3.87975 1.44861 -0.538731 0.650068 0.77311 
5 1 7.48306 7.75584 8.18687 -0.633145 -0.44759 -0.0127411 
6 1 3.56702 7.25783 2.40688 1.17655 0.4909 -1.43394 
7 1 4.72259 8.02376 5.20721 1.17687 1.55278 -0.221498 
8 1 4.81877 0.0713814 4.1282 -0.521385 -0.0884043 0.170645 
9 1 0.46827 5.32264 5.69105 -0.477276 -1.68093 -0.0244232 
10 1 7.80386 3.12567 2.17051 -0.317597 0.998951 -0.739029 
11 1 2.53538 6.07516 4.46047 -0.451071 0.254772 0.0408888 
12 1 5.41747 3.86774 9.16927 0.932671 0.0434547 0.125072 
13 1 6.97076 8.51306 1.98819 -0.32924 -0.610695 0.249342 
14 1 3.69896 5.50517 9.34862 0.335798 -0.578294 -1.22892 
15 1 6.73772 2.11726 8.10088 0.63494 0.168776 1.16156 
16 1 5.89743 7.9397 3.62413 0.725946 -0.104592 -0.684589 
17 1 0.148427 5.34769 2.4358 -0.974451 0.210258 0.0882155 
18 1 9.26505 4.24787 9.07613 -0.470129 -0.0178375 1.20032 
19 1 5.1668 6.71369 4.86469 0.123147 -0.511713 -0.629884 
20 1 5.36035 8.0856 4.42646 0.228332 1.17895 -0.783889 
21 1 6.18722 1.94111 1.72046 -0.410613 -0.120926 -0.527437 
22 1 6.23238 0.00958353 0.736383 1.58282 -0.798029 0.517449 
23 1 9.10773 1.25139 0.763067 -0.360988 0.432619 -0.270159 
24 1 5.37179 8.55262 7.44736 -0.0763883 -0.619028 -0.874059 
25 1 2.24663 1.68879 1.88692 -1.27784 -0.56881 0.0509512 
26 1 1.39844 2.72686 5.16161 0.244954 -0.218844 0.492321 
27 1 8.66251 6.27149 4.75802 0.419537 0.479645 -0.055567 
28 1 5.47303 7.57859 2.02451 -1.64843 0.512549 1.02171 
29 1 7.01756 6.76349 6.79976 0.310462 -0.129043 -0.553029 
30 1 7.91669 6.38338 6.90592 0.491388 -0.214599 -0.748393 
31 1 6.81716 2.35183 7.03271 -0.173009 0.549493 -0.752059 
32 1 3.22286 1.83462 2.06443 -0.476959 -0.482315 0.237668 
33 1 1.4522 6.33612 3.0102 -0.643285 0.184679 -1.68673 
34 1 6.01315 4.71106 9.02067 0.883582 0.0205646 -0.0807262 
35 1 4.67425 0.855892 4.78618 -0.902781 1.70206 0.0394331 
36 1 3.88433 6.14287 6.70951 -1.1653 0.158977 -0.514494 
37 1 1.65148 9.02821 1.22391 1.08965 -0.596292 0.756137 
38 1 8.9613 6.93315 1.38632 0.00126355 1.46348 -0.155236 
39 1 6.8568 7.56711 6.305 -0.0784727 0.357291 -0.328196 
40 1 2.35837 4.90833 1.29987 0.190201 1.63991 -0.735302 
41 1 2.00846 7.85833 5.2816 -0.531797 -0.630375 -0.587661 
42 1 2.20601 4.85214 6.40899 0.232676 -0.79306 0.308638 
43 1 4.83587 6.60953 3.94641 2.32387 1.70229 0.897663 
44 1 6.67769 0.851144 3.12085 0.231944 -0.806229 -0.821839 
45 1 5.43315 4.47945 1.51641 0.860234 0.225792 -0.592512 
46 1 2.56853 7.4074 8.46318 1.202 -0.05118 0.269963 
47 1 7.2892 4.95661 2.33679 -0.0749538 0.120365 -0.136945 
48 1 6.28877 3.89345 8.61989 -0.860831 -0.56756 0.382382 
49 1 9.29367 7.20624 8.24672 -1.47323 -0.456154 -1.36274 
50 1 4.68082 7.1214 7.00439 1.13149 0.873004 0.468526 
51 1 7.171 5.43787 3.15585 -0.929366 -0.278084 -1.3264 
52 1 6.36158 5.6908 7.75203 1.49426 0.359978 -1.55027 
53 1 1.03832 4.92026 2.16544 -0.758003 -0.190012 -0.368814 
54 1 8.06566 8.66665 0.958931 0.3014 0.542491 0.748616 
55 1 1.6172 4.77495 5.09727 -0.596756 0.885553 -0.0739614 
56 1 2.16825 5.28669 9.37378 -0.821822 -1.4163 0.134753 
57 1 6.35188 2.36657 2.58247 -0.535773 0.183755 -0.490436 
58 1 5.42542 6.83327 5.75696 -0.453611 -0.38361 -0.647903 
59 1 8.80777 5.41328 0.183014 -0.922244 0.67835 1.10944 
60 1 2.56728 9.21362 5.89212 -0.787753 0.410183 0.0486087 
61 1 2.48973 4.73142 5.52889 -1.80339 -0.420055 -0.698789 
62 1 2.12764 5.67131 8.20675 0.00517357 0.47669 -0.879326 
63 1 4.796 7.77883 7.73464 -0.897001 -0.249349 -0.571223 
64 1 9.39124 6.31037 4.15032 -1.57755 -0.159872 -1.10317 
65 1 4.43444 1.50655 4.13401 -0.429097 -1.47181 -0.398091 
66 1 6.26211 7.67667 4.48465 2.14358 1.05238 0.18513 
67 1 5.02406 1.88414 1.46086 -0.763557 0.285005 -0.273493 
68 1 5.37382 1.21078 4.24645 -1.68353 0.799636 -0.757446 
69 1 9.24644 4.5416 5.90185 -0.621326 0.268062 0.00714887 
70 1 6.91768 0.65004 4.12094 -1.06012 -0.627292 -0.758578 
71 1 7.77812 1.63088 9.1411 0.750992 -0.312292 0.515371 
72 1 4.56212 4.08324 4.45563 -0.200843 0.727759 -0.398764 
73 1 2.91625 0.751034 0.82745 -1.58711 2.37507 0.634966 
74 1 7.82726 3.68116 0.405669 -1.38296 -0.650147 0.276235 
75 1 6.08124 3.07015 5.41873 -0.671734 -0.0641585 1.57677 
76 1 8.00405 4.67476 1.76789 1.10839 0.537003 1.03045 
77 1 2.62408 7.98796 9.29152 1.07258 0.595853 -0.0140468 
78 1 4.61037 5.55739 8.89238 -1.05702 0.162759 0.247854 
79 1 1.44865 7.71927 8.40042 0.462172 0.132496 -0.487938 
80 1 2.37862 6.21402 3.34063 -0.692929 -1.32436 -1.03159 
81 1 4.90243 7.55887 1.23769 0.0804732 -1.73068 -0.0539013 
82 1 2.21966 4.66775 3.39762 1.60646 -0.458013 -0.953746 
83 1 3.82759 1.75377 5.95807 1.43637 -1.35154 -0.326816 
84 1 1.27124 7.09817 1.124 -0.0981183 0.000116755 0.564697 
85 1 5.7744 4.70186 2.72888 -0.811346 -1.08109 -1.86023 
86 1 6.57449 0.753955 6.8026 -0.277549 -0.662558 0.453663 
87 1 0.517697 0.371214 2.56019 0.15143 0.228747 -0.277419 
88 1 2.52696 7.41684 6.90173 -0.0602442 -0.800978 0.262143 
89 1 3.28279 8.13664 2.65605 -0.759755 0.688617 1.01471 
90 1 9.21805 8.90017 2.61289 -1.54134 -0.376019 0.500054 
91 1 4.41715 8.6242 7.42213 -0.485668 -0.016897 -1.23737 
92 1 4.01236 0.216126 7.16647 -1.08221 0.239863 0.169018 
93 1 7.17121 2.94319 5.96871 -1.31471 0.862645 -0.639512 
94 1 2.97395 5.07693 7.89821 0.225973 -0.394819 -0.644586 
95 1 3.14358 4.53202 3.05598 1.02798 0.905129 0.043752 
96 1 7.50122 7.62593 5.56354 -0.566457 0.342573 -0.423444 
97 1 6.5781 6.33538 9.32968 0.409697 0.751568 -0.803988 
98 1 6.62915 4.21598 2.58595 0.771155 1.01962 -0.291294 
99 1 8.54955 0.0701786 1.35734 0.973689 -0.48654 -1.60646 
100 1 5.85414 3.12286 2.82233 -1.11753 -1.35478 -0.561487 
101 1 4.58859 8.83111 5.75317 -0.555966 1.28471 0.210567 
102 1 2.40032 2.36191 2.53272 -0.0280854 -0.859918 -2.11367 
103 1 7.89403 6.81826 5.02092 0.733911 0.444798 0.116792 
104 1 3.84243 5.61327 0.883073 0.0475618 -0.12751 0.628077 
105 1 1.40859 9.04322 0.200986 0.453103 0.00831073 -0.399375 
106 1 5.69234 2.16155 5.53812 0.947502 -0.121386 0.132173 
107 1 0.256111 4.80801 1.62929 -0.773997 -0.00390139 -0.785894 
108 1 4.17314 7.90354 6.82571 -0.838809 -0.591292 0.402471 
109 1 0.338768 7.18857 0.822631 1.00962 0.11957 -0.265609 
110 1 5.19715 8.89552 4.99834 0.339866 1.22255 0.16045 
111 1 6.73442 8.53323 3.1098 0.613072 0.697555 -0.317759 
112 1 7.47137 1.24029 3.60673 -0.354366 0.748675 0.147028 
113 1 4.16852 1.17041 2.51148 -1.27975 1.08818 1.29208 
114 1 7.10219 2.51268 1.8397 -0.388775 1.43595 -0.663556 
115 1 7.57654 6.76965 2.35803 -0.816821 0.812335 -0.135539 
116 1 0.767693 4.5074 8.61477 0.0245754 -0.258624 -0.136284 
117 1 1.16809 5.64072 5.11245 0.0557054 1.01954 -0.933194 
118 1 4.1905 8.17908 3.01136 -0.316066 -0.872563 0.0422822 
119 1 2.69905 9.21408 0.631572 0.245243 -0.967196 -0.193637 
120 1 1.43561 4.71931 6.92267 -0.685611 2.02542 1.11645 
121 1 3.90753 8.52568 5.12845 -1.78445 0.437738 -0.0758194 
122 1 2.14602 5.56759 5.25074 -0.504527 1.34177 -1.63234 
123 1 4.60035 6.14432 1.1781 1.48503 -1.19103 -0.516377 
124 1 5.61982 3.74335 5.90092 -0.784132 -1.17409 0.0157565 
125 1 4.67706 3.42398 0.890746 -0.0353484 -0.308087 -1.22653 
126 1 2.85688 0.936027 1.83648 0.721808 -0.533935 1.42956 
127 1 5.03768 0.319626 5.52995 -0.88969 0.460075 0.326635 
128 1 6.47711 3.51718 6.22255 0.913856 -1.02523 0.248301 
129 1 7.82523 6.77308 1.40469 0.82909 -1.42396 0.142662 
130 1 9.38049 9.38886 1.82616 0.874544 0.0770695 -1.47683 
131 1 7.16185 5.09184 7.73294 -0.951924 1.22892 0.398137 
132 1 1.12361 1.08326 2.30959 1.2648 -0.198582 1.78379 
133 1 7.45056 2.99328 1.00336 0.318699 -1.25078 1.30364 
134 1 6.84154 2.1029 9.07007 1.40165 -0.0434811 -0.121042 
135 1 7.93834 6.98095 0.48968 0.598366 0.535658 -0.502753 
136 1 7.32144 2.50872 2.74666 1.31058 -0.718896 0.849108 
137 1 5.14145 5.76797 3.62583 1.00235 0.00247379 0.918916 
138 1 4.4766 1.56575 6.62043 1.13412 -0.49954 -0.198688 
139 1 5.69948 5.94361 5.19049 1.13686 -0.33771 0.11497 
140 1 4.66942 1.04713 1.69954 -0.211034 0.67849 -0.596461 
141 1 0.756383 4.02816 1.94861 0.0815355 1.36938 -0.613876 
142 1 3.6266 5.21827 3.55012 -0.0877652 -1.21359 -1.53132 
143 1 7.99982 4.08337 3.71226 0.420923 -0.824853 -1.05797 
144 1 6.13774 5.58946 3.62028 0.390078 -0.198453 1.28704 
145 1 2.26556 9.37321 7.28583 -0.474711 -0.49412 0.064375 
146 1 6.04796 7.98699 2.68379 0.19392 -0.707098 -1.71023 
147 1 2.37081 6.94241 3.99557 0.157886 -1.18875 -0.471823 
148 1 5.45115 8.35738 5.74074 0.346473 0.613332 0.118239 
149 1 2.77246 7.87916 0.844529 -0.733451 1.02497 -0.220751 
150 1 2.47256 0.416939 3.04316 -0.269741 0.34057 -0.634172 
151 1 2.38704 3.23277 2.15296 -1.47869 1.2466 -0.744107 
152 1 7.14764 6.75527 5.66264 -0.605095 -0.598857 -0.908335 
153 1 6.35361 1.495 5.50091 -0.165156 0.438999 0.199548 
154 1 7.50054 8.34567 0.146173 0.0238834 -0.204138 0.751317 
155 1 7.12146 8.98565 0.772356 2.09102 -0.614948 -0.354961 
156 1 5.50085 3.92558 0.722228 -0.680013 0.112955 -0.473819 
157 1 5.78917 7.84471 1.11102 -0.206555 0.335486 -1.02469 
158 1 0.11384 5.85212 5.00481 -0.171347 0.826986 0.726315 
159 1 3.48203 5.20227 2.46326 1.34813 -0.0421996 -0.905382 
160 1 8.65023 5.3719 1.90552 -0.729461 1.10605 -0.420231 
161 1 0.922324 1.42177 4.40493 0.131875 0.597419 -0.682997 
162 1 7.09783 1.26862 4.94969 -0.0357841 1.54224 0.229423 
163 1 1.64723 6.30651 3.96533 -0.069671 0.62085 0.19479 
164 1 9.02824 6.33941 5.70183 0.266044 -0.00365734 -0.828244 
165 1 0.88529 5.7005 6.51934 -0.602032 -0.213529 0.647824 
166 1 7.07377 9.34757 7.00492 -0.107017 -0.911138 -1.06375 
167 1 1.15232 1.92152 3.59129 0.243578 0.095839 1.54056 
168 1 6.97375 6.08325 3.81876 0.516631 0.283804 -1.67806 
169 1 8.53069 4.40917 0.319215 0.0132631 1.45367 0.451045 
170 1 8.84467 0.218295 8.95571 0.726944 0.34027 0.524722 
171 1 2.8359 0.015221 2.24633 -0.489578 -0.482948 0.542594 
172 1 4.93098 1.79285 7.45875 0.824525 1.13729 1.49357 
173 1 2.94212 1.42731 6.17226 0.861133 0.594691 0.13092 
174 1 3.91196 9.03482 8.11196 -0.0577402 0.178065 -0.551382 
175 1 3.72174 2.04667 3.7947 0.0353156 0.0231672 1.64827 
176 1 1.46024 4.76374 7.93272 -0.588092 -0.330297 1.64634 
177 1 4.20149 5.7258 2.8887 0.349573 -0.812386 0.950365 
178 1 6.48786 8.54619 4.04955 0.829432 -1.34498 0.495611 
179 1 1.57565 5.37992 1.54069 0.81676 0.325022 0.999872 
180 1 3.99931 7.90457 5.84914 0.144071 0.169915 0.0410444 
181 1 9.03669 3.57571 6.17805 -1.07934 -0.589729 0.389832 
182 1 0.175285 6.32614 6.55331 0.11388 -1.01134 0.939533 
183 1 5.01793 2.74952 7.032 -0.307277 0.0761797 -0.359739 
184 1 4.88179 0.110771 1.68226 -0.0911326 -0.365339 0.401926 
185 1 8.14402 0.587012 2.04257 -0.93793 0.590791 -0.0741398 
186 1 1.77828 6.57539 0.448946 -0.676524 0.0769069 -1.45755 
187 1 1.31587 5.69199 0.281381 0.0528575 -0.362955 -0.0424746 
188 1 2.21451 8.27306 8.47362 0.00630294 -1.14182 -0.962671 
189 1 1.80297 5.40562 4.36464 1.36601 -0.193608 0.639318 
190 1 7.45885 6.81776 7.65308 1.60512 -0.14989 2.09881 
191 1 6.48898 2.70438 4.36676 0.88601 -1.19301 -0.476203 
192 1 8.89158 5.10669 3.07335 0.138112 0.360335 -0.183272 
193 1 4.9772 5.15273 2.93645 -0.280397 0.484936 -0.540497 
194 1 5.47497 3.9822 4.18388 -0.730704 0.222761 1.63952 
195 1 0.269971 1.65077 1.43544 -1.11697 0.511003 -0.22048 
196 1 3.23093 1.46492 7.84628 -0.17253 -0.296223 0.501552 
197 1 7.18491 5.641 9.27969 0.0928438 0.916642 -0.727802 
198 1 4.79947 1.77891 5.72534 -0.114988 -0.350595 0.478534 
199 1 4.3229 2.42402 4.50642 0.396266 0.300946 0.0238797 
200 1 3.19247 6.45259 3.84153 -1.44077 -0.281031 0.479985 
201 1 4.93386 8.78829 9.29017 -0.3818 -0.860186 1.21602 
202 1 2.91136 6.07151 1.15769 -0.230547 -0.648321 0.500405 
203 1 4.17369 4.12898 6.27772 -0.423442 -0.54039 0.795022 
204 1 0.747103 5.77235 1.83806 0.847491 -0.789203 -0.98761 
205 1 1.774 5.50573 3.40442 0.561209 -0.910516 0.393224 
206 1 6.5453 7.93018 0.441738 -0.432769 1.0948 -0.270458 
207 1 9.22701 2.14917 2.1121 0.948588 1.05228 1.40239 
208 1 2.90661 7.06471 9.30216 -0.339847 0.379967 1.19839 
209 1 7.71009 2.94946 9.23518 -1.86119 0.460523 -0.144452 
210 1 3.30444 6.83769 7.10519 -0.765541 -0.326157 0.154288 
211 1 8.19456 2.25988 2.19662 -0.263992 0.454291 -0.843468 
212 1 6.96521 0.552332 0.556342 -0.373275 1.20648 0.658522 
213 1 3.47368 6.40056 0.470014 0.34638 -0.272967 -0.440412 
214 1 8.87917 5.99025 2.76651 0.304215 0.722969 -0.311254 
215 1 5.09547 8.22868 2.63918 0.965765 -1.32955 0.679149 
216 1 0.762877 1.10827 3.19183 0.815078 -0.151963 0.429518 
217 1 7.34379 9.30011 9.32053 -0.0741999 -0.607183 -0.412072 
218 1 3.23335 6.09621 2.13163 0.16118 0.881248 -0.384992 
219 1 0.852812 2.38038 4.42019 0.796098 -0.750497 0.920824 
220 1 8.00596 5.46383 7.07267 0.775163 -0.877107 0.676616 
221 1 8.62492 1.40255 2.40013 -0.071303 -1.79441 0.673153 
222 1 2.10129 5.72613 0.833076 1.11755 -0.0320842 0.2722 
223 1 5.93014 5.33423 1.2011 0.0756878 -0.227722 0.318029 
224 1 2.8072 3.13227 5.86496 -2.04858 1.86565 -1.54786 
225 1 8.6528 1.75283 1.48972 -0.266043 0.787325 -0.617635 
226 1 8.66915 1.217 9.24486 0.741184 0.737991 0.233653 
227 1 4.91191 4.30475 5.65324 0.27602 -0.834057 -0.32258 
228 1 4.79935 4.21223 3.52852 0.508435 -0.382363 -0.225777 
229 1 3.28599 3.69042 2.61586 -1.64781 -0.0695981 -0.775119 
230 1 6.21675 7.236 6.92612 0.460176 1.2977 -0.0950386 
231 1 2.17706 5.18019 7.3734 -0.111934 1.03279 -0.512899 
232 1 9.21881 6.06126 8.97935 0.904395 -1.19406 -1.13992 
233 1 4.07159 8.02125 1.09355 -0.0709965 0.339391 0.0460156 
234 1 4.15955 4.71289 2.90612 0.548541 1.06104 0.321764 
235 1 6.87982 1.83702 4.19782 0.86181 0.184301 0.0827382 
236 1 4.78707 0.834464 3.53238 0.7328 0.12747 -1.22779 
237 1 6.62035 1.63823 0.522964 -0.42362 0.575212 -0.667772 
238 1 6.45523 5.45664 8.67956 0.992675 0.2585 0.0482219 
239 1 7.77583 7.25236 6.4814 1.27733 -0.400693 -0.572065 
240 1 1.93679 1.16409 3.28641 -0.712358 0.560729 -0.782784 
241 1 6.27553 5.08007 5.25173 1.04946 0.79999 -0.764572 
242 1 3.97364 2.52374 5.4265 0.912441 -0.551318 -0.0505394 
243 1 1.81749 5.69463 6.66626 -0.667414 -1.38326 -0.598789 
244 1 7.15838 5.93531 2.36988 1.96036 -0.931538 1.50683 
245 1 4.98081 8.32433 3.5774 -1.20528 0.260798 0.0354041 
246 1 1.85211 1.52623 4.13908 0.171128 -1.03308 1.93425 
247 1 6.24837 5.02446 7.0485 0.0591636 -0.0206888 -0.746554 
248 1 8.63322 3.63608 0.921936 -0.787231 0.972801 0.362317 
249 1 6.242 7.17545 9.04916 0.482661 -0.3039 1.07121 
250 1 4.94179 3.13629 4.23066 -0.49044 -0.743248 0.7856 
251 1 2.50133 0.634261 6.51444 0.334173 0.298887 -0.602625 
252 1 6.23147 6.03342 2.03827 -1.0051 0.265804 1.08565 
253 1 7.97579 5.13357 3.52376 0.67199 0.0780144 0.42319 
254 1 4.3777 1.54225 9.33395 -0.183133 0.234451 0.476087 
255 1 6.33169 3.67447 4.44144 -0.650764 -0.150326 0.365585 
256 1 4.21537 3.28417 6.73681 -0.0798894 0.587487 0.635414 
257 1 7.21983 6.34075 0.639108 -0.750956 -0.600088 0.102121 
258 1 3.302 6.60699 4.76911 -1.09709 1.65195 0.0797584 
259 1 7.41541 2.55138 4.56335 0.139793 -0.376443 0.0948627 
260 1 7.46383 3.43162 3.17554 0.357247 0.215699 0.248216 
261 1 8.23365 0.977945 1.14537 -0.279772 -0.396819 -1.27263 
262 1 2.57933 1.13628 4.58857 0.403475 0.725064 -0.0425645 
263 1 5.19845 1.03062 6.23842 -0.314331 0.680818 0.00920366 
264 1 5.58864 8.03189 8.17452 0.157391 -0.576641 0.429678 
265 1 0.300476 9.12728 8.64116 -0.0569606 -0.606179 1.1623 
266 1 5.52989 5.28368 2.04511 0.100328 0.473299 -0.011315 
267 1 3.73056 1.13706 1.60439 0.787314 0.490902 0.437155 
268 1 2.49514 8.66393 5.0573 -0.67744 -1.81457 -0.921726 
269 1 2.32954 3.97032 1.50406 0.239773 1.29117 0.967149 
270 1 4.02934 3.30352 2.08261 0.0479723 -0.337458 0.106296 
271 1 0.520625 4.84783 7.30262 0.324543 -1.06621 0.819882 
272 1 6.26949 6.11336 6.88565 -1.12455 -0.0396956 0.376969 
273 1 0.102516 5.15362 8.94299 -0.0919912 1.47863 -0.789025 
274 1 5.12711 3.63807 7.59291 0.210409 0.20435 -1.43406 
275 1 2.11035 2.35088 5.73802 -1.19843 0.924485 -1.05268 
276 1 5.73872 1.56954 0.902066 0.172538 -0.386119 0.0899503 
277 1 5.59764 8.9357 4.0923 -0.0915868 -0.739237 0.50411 
278 1 5.5441 8.98907 1.22375 0.199339 -0.184122 0.027028 
279 1 2.09274 3.91478 5.19612 -0.896539 -0.595938 0.220372 
280 1 8.28996 5.82385 8.82693 -1.88389 0.13026 0.540144 
281 1 3.1526 7.42332 4.17749 0.694364 0.0842826 1.04104 
282 1 7.62005 8.51922 2.71069 0.0928778 0.972097 0.0384789 
283 1 7.32817 4.46654 3.17766 -1.15186 -0.778084 -0.110043 
284 1 1.73821 2.57911 6.58877 0.737296 0.331516 0.682554 
285 1 8.41511 6.95327 7.51922 -0.291308 -0.0839376 -0.377441 
286 1 8.50674 6.11893 1.20862 0.814837 2.51716 -0.0634937 
287 1 7.82931 1.73004 2.87342 0.512788 0.566707 -0.701242 
288 1 6.47804 0.0163643 8.24572 0.652676 0.119501 0.348721 
289 1 8.05191 6.47963 5.96289 -0.00838419 0.0954822 -0.619587 
290 1 4.90634 8.45485 6.57947 -0.557573 -1.11307 -0.836128 
291 1 7.09628 5.15625 5.75035 -0.789722 0.62989 -0.404229 
292 1 0.437964 2.72911 3.59689 2.35095 -0.0173054 0.202429 
293 1 3.39582 6.30409 8.93876 -0.356785 -0.893742 0.883265 
294 1 4.19724 0.478396 1.10086 0.290838 -1.06691 -0.363724 
295 1 3.12119 0.419489 4.37531 -1.64895 1.2463 0.286044 
296 1 2.92693 4.48923 2.07737 -0.961271 1.25945 -1.05289 
297 1 0.751853 6.53486 3.60717 -0.348809 0.436758 0.22394 
298 1 3.69201 0.591597 8.04311 0.156431 0.948856 0.806468 
299 1 8.57909 4.23892 7.55308 0.254706 1.71349 -0.00706642 
300 1 5.59186 4.4429 5.0274 0.806537 -0.183628 -1.47927 
301 1 6.34725 9.13329 2.45625 -0.385841 -0.441917 -0.0925502 
302 1 2.08883 8.47959 0.591043 -0.647698 -0.427488 -0.544576 
303 1 4.48026 2.59886 2.62007 2.01529 -1.25332 1.051 
304 1 4.899 2.66731 5.31058 -0.012469 -0.584381 -1.87381 
305 1 9.25323 6.09538 1.87286 0.698955 0.981799 0.974316 
306 1 5.03996 4.72592 9.06954 -0.17639 -0.524427 0.776874 
307 1 3.23164 7.8284 1.68254 0.516918 -0.275413 1.22785 
308 1 3.13639 8.51495 8.40488 0.777769 -1.44021 -1.09417 
309 1 7.40518 7.53616 1.85858 0.230757 0.450789 0.0907164 
310 1 9.34957 3.10877 4.35688 0.217 1.65973 -0.104399 
311 1 8.33307 7.32409 2.04306 0.32964 0.259817 -0.307462 
312 1 6.2739 2.56137 6.25631 0.102686 1.83656 0.281873 
313 1 4.58475 5.22032 0.377517 -1.09885 1.22043 0.82515 
314 1 4.25987 3.29493 4.92216 0.351142 0.505326 -0.592662 
315 1 3.39951 2.18497 4.71565 -0.408796 -1.05666 -0.023393 
316 1 0.399912 8.79253 1.15142 0.591136 0.838931 -0.248471 
317 1 3.05848 6.03717 7.93006 -1.04268 0.4423 1.10671 
318 1 2.87674 5.54871 8.77082 -0.176571 -0.996547 0.0470624 
319 1 0.960327 3.08097 2.03428 0.305696 0.738546 -0.168821 
320 1 2.34618 2.96048 5.03644 -1.59879 -1.43768 -0.0242418 
321 1 6.60846 5.97482 5.46426 -0.770071 -1.0529 0.467885 
322 1 5.56543 6.22598 7.66867 -1.43664 -0.198887 -1.55308 
323 1 3.80542 1.17686 3.40093 -1.61324 -1.32825 -0.52685 
324 1 5.4266 3.36925 1.48281 0.0201236 -0.425932 1.37941 
325 1 7.67414 4.52094 0.810121 0.16231 0.70973 -0.257697 
326 1 1.35857 6.47682 2.05492 0.521232 -0.499506 0.424699 
327 1 2.10003 7.7021 7.70665 -0.0631718 0.158331 0.126913 
328 1 8.6546 0.449762 0.450593 -0.0865147 0.575427 -0.0409296 
329 1 2.68873 0.633606 7.98441 -0.679941 -0.753353 0.242804 
330 1 5.28853 6.77514 0.847687 -0.35715 1.09312 0.0890991 
331 1 6.2188 2.9514 1.7944 0.632029 -0.762406 -0.333923 
332 1 6.06911 0.894516 0.313001 -0.930889 -0.372242 -0.897574 
333 1 3.80402 4.6591 0.452331 0.0751269 0.525338 0.134436 
334 1 2.55747 5.34902 2.78235 0.0871264 -0.397857 0.0452981 
335 1 6.43704 4.68963 3.41305 0.407746 -1.59123 -0.379406 
336 1 4.75092 6.17948 7.12803 -0.958926 0.542666 0.420248 
337 1 3.26533 5.93927 3.06069 -0.505392 -1.57184 -0.601868 
338 1 5.0214 3.30795 2.34222 -0.677133 -0.417943 0.315519 
339 1 5.56764 5.26104 4.52261 0.912134 -0.215936 1.14469 
340 1 2.5684 1.46279 7.0942 0.74604 -0.0651195 0.023396 
341 1 7.04925 2.00836 6.08868 -0.542051 1.07806 -0.456058 
342 1 8.81826 7.61109 8.98307 -0.153597 0.0813964 1.14333 
343 1 6.9829 7.564 7.33898 -0.526751 -0.416208 2.52845 
344 1 2.43428 4.45356 0.450672 -0.201709 -0.660449 -0.255767 
345 1 5.53294 4.85348 0.485856 -0.745047 0.481883 -2.02729 
346 1 2.41123 5.6676 1.87734 -0.691287 -0.513368 -0.00595654 
347 1 4.67791 3.95535 1.7328 0.00826228 -0.890505 -1.08733 
348 1 4.87812 5.91343 2.22299 -0.145222 0.520152 1.79544 
349 1 1.85106 0.320985 8.96247 -0.233631 -0.817865 1.00696 
350 1 3.10546 6.47718 6.23654 -0.481974 -0.0027252 0.417321 
351 1 8.67601 5.88535 6.46575 0.850574 0.469046 1.20932 
352 1 2.61673 8.49323 7.61746 -0.350893 0.60836 -0.301716 
353 1 2.56274 6.83249 7.67217 0.817735 -0.379374 -0.936935 
354 1 2.70226 5.41952 3.75621 0.993961 0.570088 -1.16551 
355 1 5.50691 9.37947 7.93658 1.34001 1.0488 1.34153 
356 1 8.61856 3.49207 9.3226 0.161905 -0.521946 -0.210272 
357 1 6.87504 7.69363 3.69179 1.16204 -0.698591 -0.624267 
358 1 6.87014 2.94861 0.230721 0.731359 -0.351114 -0.223415 
359 1 9.31383 3.82964 5.26965 0.0831153 -1.29475 -0.448751 
360 1 6.97649 6.36318 1.55093 0.858142 0.315832 -0.124788 
361 1 6.41952 5.70201 4.53745 -0.477658 -0.0265586 -0.149066 
362 1 1.7595 6.8618 8.16157 -1.02539 0.345146 -0.358996 
363 1 6.26477 6.17468 0.895612 0.250628 -0.183832 0.450759 
364 1 1.70692 3.80292 6.73869 1.35275 0.799587 -0.012347 
365 1 5.6514 6.50387 9.39583 0.107438 0.0710387 -0.939611 
366 1 1.64667 5.61797 2.45304 -0.65988 1.40012 -1.32225 
367 1 5.53116 5.97728 6.13741 0.222271 0.0078445 0.404532 
368 1 5.83725 3.19997 6.93054 -1.07464 0.31537 -0.819173 
369 1 3.82775 7.56992 4.87925 0.604841 0.530444 0.22253 
370 1 6.06174 8.48211 4.94208 0.163617 0.524035 1.16842 
371 1 4.56205 0.298202 6.3628 0.153949 0.217863 0.382738 
372 1 4.26006 6.42741 8.62811 -0.813689 0.0502359 0.481783 
373 1 5.49189 0.351882 4.70898 1.37327 -1.08263 1.27284 
374 1 6.3394 5.41664 0.286479 0.782526 -1.66452 -0.398863 
375 1 2.69247 3.11149 3.06048 0.135384 0.672036 0.97238 
376 1 3.19781 0.0300629 8.62258 -0.40902 -0.348873 0.387613 
377 1 7.97635 2.36756 6.12355 0.260322 0.70871 1.22226 
378 1 1.90493 7.14681 9.08356 -0.207968 -1.41509 0.796733 
379 1 6.06439 3.84153 7.6628 -0.314891 -0.07201 -0.447121 
380 1 7.96413 5.87234 5.24725 -0.442742 -1.0928 0.954129 
381 1 3.71043 9.07153 4.29621 -1.53421 -0.359751 -0.104731 
382 1 6.30171 6.68599 6.10172 0.465741 -0.109887 0.369102 
383 1 2.87979 1.0688 3.6275 -0.289407 -1.47163 -0.529786 
384 1 4.59388 0.255484 7.89825 1.38578 0.697286 -0.670691 
385 1 4.04454 4.17763 5.28594 0.829544 0.0952201 -1.51488 
386 1 0.415784 2.99567 5.20526 0.0119763 0.141847 0.73268 
387 1 3.95015 6.97092 4.05824 0.532352 -0.00957903 -0.570426 
388 1 1.62892 3.91179 0.708916 -1.41489 -0.540551 0.45507 
389 1 2.60864 6.14401 0.123843 -0.595369 -0.366136 -0.366235 
390 1 2.48257 1.99864 4.95361 -1.41166 -0.09633 -0.600333 
391 1 3.32373 0.72866 2.67711 0.289123 0.440407 0.501151 
392 1 0.928659 6.40017 7.30381 -0.45979 -1.59589 -0.567168 
393 1 3.97616 7.29875 7.57757 0.390316 -0.205725 0.148395 
394 1 6.83632 4.30455 7.21448 0.20425 0.625457 -1.25554 
395 1 4.45632 7.09768 5.46343 0.0310239 -0.858678 -1.43223 
396 1 8.66108 5.76319 3.73827 -1.07748 0.769615 1.24196 
397 1 3.95051 6.35851 7.68053 -0.0788171 -0.400932 -0.068336 
398 1 7.37975 3.77824 6.58876 0.76615 0.484311 1.58203 
399 1 9.1323 2.37414 0.961236 -0.662084 -1.57498 0.757444 
400 1 4.66663 3.41131 5.83827 -1.45912 -1.09733 0.54879 
401 1 0.905923 2.44736 1.29366 -0.193859 0.886441 0.266351 
402 1 7.89197 5.51142 6.11819 -0.84763 0.0808374 0.184702 
403 1 5.20583 6.25771 8.60024 -0.516293 -0.204282 1.03046 
404 1 5.48042 6.09794 1.50443 0.379324 -1.39451 0.329005 
405 1 3.36507 8.63012 0.934555 -0.465409 0.985196 0.208117 
406 1 4.50405 2.50691 6.23434 -0.463884 -0.617624 0.587492 
407 1 2.96414 6.87551 3.02374 0.708276 2.22485 0.719709 
408 1 4.97977 7.93946 8.88261 -1.25368 -0.552752 0.417144 
409 1 3.7905 5.57673 8.37458 0.229722 -0.711621 0.500546 
410 1 4.54475 5.06624 3.88982 -0.539114 -0.634923 0.494306 
411 1 5.43625 7.17059 8.57861 0.213194 -0.543156 0.0761016 
412 1 8.07857 3.30585 6.12891 0.0670061 -0.239897 1.06204 
413 1 1.75672 6.35579 4.90032 0.464491 0.379919 0.524684 
414 1 6.21992 9.06232 7.34683 -0.030175 -0.399773 0.404983 
415 1 9.38629 3.68576 2.42051 0.595883 0.808095 0.675325 
416 1 0.703273 1.1006 0.760418 -0.538808 0.65611 -0.0177989 
417 1 1.42392 4.41273 2.89245 0.191759 1.40564 -0.610424 
418 1 6.97244 1.67667 2.30946 -1.37589 0.110147 -0.683149 
419 1 4.96424 8.36126 0.765997 -0.208262 -0.73088 1.4994 
420 1 5.3186 2.53494 7.93885 1.24442 -0.430855 -0.168336 
421 1 7.85419 0.686984 9.34646 -0.691147 -0.230012 0.379146 
422 1 1.65626 4.43942 9.22665 0.0139311 0.682205 -0.0956896 
423 1 3.50295 5.50966 6.08222 -1.10519 0.0397826 -1.17364 
424 1 2.28667 1.18028 5.49733 -0.519586 -0.989462 0.634533 
425 1 0.245182 5.76677 7.36174 -0.755212 0.260549 0.025578 
426 1 0.681894 6.2674 5.6895 1.32551 -0.688483 -0.519777 
427 1 4.09707 8.11881 2.06665 -0.16186 0.499832 -1.56348 
428 1 7.07966 4.50715 4.98243 -1.05417 0.0785632 -0.236526 
429 1 1.84496 2.42367 4.38509 -0.608447 -0.1632 -0.66002 
430 1 7.30427 8.65384 8.60201 -0.602007 0.406899 0.436665 
431 1 6.49516 6.23589 2.98386 1.30395 -2.00859 -0.0105837 
432 1 4.45364 0.564277 0.147032 -0.185549 -0.125896 0.387649 
433 1 7.82964 3.0069 5.28082 -0.629816 1.47277 0.988477 
434 1 0.269028 2.81493 2.64474 -1.13657 -1.06747 0.0809029 
435 1 2.68561 2.28801 6.52908 0.125096 -1.05672 0.591495 
436 1 6.81218 1.8096 3.22873 -0.305065 -0.275781 -0.915211 
437 1 0.109587 6.94217 9.22251 0.175474 -0.793457 2.47242 
438 1 9.37813 6.73636 7.40815 0.794669 -1.28293 0.276487 
439 1 3.98514 0.30281 2.06217 -0.993911 -0.792206 0.422006 
440 1 3.85387 4.26955 2.1188 -1.01837 0.114564 0.928497 
441 1 7.18058 6.88315 3.19829 -0.190769 -0.405494 -0.215337 
442 1 7.25571 9.39237 2.43908 -0.689575 -0.696078 -0.133353 
443 1 3.59523 0.137367 0.425138 -0.0823146 -1.39563 -0.340286 
444 1 7.7343 3.43565 8.43534 -0.844377 0.126971 0.741996 
445 1 4.96723 0.186188 8.75909 0.000512514 0.991156 0.0013013 
446 1 7.43857 2.21698 0.421451 0.504097 1.06846 -1.00811 
447 1 5.83304 1.71511 8.00281 1.1282 -0.13173 -0.423053 
448 1 0.789236 5.29066 1.01391 -2.00505 -0.262116 -0.500944 
449 1 4.66739 5.81435 7.98712 0.339151 -0.524112 -1.11097 
450 1 1.65488 2.45216 1.97575 0.733822 1.5438 1.00125 
451 1 1.92167 7.53813 0.556181 -1.23601 -0.421779 -0.770615 
452 1 2.67301 8.89177 3.1177 0.4758 -0.899582 1.0091 
453 1 2.3729 0.233966 1.43412 1.03034 -0.953946 -1.03464 
454 1 3.74006 6.44154 1.3843 0.412327 0.576349 0.408497 
455 1 0.0757117 3.77503 0.491527 0.902378 -1.54016 -0.0979914 
456 1 5.34648 1.97745 6.47328 -0.979181 1.00384 0.643272 
457 1 6.94994 7.19587 1.09831 -0.822621 0.163278 -0.817508 
458 1 7.73281 4.34676 8.09164 0.207636 0.230426 -0.753885 
459 1 6.42245 8.39329 5.83581 -0.717439 -0.335158 -0.159388 
460 1 5.4693 5.5432 6.97928 0.751869 0.118042 1.22348 
461 1 0.717896 4.45621 5.36588 1.54503 0.530439 -0.983706 
462 1 7.41355 1.43618 8.29237 0.327334 -0.185351 -0.124498 
463 1 6.51464 4.68584 0.88947 -0.803545 0.0522701 -0.593303 
464 1 4.95961 0.62358 2.51519 0.833405 0.162092 -0.225302 
465 1 5.40795 4.62968 7.40972 -0.0331287 0.806643 -0.0491636 
466 1 7.0983 7.30493 4.70784 0.753572 0.519686 0.262911 
467 1 7.82781 2.17778 1.28465 -0.575561 1.61196 -0.249851 
468 1 4.35293 9.36117 4.9526 1.10773 -0.00766621 0.186427 
469 1 4.31167 7.37474 8.51565 -1.72154 -0.146836 -0.0563186 
470 1 9.06684 8.63815 9.18244 -0.0227896 1.12252 0.0102273 
471 1 4.5534 8.59831 4.40135 0.572038 -0.858357 0.730228 
472 1 3.41808 7.68997 8.75134 0.946398 -0.767536 0.293083 
473 1 5.52409 0.137034 0.123399 0.244496 -0.837541 -0.782084 
474 1 7.09758 4.41522 1.57599 -0.220014 0.584175 -0.486165 
475 1 8.83651 2.47502 3.87726 -1.35525 1.92694 1.06652 
476 1 7.81833 6.13508 3.33289 -0.0989874 -1.15896 -1.17163 
477 1 0.79762 2.0387 2.14983 -1.01015 0.581232 -0.228914 
478 1 0.0667394 2.96381 1.68061 0.240637 -1.12681 -0.583137 
479 1 6.4633 7.71903 1.78595 2.41504 0.540666 -0.143221 
480 1 2.75008 6.02569 7.02196 0.917561 -0.554639 -1.31324 
481 1 3.51867 2.91113 4.11772 0.348042 -0.42431 -0.0835222 
482 1 1.25286 6.06933 8.15791 0.513067 -0.656912 0.0140355 
483 1 3.57757 9.03817 2.77012 0.909915 0.921843 -0.220502 
484 1 7.84358 4.27812 9.036 -0.130221 0.58212 -0.0508809 
485 1 6.2731 4.73655 7.96091 0.0785924 1.52992 -0.315625 
486 1 1.78457 3.41366 4.42259 -2.09292 -0.0802572 -0.171859 
487 1 2.04651 0.850336 2.308 0.712001 -0.318065 -0.104227 
488 1 7.999 6.9446 8.39481 -2.1892 0.27861 0.737783 
489 1 5.68331 6.70674 2.43664 0.88597 0.922652 -0.223718 
490 1 8.02341 5.54218 2.61156 0.277459 0.53997 -1.61428 
491 1 1.99573 1.59815 6.32561 -0.428282 -0.791867 -1.4171 
492 1 4.13199 8.71174 0.406036 -0.983109 -0.496969 0.664077 
493 1 2.04665 2.23706 3.42505 -0.224088 -0.731193 -0.533901 
494 1 8.34419 6.32754 2.09052 -0.282099 -1.51546 0.620419 
495 1 8.55952 3.96885 8.46661 0.018589 -1.08825 -0.495998 
496 1 6.69722 2.3444 5.23728 0.409655 0.329692 0.342673 
497 1 0.326462 6.25514 1.08444 0.29087 -0.310428 -0.796248 
498 1 5.44087 0.589568 0.999776 -0.972044 -0.523786 1.25053 
499 1 6.17284 3.23282 0.785974 -0.51124 -0.876508 -0.175499 
500 1 1.22039 5.50745 7.39943 1.34343 0.961265 -0.950047 
501 1 0.842534 4.88853 0.095745 -0.805937 -0.784773 0.922533 
502 1 5.39058 7.72875 6.9517 0.0641031 0.349501 0.348138 
503 1 1.71126 7.52259 6.37547 -1.11147 0.289097 -0.376732 
504 1 3.07589 3.96928 5.35378 -1.04332 0.712367 1.11462 
505 1 7.95982 4.89234 5.33281 0.360252 -0.263558 -1.11444 
506 1 7.09011 6.35619 4.74522 0.0557328 -1.6636 -0.576515 