ITEM: TIMESTEP
3092
ITEM: NUMBER OF ATOMS
1000
ITEM: BOX BOUNDS pp pp pp
0.0000000000000000e+00 9.4000000000000004e+00
0.0000000000000000e+00 9.4000000000000004e+00
0.0000000000000000e+00 9.4000000000000004e+00
ITEM: ATOMS id type x y z vx vy vz 
1 1 4.46784 1.98758 0.894249 0.634413 -1.05176 0.56109 
2 1 1.34849 1.05508 0.907497 0.361234 0.762487 -0.401205 
3 1 7.25338 3.00837 2.57971 0.811743 -0.0782842 -0.776756 
4 1 7.65737 1.83482 8.53169 0.467077 -0.167637 0.467336 
5 1 6.72588 9.0303 6.29685 0.109049 -0.73261 0.553462 
6 1 8.01371 5.4921 1.55831 1.06336 -0.164821 -0.911127 
7 1 6.08351 4.20959 6.19855 0.00118657 0.665875 -0.136441 
8 1 3.8744 5.86766 1.13778 0.606998 0.786182 0.255078 
9 1 5.94227 4.4512 8.63861 0.622722 -0.0120582 0.567328 
10 1 8.016 7.60435 2.90702 -1.45376 0.985636 0.844484 
11 1 3.9157 5.22871 3.49845 0.588422 0.0502273 0.235946 
12 1 3.6089 3.53369 3.58236 0.756951 1.23282 1.31906 
13 1 6.60961 6.46744 3.44725 -1.52065 0.703728 -1.30522 
14 1 0.387661 7.87113 7.86303 0.664772 -1.62876 0.200483 
15 1 2.45841 4.86942 3.33154 -1.14744 0.210245 -0.423688 
16 1 3.61181 3.82769 5.42235 -1.07936 1.20914 0.611556 
17 1 3.2765 8.95754 6.29841 -1.2724 0.32335 -0.17497 
18 1 8.43077 8.70187 2.19817 -1.00421 -0.454096 0.205081 
19 1 0.460918 1.87076 7.31649 0.710389 0.560922 0.778954 
20 1 0.389526 6.05891 3.35366 0.211914 -0.059947 -0.888365 
21 1 3.04805 2.23172 4.58528 0.126631 0.450352 0.103189 
22 1 9.30111 0.734292 3.6542 -0.548992 0.00309066 0.207224 
23 1 8.55016 4.64354 3.84588 -0.215759 -0.370879 0.590797 
24 1 1.80553 9.17702 8.0376 1.42328 0.0891801 -1.11832 
25 1 4.47267 1.55154 5.02896 1.23494 0.68025 0.173275 
26 1 2.72476 1.83301 6.25189 0.0947906 -0.21857 -0.608929 
27 1 4.02637 9.22673 5.6723 -0.461838 -0.853145 -1.13437 
28 1 7.76089 2.30504 2.91934 0.489546 0.400197 -0.38398 
29 1 1.56528 7.18325 2.76327 0.856735 0.178035 -0.00657659 
30 1 0.851277 2.88937 1.398 0.448967 -0.24125 0.650301 
31 1 3.46329 1.19497 3.77424 0.478416 2.26796 -0.571478 
32 1 4.30686 1.5933 1.72441 -0.640729 -2.07391 0.297669 
33 1 3.88711 2.28092 2.37357 0.449661 0.255945 -0.50021 
34 1 1.25979 7.54534 6.49495 -0.302659 -1.03444 0.424352 
35 1 0.852202 5.01105 4.55077 0.357226 -0.795321 0.00287179 
36 1 0.928411 4.38413 3.82689 1.30756 -1.59128 0.464837 
37 1 7.03366 9.09438 4.38407 0.550373 -0.84381 -0.386077 
38 1 2.95454 0.586758 3.26678 1.90332 0.522467 -0.182482 
39 1 8.978 6.25424 4.83217 0.340679 0.146114 0.593709 
40 1 1.11013 7.77819 8.50828 -0.268211 -0.0232914 0.37847 
41 1 0.256317 8.76104 7.60069 0.894896 -0.266321 -0.0637808 
42 1 1.35787 2.62308 4.5826 0.616514 -0.355607 0.568896 
43 1 8.91051 0.349376 6.62995 -0.0914226 0.17186 -0.112144 
44 1 4.55057 7.43859 2.1003 1.35386 -0.268784 1.29171 
45 1 8.70498 2.71619 0.417958 -0.53613 0.483046 -0.495648 
46 1 5.94215 3.59735 5.50361 -0.117046 -0.701307 1.19418 
47 1 9.39464 7.38567 3.45369 0.275793 -0.661183 0.351967 
48 1 3.053 7.76106 4.98689 -0.310853 -0.556683 -0.682198 
49 1 5.39108 6.71072 2.56053 -0.337691 0.440386 -0.558897 
50 1 4.25127 4.27849 4.83817 0.562704 -0.481123 -1.11049 
51 1 1.6058 6.41077 4.26359 0.345356 0.960794 0.287089 
52 1 8.03311 2.09702 4.28696 -0.533258 1.43205 1.43451 
53 1 0.665318 4.09051 2.94851 -0.372459 -0.32699 -0.0944166 
54 1 2.91696 1.46805 0.482743 0.380454 0.211049 -1.02331 
55 1 3.77212 0.148134 2.59526 1.93697 0.217597 -0.0542994 
56 1 7.63187 6.52724 3.63862 -1.65126 0.256177 0.119953 
57 1 1.33703 6.39473 3.279 -1.40076 -0.80004 -0.281964 
58 1 8.10666 4.66078 4.69877 -1.4174 -0.85641 -0.790431 
59 1 0.496428 2.25953 0.386558 0.498708 -0.125841 0.224788 
60 1 2.32712 3.2369 3.44593 -0.35932 -0.129702 -0.0262398 
61 1 8.49002 5.87639 2.36339 -0.130455 -1.02868 -0.983126 
62 1 2.13204 8.91417 3.69585 0.108013 0.151375 -0.400473 
63 1 9.31936 3.50722 2.79577 -1.2846 -0.829769 0.485112 
64 1 0.125313 1.2395 4.44513 1.16547 0.0553015 0.284542 
65 1 4.68876 5.69728 0.626333 -0.325945 0.667592 -0.462344 
66 1 6.84771 3.60257 6.27027 0.776729 -1.48865 -0.863419 
67 1 8.41661 1.15764 7.0255 -0.232836 0.664749 0.479132 
68 1 1.86024 1.79705 4.67351 -0.713225 0.266577 0.857832 
69 1 7.6063 3.86673 2.50541 -0.478703 -0.228403 0.64088 
70 1 1.3101 0.38471 5.66859 -1.03745 0.703271 -0.0725811 
71 1 5.56995 7.1803 4.83763 -1.19508 1.48944 0.0691598 
72 1 1.07681 8.18379 0.821103 -0.211963 0.490624 0.0445125 
73 1 1.10833 9.2953 8.99837 -0.398466 -1.20773 0.23905 
74 1 3.20204 4.82827 4.02559 -0.0526205 -0.356836 0.124958 
75 1 0.290274 0.265931 7.32468 -0.0280974 -0.504971 -1.97943 
76 1 6.95244 0.459953 3.41089 0.360673 0.50165 1.28833 
77 1 2.3054 3.37107 6.80187 -1.77785 -0.0073127 1.34211 
78 1 4.41682 3.1203 2.17138 -1.03172 0.107049 0.0109483 
79 1 5.33062 7.82022 1.61754 -0.202413 -0.442644 -0.0846105 
80 1 3.72212 2.99599 5.89599 1.31426 0.308012 -0.409002 
81 1 7.10019 8.6092 8.5928 -0.170911 0.579746 1.12945 
82 1 0.941121 7.65402 3.36924 -0.0317205 0.257957 0.567865 
83 1 2.51975 1.56844 1.93821 -0.196698 -0.00411287 0.202463 
84 1 7.74732 0.863734 3.70123 -0.514013 0.388978 1.00513 
85 1 2.52461 2.33595 0.506017 1.21745 0.496146 -0.295114 
86 1 0.94088 0.966638 4.96953 -1.29588 0.0076347 0.262543 
87 1 2.49017 0.378698 8.29645 -0.318951 -0.0166792 -0.619755 
88 1 6.36709 0.217436 4.86743 -1.55389 0.279628 -0.0729273 
89 1 3.97866 0.736693 5.34445 0.875837 -0.13772 1.29813 
90 1 0.767969 3.34246 2.30399 -0.358282 -0.674693 1.70153 
91 1 5.26988 5.73459 2.46029 1.63237 -1.41477 -0.418771 
92 1 1.20181 9.40219 2.82684 -0.0539724 1.14783 0.2745 
93 1 8.44725 6.15009 4.02892 0.0404517 1.55886 1.56245 
94 1 7.13471 3.0265 1.65314 1.31649 0.717186 0.589972 
95 1 4.22631 1.34828 8.4256 -0.512199 -0.513444 -1.15123 
96 1 8.34971 8.86873 4.14718 -1.0065 0.942846 -1.35013 
97 1 0.339858 7.74798 2.60291 0.147193 0.425812 -0.741342 
98 1 2.57875 0.861008 9.15459 -1.25382 -2.08863 0.768205 
99 1 5.26947 5.0655 0.219861 0.0190973 -0.153668 -0.615396 
100 1 4.64385 5.29228 6.25517 -0.500819 -1.37352 0.554401 
101 1 3.26931 4.01896 7.92382 -0.202045 0.748143 1.13346 
102 1 8.8863 6.89282 1.03139 -0.13834 0.161025 0.086727 
103 1 4.37895 4.24488 5.77829 0.138726 0.660539 1.78992 
104 1 4.44086 3.32114 5.35578 -0.0145178 -0.40224 0.00897995 
105 1 5.4866 0.401729 2.60014 0.416998 -0.382975 1.68022 
106 1 9.15335 3.21423 4.47366 -0.751089 -0.458174 -1.62113 
107 1 7.12244 3.78017 0.0210259 -0.824402 0.241505 0.394175 
108 1 9.08789 1.32457 1.30694 0.361356 -0.680132 0.401971 
109 1 3.70836 2.05093 5.23988 -0.349778 0.177971 0.488614 
110 1 3.36735 8.53268 0.437635 -0.821051 -0.156212 -0.17105 
111 1 6.77215 2.9453 7.03733 1.69694 -0.0112706 -0.20937 
112 1 3.81094 0.271744 3.5824 0.875409 -0.0506931 -0.766766 
113 1 2.04875 1.57578 0.129037 0.266597 0.809787 0.0455905 
114 1 3.13804 0.480387 4.28054 0.804067 -0.0888113 1.04911 
115 1 5.46095 5.30866 8.68204 0.311085 -1.80979 1.2211 
116 1 1.16398 8.62932 3.39093 -0.652007 -0.454166 0.465841 
117 1 8.86903 5.96994 1.48271 -0.207576 0.379482 -1.1878 
118 1 5.98315 3.21893 6.3777 0.0472107 1.38002 -0.567519 
119 1 4.64558 4.44097 6.63698 -0.321967 -0.576678 -0.75184 
120 1 7.47858 1.47829 7.65845 -0.116446 -0.713912 0.669676 
121 1 8.51803 2.594 4.88649 -0.680715 -0.490352 1.05602 
122 1 7.78795 8.58291 9.35611 0.202869 -0.100494 0.0911847 
123 1 5.11729 6.55882 4.20218 -0.280586 1.05904 0.317546 
124 1 5.7461 1.24491 1.15924 0.472111 0.16987 0.200212 
125 1 6.71908 1.06298 5.16182 -1.88401 1.14375 0.174139 
126 1 0.593734 2.63308 6.76868 -0.0481663 0.198756 -0.583965 
127 1 5.0531 4.87912 4.76398 1.73513 2.35023 -0.0309881 
128 1 5.17696 0.368785 1.71103 0.0930271 -1.49598 0.343385 
129 1 2.0989 1.01662 2.54647 -0.614619 1.08169 -1.11256 
130 1 6.34243 6.48882 1.13943 -0.605581 -1.02271 0.438242 
131 1 4.005 8.80808 4.04218 2.31408 -0.284521 -1.01097 
132 1 4.51371 6.47325 9.12466 0.437151 0.0105001 -0.0248184 
133 1 4.38211 5.34736 2.39407 0.359622 0.946315 -0.104096 
134 1 9.26283 7.69839 0.329432 0.107611 -0.143277 -0.437794 
135 1 6.11966 5.25897 4.68227 -1.77695 -0.52559 0.33508 
136 1 6.17839 5.73449 3.8548 -1.39068 -0.739582 -0.525981 
137 1 3.13426 9.32315 5.36925 0.465005 -0.164309 -0.668487 
138 1 6.46326 3.39096 0.693016 -1.14273 -1.55531 0.554372 
139 1 5.16606 1.85119 7.40953 0.128261 0.181872 -1.00414 
140 1 3.88494 4.3926 1.18697 -0.169553 -1.13792 -0.414916 
141 1 7.65786 3.16485 6.48349 -0.740918 0.761528 -0.655136 
142 1 2.80609 6.75172 4.96109 0.771876 0.535084 -0.904332 
143 1 3.8737 2.77447 6.88715 1.24489 -0.570471 -0.853751 
144 1 5.50541 3.59313 8.661 0.387316 -0.833418 1.01525 
145 1 4.12412 6.77576 1.57152 -0.585637 -0.518089 -0.0572325 
146 1 4.79623 0.510065 8.40329 0.00934212 -0.201501 0.557057 
147 1 3.62319 5.76368 7.01509 -0.147415 -0.246515 -0.212105 
148 1 6.83215 8.68088 1.62815 -0.770522 0.361157 -0.307214 
149 1 8.17528 0.00951527 2.81786 1.77434 0.489112 -0.716889 
150 1 7.91303 1.19469 4.58924 -1.13499 0.619243 0.158061 
151 1 8.43428 7.72775 2.06174 1.55061 -0.307731 -0.151633 
152 1 6.15297 1.7247 1.89944 1.04067 -0.366348 -0.514146 
153 1 6.23468 4.74168 7.00654 0.105174 0.995593 -0.182592 
154 1 1.40176 3.08302 6.45217 0.762804 0.529447 0.192149 
155 1 4.09105 5.14281 4.45607 -0.676562 -0.664007 -1.52649 
156 1 6.15068 8.941 5.51147 -0.114801 -0.207463 0.950605 
157 1 7.17219 5.21384 4.64719 -0.746626 -1.47202 0.66266 
158 1 5.63121 5.21961 3.2468 -1.99246 -0.723003 0.864788 
159 1 4.70496 7.41404 3.00963 -1.29084 -1.38115 0.602316 
160 1 3.55153 8.82684 7.25301 -0.164962 0.714957 -0.127097 
161 1 8.086 1.83575 6.43971 -0.773925 -0.25361 -0.220753 
162 1 6.7567 8.37154 0.740072 -0.627474 0.849144 0.0237453 
163 1 5.8471 5.97663 8.05192 0.986576 0.71731 1.52719 
164 1 6.16084 4.48939 2.91211 0.227247 -0.206176 0.963877 
165 1 5.91802 2.61868 3.31173 0.304851 -0.864749 0.0763681 
166 1 1.87166 8.00858 3.36768 0.388004 -0.709189 1.06305 
167 1 3.99439 3.42264 7.6385 -1.36369 -0.352133 0.104836 
168 1 6.28373 0.0951016 3.941 0.824958 0.456465 1.19471 
169 1 8.7897 5.03319 1.97506 -0.678273 -0.649729 -0.644491 
170 1 3.839 0.418099 7.05314 -0.366613 -1.40556 0.208549 
171 1 6.81415 1.95501 5.42469 0.892528 -1.14288 -0.438996 
172 1 6.58831 4.87317 3.79168 -0.148575 0.257623 -0.461785 
173 1 8.22996 2.26839 9.15082 -0.691732 -0.618612 -1.84318 
174 1 1.73849 6.23993 2.41007 -0.00307238 -0.657878 0.537885 
175 1 4.21044 9.05686 6.60098 0.269754 -0.381533 0.347567 
176 1 6.44547 7.53255 4.64332 -0.349093 -1.00887 -0.314865 
177 1 5.19091 8.79349 1.76541 -0.358932 -0.779344 -1.14757 
178 1 6.63594 3.76526 2.46203 -0.353896 0.206318 0.465404 
179 1 4.16936 6.84084 4.23268 -0.532982 -1.05899 0.10816 
180 1 0.76072 8.07842 1.77477 -0.638132 1.8367 -1.08506 
181 1 7.65225 6.26241 1.99532 -0.476005 0.72392 0.0361542 
182 1 8.8305 7.82726 1.19607 0.0102153 -1.07445 0.379506 
183 1 5.95949 2.81038 4.95754 -0.175202 -0.748836 -0.0959065 
184 1 0.662205 3.11439 3.23646 -0.425693 1.49598 1.16574 
185 1 3.87643 2.47683 1.46687 1.44391 -0.76394 -0.655596 
186 1 8.38707 9.37473 8.1871 -0.683415 0.0838567 -1.75929 
187 1 9.23733 2.2957 9.08005 0.344736 1.47543 -0.707027 
188 1 7.46432 3.15939 5.52377 1.31166 0.668063 -0.159526 
189 1 3.89379 7.87516 2.70379 -0.577811 0.542856 0.708479 
190 1 7.93399 5.33762 4.04939 0.423799 0.262142 -0.00265 
191 1 1.90847 9.25411 7.11511 -0.0337535 -0.0139998 -0.430884 
192 1 2.91124 4.65259 1.40785 0.731697 -0.788757 -0.0554242 
193 1 5.6118 0.812848 7.20163 0.874171 -0.710767 1.52346 
194 1 3.11547 3.51769 0.192235 -0.860808 0.426727 0.395882 
195 1 0.0022438 8.56594 9.37299 -0.280163 0.535747 -0.423494 
196 1 5.80915 9.30431 6.36405 0.545101 -0.278885 -0.0301767 
197 1 7.72117 2.97663 0.177788 0.393272 -0.562831 -0.902999 
198 1 6.00168 2.7994 8.75212 -0.239012 -0.00234197 1.3387 
199 1 1.71861 7.98523 1.68564 -0.905677 1.12909 -0.616734 
200 1 3.19846 3.38702 7.1494 -0.13735 0.738531 0.500737 
201 1 5.13807 6.85227 7.9319 -0.579688 -0.467436 -0.463374 
202 1 7.53793 4.81648 5.46735 0.498964 1.03797 1.49873 
203 1 7.03826 0.686164 4.34672 0.560713 -1.37509 -1.41235 
204 1 8.06472 5.78847 3.22775 -0.487533 -0.551739 0.839925 
205 1 9.03006 1.79868 0.481317 0.31697 0.400918 0.0471232 
206 1 1.97338 2.11627 5.68428 0.160024 0.973902 -0.359483 
207 1 8.93542 2.07783 5.62756 0.390037 0.0950371 0.0634995 
208 1 6.24015 5.9776 8.99838 -0.390207 1.32241 0.569495 
209 1 4.04985 8.42167 8.01895 -0.505339 0.919581 0.0298138 
210 1 8.52814 2.06367 1.53181 0.117735 0.22718 -0.247352 
211 1 3.6115 1.29051 7.64628 -1.16571 -0.41279 -0.00526168 
212 1 2.12408 1.65763 1.07037 1.15433 -0.00823322 -0.00974725 
213 1 6.15465 6.12492 2.64302 -0.485898 -0.350441 0.649578 
214 1 0.816306 0.383678 6.52411 -0.102743 -1.13858 0.422712 
215 1 4.52211 2.09906 6.63277 -0.726876 -0.15088 -0.329276 
216 1 7.61659 0.701732 5.33938 1.45933 -0.913299 -0.523086 
217 1 3.2748 6.518 5.76872 -0.109817 0.275495 0.676387 
218 1 5.63289 3.04482 1.0737 0.486354 -0.975132 1.16888 
219 1 8.62237 8.01166 9.04104 -0.344042 -0.65835 -0.253579 
220 1 4.0309 7.80555 4.46048 -1.37125 0.297073 1.30987 
221 1 6.22787 5.94857 5.60147 1.38105 -0.945124 -1.8868 
222 1 6.25546 1.55684 2.84312 0.651909 -2.31337 0.690659 
223 1 4.92731 1.98851 8.36143 -1.0404 1.37441 -0.319925 
224 1 8.67812 7.1537 5.17219 -0.579823 -0.605252 -0.497624 
225 1 0.635654 0.486853 4.17561 -1.37778 0.113022 0.544 
226 1 7.3793 7.72638 4.64143 -0.883322 -1.30359 -0.0347303 
227 1 6.5837 2.87376 5.68278 0.129622 0.343115 0.391405 
228 1 3.75493 6.01463 2.06706 -0.504841 1.0351 0.936354 
229 1 8.87558 1.2966 6.1552 -0.333194 -1.45411 -0.201234 
230 1 3.65595 5.04406 1.86143 -0.585475 0.307807 0.994154 
231 1 4.45407 6.94046 7.23898 -0.224931 0.351629 0.613267 
232 1 3.0296 7.4048 2.72822 -0.640877 0.636778 0.768982 
233 1 5.02755 4.43671 8.52183 0.199559 1.21413 0.280147 
234 1 4.39931 4.39206 2.0278 -0.38421 -0.950482 0.229551 
235 1 1.53532 2.41835 0.30999 0.196777 1.01201 -0.819367 
236 1 5.02381 2.81322 8.92899 -0.571091 -0.795157 -0.184136 
237 1 2.34221 6.98699 2.16908 -0.64473 0.750993 0.941085 
238 1 0.861055 2.2142 2.0652 -0.135406 -0.427164 1.63146 
239 1 3.9464 0.500742 8.01996 -0.509265 -1.17735 -0.280346 
240 1 9.23799 7.93406 5.05353 0.263224 0.150356 1.14212 
241 1 3.38069 8.07887 3.82956 1.1744 -0.118299 -0.754914 
242 1 5.45737 3.0574 2.03833 1.31088 0.606349 0.611533 
243 1 3.55598 8.3837 5.57344 0.730977 0.214911 -0.532379 
244 1 6.88698 6.64337 5.93757 0.887734 -0.217546 -0.909006 
245 1 1.74482 8.68976 0.240122 0.354963 -0.834276 -1.76255 
246 1 4.78083 4.42459 0.795109 -0.26013 -1.0505 -0.49533 
247 1 5.71284 3.2614 0.131283 -0.366142 -0.770289 -0.356694 
248 1 5.4771 7.63645 2.53027 -1.29392 0.482097 -0.120433 
249 1 6.16777 1.46118 7.56742 -0.100076 1.09765 -0.106593 
250 1 7.0966 9.27556 5.36735 -0.255358 -0.431294 0.0490181 
251 1 8.97287 1.93694 6.84004 0.616683 0.192084 -0.169266 
252 1 3.37404 0.469227 6.12889 0.11155 0.690268 0.576579 
253 1 5.11416 5.6644 7.5381 -0.749793 -1.55449 0.321938 
254 1 0.0973818 8.84364 5.02388 -0.767097 -0.0102665 -0.440819 
255 1 3.95754 1.34025 6.78801 -0.615824 -0.0298552 0.128264 
256 1 7.34155 2.06781 0.0862465 1.01965 -0.368254 0.267542 
257 1 3.6646 8.14974 6.54935 -0.433913 1.17807 -0.273171 
258 1 4.40039 8.25834 7.12406 0.570799 -0.222384 -0.206337 
259 1 8.0759 0.251821 7.11817 -1.25602 -0.486024 0.551694 
260 1 6.92296 4.70856 6.30648 -0.733488 0.906366 0.704577 
261 1 4.82146 2.28442 2.09062 -0.587432 0.474109 -0.135569 
262 1 4.90363 0.882556 5.62309 -0.643586 -1.08143 -0.75493 
263 1 6.81776 2.2906 3.07816 -0.512022 -1.11605 -1.03749 
264 1 3.38003 5.38778 2.71359 -0.730009 -0.749474 -1.21558 
265 1 5.23396 2.13451 5.03558 0.980663 1.1525 1.47414 
266 1 7.46912 2.02979 1.35786 -0.183868 -0.159626 -1.39967 
267 1 7.02203 1.25991 1.78452 -0.965376 1.61828 0.454337 
268 1 5.24415 9.06528 8.55332 -1.16266 0.467987 -1.14057 
269 1 3.70759 2.67804 3.97188 0.23477 0.638422 0.22365 
270 1 8.22501 2.64585 5.85754 0.398914 1.01649 -1.7324 
271 1 8.4279 3.0005 2.94521 -1.36696 -1.27101 0.889505 
272 1 4.18154 8.27219 9.39874 -1.46531 1.0945 0.105917 
273 1 1.7727 0.562965 6.50824 0.541631 0.659719 0.529697 
274 1 2.51706 7.30234 0.101944 0.275616 0.165389 0.393052 
275 1 7.81675 1.73146 2.15999 -0.640886 0.0727623 -0.739699 
276 1 0.065393 1.0696 6.89502 0.821843 -0.165874 -0.152025 
277 1 9.12455 9.26006 0.586407 -0.797118 -0.359046 0.398689 
278 1 1.69956 4.96533 3.96876 -0.314172 0.927005 0.64214 
279 1 5.11417 3.16077 4.68219 -0.342246 -0.776287 -0.182767 
280 1 6.06916 6.73289 4.16125 0.369866 -0.297563 1.25319 
281 1 8.1144 1.93166 0.651462 -0.11808 -0.577681 0.236754 
282 1 8.18817 0.0156727 0.356816 0.101017 -1.49724 0.377813 
283 1 6.80878 7.03441 9.14696 0.0872976 -0.588704 0.953195 
284 1 8.06688 1.23369 1.36586 -0.326937 -1.59244 -0.169875 
285 1 0.683174 1.48991 2.65412 1.55275 0.566232 -0.528485 
286 1 5.77778 1.23589 5.35291 -1.11269 0.707476 -0.514391 
287 1 7.59397 7.46223 3.75539 -0.636138 -0.432615 -0.226651 
288 1 0.928723 8.35803 9.28504 -0.329964 0.586515 -0.164001 
289 1 5.74224 6.15658 1.77875 -0.793957 1.98359 0.0462508 
290 1 3.25321 7.21064 4.2194 -0.871475 -0.538349 0.76022 
291 1 5.40548 0.0285529 3.48139 1.02563 -0.0523157 0.549755 
292 1 5.49524 4.13682 6.92076 0.744144 -0.183436 0.399773 
293 1 2.64167 2.90939 1.61016 0.113443 1.02991 -0.966723 
294 1 9.33594 0.0278664 8.21608 0.788759 -1.10579 0.590605 
295 1 6.22725 4.12001 0.104425 -0.260853 -0.256741 -1.20151 
296 1 7.11562 5.73612 3.79301 -0.283162 -0.623289 -0.72776 
297 1 6.05113 0.966342 4.35235 -1.08435 1.36178 -0.580438 
298 1 5.61216 2.17388 2.5409 -0.237047 -0.162176 -0.309524 
299 1 5.28988 5.60513 4.07958 0.599332 -0.456264 -0.181311 
300 1 7.38594 3.53274 0.890203 0.327597 -1.26197 -0.11144 
301 1 5.1741 6.95035 0.192324 0.122696 0.833828 0.604014 
302 1 0.967622 3.89716 5.42366 -0.160491 -0.0697924 -0.575091 
303 1 5.05089 1.21848 9.0018 0.184028 -0.199491 0.151649 
304 1 8.97629 5.44211 3.55006 0.339572 -0.932744 1.37997 
305 1 4.79499 1.03103 1.1386 0.694854 1.45973 0.0220338 
306 1 4.22262 1.99011 7.59645 -0.766298 -1.04626 0.589986 
307 1 3.72663 7.66344 7.482 -1.07498 -1.32418 -0.284446 
308 1 2.4568 0.067832 1.31179 -0.0293412 0.750781 -0.411786 
309 1 2.7676 1.84189 8.94514 0.0155571 0.424654 -0.245273 
310 1 2.35152 3.2669 0.754826 0.700152 -1.015 0.508589 
311 1 2.02769 7.90192 0.7739 0.267888 0.784687 -0.482679 
312 1 7.61659 6.12598 4.51619 0.750726 -0.552861 0.306672 
313 1 0.307662 6.55351 1.43035 0.24086 0.020572 -0.0296399 
314 1 2.26802 2.31151 3.088 -1.45573 -0.400622 -0.0733307 
315 1 3.44695 8.52184 8.85323 -0.63369 -0.0182824 0.984918 
316 1 6.29516 3.0922 4.12361 0.763714 0.31419 -1.37632 
317 1 0.422862 0.61893 2.8508 -0.0153088 0.155833 0.218673 
318 1 3.65938 8.72845 3.12452 0.134736 1.15078 -0.812035 
319 1 8.68747 3.74743 3.48333 0.136053 0.541341 0.12942 
320 1 5.99669 7.09976 1.87711 -0.192549 -1.54499 -0.176489 
321 1 3.37759 7.692 9.34269 0.342524 -1.13478 -0.281787 
322 1 3.80383 4.84385 6.43145 0.0880069 0.462348 -0.315831 
323 1 5.70967 4.95803 7.79546 1.09827 -0.30688 0.685038 
324 1 8.54865 2.18089 3.43713 -0.449585 0.506173 -0.442871 
325 1 4.71272 0.316515 9.36117 0.0816916 -1.28115 -0.81888 
326 1 5.8873 0.260156 1.1134 -0.444863 -0.300959 -0.593771 
327 1 0.595241 9.18105 5.78238 -0.0658317 -0.144872 -0.194367 
328 1 5.14227 8.80045 6.85401 0.147929 -1.13221 1.81929 
329 1 2.62589 2.60522 7.36369 -0.611887 -1.69176 0.754016 
330 1 5.04992 8.656 4.1549 -1.58326 -1.11156 0.143046 
331 1 2.23321 3.03641 5.89215 0.135833 -0.496737 -0.777565 
332 1 6.31733 2.84469 2.4225 -0.183297 1.22599 -0.521536 
333 1 3.70586 7.0345 5.02849 -1.14179 0.175375 -0.425799 
334 1 8.51167 4.3862 5.50386 0.0945141 1.60539 -0.277189 
335 1 6.58193 5.3876 3.01362 0.523003 2.44378 -0.611999 
336 1 2.82939 4.68509 2.39257 -1.15257 -1.02801 -0.425979 
337 1 2.34599 1.67329 7.17131 0.764606 1.13005 -0.160597 
338 1 1.53165 0.157942 0.518879 0.160338 0.801078 -0.938007 
339 1 0.781022 5.96187 2.48661 0.0109559 -0.469966 -0.353263 
340 1 6.69109 1.3163 3.6901 0.6028 0.643748 -1.59152 
341 1 0.639969 1.29133 3.6069 0.354842 0.284814 -0.0398686 
342 1 2.21962 0.0682464 5.67751 0.578032 -0.607726 -0.172273 
343 1 4.70194 6.84851 5.0282 -0.394616 -0.0196976 2.3908 
344 1 1.09592 5.70213 3.90068 0.244455 -0.87452 -1.57009 
345 1 4.37039 1.16316 0.272373 1.14598 0.268775 -1.58559 
346 1 0.256924 1.42842 9.17785 1.2087 -0.133384 -1.63602 
347 1 6.97796 4.69736 2.40973 0.720046 -0.251118 0.725273 
348 1 7.66848 0.400198 1.15857 0.213986 0.925634 0.826441 
349 1 1.50441 1.38332 7.67976 -0.478699 0.310843 -0.0875448 
350 1 3.61769 4.05301 8.97011 0.307353 -0.0601952 0.126612 
351 1 1.85152 3.59383 5.22392 -0.637937 -0.950635 1.32223 
352 1 2.19182 0.745532 7.43278 0.765813 1.03754 0.0334687 
353 1 4.50477 8.4116 5.96631 -0.0159663 -0.913115 0.0639953 
354 1 1.44565 5.49961 3.00219 -0.81956 -0.358199 -0.783472 
355 1 8.26797 1.97662 7.50076 -0.869434 0.227387 0.480358 
356 1 6.69392 8.02661 9.26242 0.153872 0.650356 -0.307679 
357 1 2.19698 7.5842 6.69635 0.357547 -0.875435 -0.632738 
358 1 5.38557 2.49696 6.54556 -0.520449 0.0991068 -0.60459 
359 1 1.65771 3.23128 1.89446 -0.425515 0.1942 -0.226852 
360 1 4.08398 2.84586 9.11532 -0.775331 1.0007 -0.299182 
361 1 5.24387 8.79591 5.14747 -1.20154 -0.455567 0.224195 
362 1 9.07525 1.47777 7.66174 -0.008521 0.211084 0.443932 
363 1 3.98713 3.76276 2.71271 -0.00707693 -1.73749 -0.306759 
364 1 9.34373 5.44652 2.66545 -0.589561 0.79037 -0.221857 
365 1 8.65006 0.713385 5.42584 -0.00805493 -0.318073 1.80623 
366 1 7.94823 3.57603 1.65689 -0.62048 0.286409 0.628957 
367 1 0.0711994 2.38328 2.87103 0.261988 -0.368684 0.312809 
368 1 3.38133 9.31972 0.987858 -1.90549 -0.504534 -0.772133 
369 1 6.81166 4.30278 0.835092 -0.543184 -0.155871 -0.725408 
370 1 3.12095 8.31725 2.34527 0.306612 -0.684468 -1.15159 
371 1 5.24613 4.64962 5.92235 -0.304496 -0.657247 -0.359816 
372 1 4.711 6.06473 5.72045 1.04046 -1.64554 0.85805 
373 1 6.23736 7.07052 2.80897 0.692488 -0.367385 -0.0152386 
374 1 6.66163 8.23109 4.07914 -0.36263 -0.778154 0.378371 
375 1 3.26843 4.43811 0.440549 1.0363 -0.22188 -2.13595 
376 1 3.17198 6.78399 1.68498 0.45017 0.354078 -0.160814 
377 1 3.54561 6.92959 0.691856 0.474261 0.36915 0.432052 
378 1 3.17834 9.20413 1.90236 -0.121648 -0.517389 -0.766383 
379 1 8.51022 8.46784 5.48476 0.554041 0.0510322 0.37328 
380 1 3.35147 1.32268 5.7649 -0.288168 -1.13978 0.143987 
381 1 6.81284 9.28149 7.97836 0.934361 -1.49546 0.591187 
382 1 3.92001 5.94562 8.56082 -1.74673 0.819791 0.323792 
383 1 5.19322 4.76262 2.51248 0.0432938 -0.833006 1.65041 
384 1 3.44793 3.12498 2.10351 -0.521203 -0.22937 0.536522 
385 1 8.55453 8.44241 0.511709 -0.583005 0.509139 -0.222315 
386 1 6.25916 3.14395 7.87114 0.458646 1.9519 0.019099 
387 1 5.36605 2.7811 8.03001 -0.229089 -0.371175 -0.925819 
388 1 3.23974 7.30811 8.29033 1.21678 0.629725 -0.425957 
389 1 4.47391 0.76955 2.20481 -0.930848 -0.389093 0.482009 
390 1 5.8607 9.07127 0.304033 -0.0483398 1.20288 -1.95803 
391 1 1.17901 2.15874 6.18516 0.809633 1.87893 0.516663 
392 1 2.60292 1.33184 4.31018 0.605937 -0.16471 -1.38153 
393 1 8.8745 8.89318 3.36411 -0.524276 0.326799 -1.27771 
394 1 7.18547 7.06945 2.95799 -0.438417 0.439791 1.46439 
395 1 4.62895 0.129627 4.05323 0.990741 -0.093419 0.790461 
396 1 3.44261 4.48524 3.11194 -1.86046 -0.177939 -0.523319 
397 1 8.57755 0.491718 8.99005 0.0120325 0.289797 0.257848 
398 1 8.77875 5.3224 4.49619 0.686351 0.125767 -0.276938 
399 1 8.29297 1.1575 8.13834 -0.334203 -0.816034 0.731073 
400 1 8.67872 0.530215 1.08736 -0.532787 -0.186079 -1.57459 
401 1 5.93786 8.68241 3.63121 -0.0319178 1.59649 -0.995323 
402 1 8.5756 4.95764 1.01608 -0.43331 0.579648 -0.801174 
403 1 7.26619 0.381868 6.17294 -0.715648 0.00433807 0.265895 
404 1 7.69656 0.747724 2.26703 -0.128113 -0.32456 -1.39388 
405 1 8.90363 4.12402 4.56443 0.548258 -0.113398 0.821534 
406 1 2.95748 2.50908 5.56361 0.877769 -0.321965 -0.0925405 
407 1 3.66123 5.0697 7.80661 0.115545 -1.47936 -0.847747 
408 1 3.52321 6.71233 7.54715 0.137321 1.29666 -0.105519 
409 1 8.19279 0.980951 0.393599 1.40994 -0.6555 0.256791 
410 1 6.01694 0.771598 3.33427 0.16142 0.249508 0.0468243 
411 1 5.71936 7.88781 4.15528 -1.02409 0.122024 0.29585 
412 1 6.43669 8.17608 5.9887 0.0528135 -0.127748 0.334826 
413 1 3.41468 6.24691 4.29312 0.126262 0.316836 -0.445808 
414 1 6.76299 5.71517 6.36454 0.80805 0.0819562 1.73681 
415 1 8.56283 4.11578 2.5592 0.759995 0.624787 -0.574544 
416 1 1.20216 7.23791 4.62999 -0.762851 -0.457716 1.12575 
417 1 1.83197 2.16263 8.82484 -0.0667747 1.16651 1.48067 
418 1 5.39928 6.45536 7.11806 -0.950152 1.29957 -0.408106 
419 1 3.63707 2.10286 0.461267 0.137714 0.644675 -0.208183 
420 1 0.763933 6.85966 3.87141 -0.799272 -0.888963 0.111268 
421 1 1.54686 0.63313 8.28063 0.454245 0.535303 0.733009 
422 1 0.164981 9.02114 6.62987 0.420074 -1.30031 -0.399836 
423 1 5.29451 4.13607 0.0138649 1.11042 -0.450251 0.831398 
424 1 3.03821 5.71545 3.54881 0.377351 -0.943228 -0.193057 
425 1 8.31683 2.95059 3.947 1.66918 -0.874741 -0.186374 
426 1 1.69624 2.93545 7.41112 1.41299 0.997375 0.137096 
427 1 5.04642 8.52098 7.78342 0.0451369 0.595608 -0.655457 
428 1 5.2285 1.37409 1.97458 -0.340782 0.78898 -0.197079 
429 1 1.35439 7.47647 5.5375 0.593951 0.645502 -0.167554 
430 1 5.10826 6.86597 1.63267 -0.430047 -0.621505 -0.558156 
431 1 6.58976 1.79102 1.04118 1.31075 -0.433169 -0.48421 
432 1 3.24376 2.86167 0.864968 0.330864 -0.0672621 0.00384362 
433 1 5.89644 4.53495 5.24685 -0.677392 0.261005 1.09605 
434 1 5.96519 8.75173 7.98982 0.0369496 -0.270617 -0.477149 
435 1 3.86528 5.81673 6.07411 0.783345 -2.16109 -0.343742 
436 1 9.39512 4.81461 5.03407 -0.448443 -0.436376 -0.760946 
437 1 4.74321 2.73351 7.31066 -1.56681 0.189683 -1.33223 
438 1 6.66358 7.37311 0.639324 -1.39622 1.00885 -0.643812 
439 1 5.86238 8.03798 5.20001 -0.0898542 0.542223 -0.674309 
440 1 0.554959 8.68126 2.58784 0.0595339 -0.866717 -0.478196 
441 1 0.679392 0.69058 8.68236 -0.273678 0.544187 -0.643643 
442 1 3.77365 5.00081 8.78429 0.883815 -0.0265431 -0.118795 
443 1 4.89332 1.22537 6.66715 2.52346 0.332492 0.0173968 
444 1 8.9921 8.50755 8.25466 -1.11726 -0.670611 1.59339 
445 1 3.59786 1.44333 9.20202 1.2087 0.164261 0.717928 
446 1 4.19725 6.82597 5.81126 1.04015 -0.79638 1.4633 
447 1 3.14759 2.7742 3.15128 -0.743913 1.31908 0.21908 
448 1 4.26197 1.47858 5.92543 -1.82496 -0.384747 0.623713 
449 1 7.56882 7.91696 0.598931 -0.464694 0.356433 -0.544571 
450 1 6.26055 9.17502 8.79097 -0.592105 0.265588 -0.65871 
451 1 6.78198 5.33555 7.50535 0.37487 -0.330667 2.03522 
452 1 8.62988 8.96728 9.03843 -0.556455 -0.665322 0.397082 
453 1 5.58496 0.408765 8.97115 -0.200552 0.232547 1.40269 
454 1 3.19571 1.01885 8.44852 -0.162797 0.536848 0.47416 
455 1 8.73692 0.687437 4.49706 0.646977 -0.947089 0.801252 
456 1 8.65775 1.42557 9.08242 0.613786 -2.07865 -1.77805 
457 1 8.62349 2.16526 2.48861 -0.821105 -0.316084 -0.321753 
458 1 6.02514 8.74943 4.56927 0.589626 -1.28711 0.150758 
459 1 0.991102 1.22497 5.91793 -0.883979 -0.703763 1.46709 
460 1 2.44469 7.82654 8.58045 0.0719736 -0.514377 0.294551 
461 1 6.79311 6.64803 2.14803 -0.32162 -0.343556 -1.03978 
462 1 5.57707 0.286357 5.38289 0.0525885 0.194892 1.33757 
463 1 5.96864 2.38677 7.31798 0.32485 0.272633 -1.16119 
464 1 8.79392 9.05075 7.36178 -0.139468 -1.32619 0.63588 
465 1 7.6842 8.96982 6.54423 0.0854768 -0.382695 0.91603 
466 1 4.91833 6.05293 8.39815 -0.863327 -0.599082 0.771358 
467 1 5.10915 3.99097 5.19695 0.824026 -1.02977 0.474355 
468 1 8.11905 0.74374 6.21221 0.317921 0.258108 0.193619 
469 1 6.47471 0.725094 6.71453 -0.695037 0.158935 0.608284 
470 1 1.974 3.3209 4.33468 -0.823283 -0.019056 -0.317876 
471 1 7.67282 3.39659 3.35987 0.343521 -0.0619854 0.681446 
472 1 1.23276 0.779686 2.25651 0.87896 -0.353097 -2.23484 
473 1 3.66908 2.1436 8.5521 0.460018 0.157976 -0.603209 
474 1 4.95445 8.82191 0.0376178 -0.540536 -1.08635 -0.808008 
475 1 8.06377 7.00089 4.443 0.00131025 -0.839731 -0.828847 
476 1 6.72321 9.31679 0.895088 -0.179794 -0.274356 -0.364549 
477 1 0.858918 2.30882 8.9256 0.750695 -1.51768 -0.793701 
478 1 4.01292 7.6975 8.6401 0.330546 -0.071579 0.804053 
479 1 6.62153 4.38329 4.60039 -0.682376 -0.371376 0.440331 
480 1 7.18952 6.86443 1.3119 -0.0937692 0.72457 0.0566882 
481 1 9.20705 0.959839 8.44389 0.869254 0.390462 1.10237 
482 1 7.25205 9.36564 2.66676 0.221557 -0.511927 1.22386 
483 1 0.121483 3.58923 1.59936 0.6688 -0.148538 -0.283753 
484 1 7.66598 9.29176 3.63776 -0.387739 0.225385 0.510895 
485 1 3.87022 7.27706 3.45111 1.22209 -0.377445 0.484043 
486 1 4.54428 3.65657 8.9205 -0.601996 -1.00085 0.908897 
487 1 9.18338 9.23092 2.52656 -0.219881 -0.216012 -0.00747057 
488 1 2.9122 1.83558 7.96502 0.433068 -0.927811 -1.55413 
489 1 0.0639312 4.73637 4.06179 -0.396022 -0.243445 -0.0995547 
490 1 2.2542 0.760131 0.637443 0.492967 1.86382 2.5014 
491 1 3.1708 2.64959 9.23555 1.30993 0.0444164 0.303484 
492 1 5.16803 1.74872 5.93903 -0.8112 -0.759275 -0.528897 
493 1 4.39697 1.30862 3.55698 0.840687 0.40518 0.00830549 
494 1 6.50064 2.19619 3.94593 -0.263231 -0.502201 1.45581 
495 1 0.26824 1.8284 8.30888 0.2908 -1.15841 -0.00798505 
496 1 0.714525 8.16691 6.97398 0.88979 -0.0866632 0.503301 
497 1 1.66952 8.36035 6.90957 1.54588 0.254511 -0.0588304 
498 1 5.74392 8.3937 8.99523 1.00122 -0.368699 1.24578 
499 1 4.44578 6.58545 0.706176 -0.332881 -0.221216 0.75179 
500 1 7.13857 8.00716 3.13874 0.172771 -0.813122 -1.26529 
501 1 8.02456 6.36191 1.09422 0.441512 0.629366 1.35345 
502 1 0.473519 4.05609 4.62056 1.29028 -2.48569 0.447602 
503 1 5.00132 6.81195 6.33954 -0.188335 0.363827 -0.721108 
504 1 3.05718 3.66969 2.79152 0.954825 1.09357 0.485308 
505 1 4.54577 6.08236 6.76191 0.151681 -0.607016 0.490382 
506 1 7.80397 4.37897 1.06342 0.458513 0.0484183 -0.257463 