ITEM: TIMESTEP
1262
ITEM: NUMBER OF ATOMS
1000
ITEM: BOX BOUNDS pp pp pp
0.0000000000000000e+00 9.4000000000000004e+00
0.0000000000000000e+00 9.4000000000000004e+00
0.0000000000000000e+00 9.4000000000000004e+00
ITEM: ATOMS id type x y z vx vy vz 
1 1 0.122249 3.58189 0.573672 -1.01892 -0.0993367 -1.67875 
2 1 9.11267 2.0637 8.66999 -1.56769 1.43967 -1.56537 
3 1 7.63266 3.29033 7.07518 -1.01232 -0.485084 -1.22339 
4 1 4.1523 5.63248 7.41631 1.73161 -0.0279486 0.892571 
5 1 7.83039 5.09681 5.14601 -0.252033 0.566521 -0.298037 
6 1 9.30353 4.11689 5.38104 0.723542 0.274726 0.0195195 
7 1 2.44916 8.24937 1.18391 -0.279407 0.0466198 -0.776753 
8 1 3.91131 3.69146 0.76207 0.800152 0.744879 0.388755 
9 1 2.80706 0.782323 1.36178 1.19618 -0.974436 -0.417606 
10 1 5.99668 1.50938 6.86704 -0.926149 -0.086474 -0.168231 
11 1 8.10439 0.89729 3.00044 0.0415755 0.309099 -1.81071 
12 1 0.972881 8.33831 3.12447 -0.425288 -0.7319 0.0680651 
13 1 6.65064 3.30767 5.43691 -2.25121 0.126161 -0.451666 
14 1 3.35506 1.21126 3.88424 -0.280034 0.330933 -1.36527 
15 1 8.19344 3.49823 8.65924 -0.0487965 0.527049 -0.374562 
16 1 9.13787 3.05036 8.5012 -0.489781 -0.0896445 0.695661 
17 1 6.54411 4.79209 5.29609 -0.264004 -0.0318332 -0.166266 
18 1 2.64631 2.80007 4.2015 -0.998789 -1.01673 0.752802 
19 1 1.15092 5.70105 6.00287 0.508359 0.128926 -0.895501 
20 1 0.548965 8.3783 1.79456 -0.362551 0.603025 -0.398206 
21 1 6.02987 3.98871 5.16603 0.511998 -0.328076 -1.50334 
22 1 0.0300515 5.65463 1.65347 0.0359308 -0.884181 0.521603 
23 1 5.27998 0.382556 5.38125 1.203 -0.383953 -0.920138 
24 1 1.10088 6.87176 0.684094 -0.991272 -0.367173 1.86998 
25 1 2.30821 1.14227 5.43439 -0.272489 -0.12333 0.92922 
26 1 2.80491 0.381218 3.81112 -0.191147 0.127635 0.212935 
27 1 5.64545 6.34903 1.00878 0.289153 -1.149 0.632421 
28 1 4.74864 1.82787 8.3076 -0.98688 0.901568 -0.792849 
29 1 7.1222 0.444882 5.41715 -1.23521 -0.149544 -0.658758 
30 1 7.42139 8.63768 3.67492 -1.35303 -0.241428 1.12038 
31 1 1.87369 1.25671 6.3189 -1.16054 -0.786534 -0.78485 
32 1 6.34269 5.09425 6.19387 0.467717 -0.131931 -1.39717 
33 1 0.542619 2.96082 6.7923 1.63202 1.34686 0.75317 
34 1 7.31509 1.4083 4.41672 1.68639 -0.238147 -0.56063 
35 1 1.05675 4.08905 8.65041 -0.441756 0.756416 1.16288 
36 1 0.141989 7.49531 1.96504 0.0634832 0.0904965 -1.45638 
37 1 3.56309 2.9348 6.95942 0.663064 0.303571 -1.41683 
38 1 0.160594 8.72981 5.49005 -0.685063 -0.187446 -0.175776 
39 1 9.27488 7.57249 8.30815 0.197187 0.810458 -0.0872835 
40 1 3.7365 8.51677 8.20635 0.516128 0.0344738 0.480081 
41 1 8.31478 7.12873 8.5531 1.04159 -0.809604 0.771265 
42 1 4.40697 6.70735 1.43695 0.405979 -0.92314 -0.766028 
43 1 1.85005 5.42009 1.71989 1.57088 0.838479 0.80074 
44 1 6.77335 2.74929 7.00449 0.630796 -1.58736 -0.217662 
45 1 4.3613 1.178 6.81007 -0.598522 0.25197 0.168608 
46 1 0.49782 6.24062 4.36934 -0.79469 -0.464242 0.384905 
47 1 3.19584 2.54424 1.79473 0.755255 -0.736321 1.73252 
48 1 1.68127 0.793729 9.39511 0.780761 0.0639582 2.12197 
49 1 2.84969 3.14916 7.63244 0.93992 0.401871 1.54127 
50 1 3.80301 1.74457 3.20837 -0.324709 -0.261467 0.978277 
51 1 0.36653 1.01001 3.45318 0.762481 -0.186548 1.92677 
52 1 5.42321 5.98498 3.54609 -0.238423 -1.40224 -1.15784 
53 1 3.16816 2.72266 5.88532 0.878265 -0.621202 0.243601 
54 1 7.57857 7.10324 2.64853 -0.274008 -0.578832 -0.276143 
55 1 6.67714 3.26457 3.86258 -0.969893 -0.719622 -1.20156 
56 1 2.71455 6.70828 5.63801 0.474484 0.40807 -0.172843 
57 1 3.11022 4.8405 1.21993 -0.171818 -0.687675 0.0591976 
58 1 3.26353 8.86677 3.63945 -0.804863 0.542842 -0.603274 
59 1 6.06004 5.86427 1.73342 0.237051 0.479064 -0.740427 
60 1 6.4706 8.04878 5.57669 0.674179 -0.375743 -0.891782 
61 1 5.30045 1.30048 2.37383 -0.289182 -0.28208 1.06834 
62 1 8.47788 6.2523 8.09838 -0.235701 -0.938884 -1.99988 
63 1 8.98348 7.68522 3.55737 0.938341 1.43105 0.370259 
64 1 8.60945 3.75088 0.917707 0.629806 -0.700682 0.654421 
65 1 4.2537 8.46274 8.98979 1.11499 1.18723 1.11478 
66 1 6.49895 6.57976 6.8704 -1.20687 0.238635 -0.417389 
67 1 4.94683 2.21152 2.44755 -1.09783 0.529506 -0.0833034 
68 1 3.90725 8.81823 0.430049 1.34109 0.966457 -0.665169 
69 1 7.89523 6.26235 8.89121 0.0323152 0.142613 0.538144 
70 1 6.48095 5.17407 8.18733 0.76972 0.445846 -0.2457 
71 1 3.31815 5.45493 6.12684 -0.643944 0.901378 1.42646 
72 1 7.21652 0.376033 4.40333 0.0685702 -0.318174 0.0341487 
73 1 0.948467 8.92002 3.97396 -0.198585 0.167152 0.782722 
74 1 0.584541 8.94435 9.29279 -0.962379 -1.13354 -0.321816 
75 1 6.17333 2.44626 3.73951 -0.909453 -0.894688 -0.31859 
76 1 3.23787 5.55674 7.66809 -0.753338 0.232601 -0.0721695 
77 1 8.30612 6.46649 1.59794 1.02053 -0.555024 -0.484512 
78 1 0.49982 2.444 8.27174 1.1679 0.573592 -0.493863 
79 1 8.95677 8.98574 9.10233 0.434565 0.580459 -1.13113 
80 1 6.28145 2.68515 2.81165 0.933691 0.497556 1.9228 
81 1 6.64578 5.48074 4.57958 0.607231 0.675997 1.13529 
82 1 2.29412 8.66925 2.01694 -1.14044 -0.83966 -0.0555595 
83 1 8.33404 5.46186 3.5599 0.149308 0.382043 -0.513929 
84 1 3.27971 3.41805 0.127132 -0.587285 0.511294 -0.807586 
85 1 2.52238 5.07263 3.92214 0.161275 -0.0446527 -0.457988 
86 1 2.15964 0.634567 2.9367 0.614175 1.82786 0.486832 
87 1 7.55713 3.64245 3.03607 1.48657 -0.196152 -0.168047 
88 1 1.41242 3.96889 3.78619 -1.29197 -0.451156 -0.168633 
89 1 3.19931 4.51766 3.57066 -0.0874107 -0.608031 -0.499678 
90 1 5.41602 4.77613 2.36921 1.23232 1.25069 0.137437 
91 1 0.727276 7.9513 7.99565 0.960254 0.733075 -0.706078 
92 1 5.85746 3.6722 4.31067 0.3203 0.138941 0.623634 
93 1 1.75164 7.31905 4.19546 0.628714 -0.00126131 0.820222 
94 1 0.785296 1.45389 7.97005 -0.397953 0.8071 0.0804347 
95 1 4.14857 4.53113 7.64205 -0.505499 -0.383291 0.552485 
96 1 3.31469 2.51028 4.85455 -0.589227 0.128672 -1.07406 
97 1 2.61198 8.03818 3.76388 -0.795536 -1.18403 0.299176 
98 1 3.92984 3.96523 3.8477 0.60039 1.63868 0.487417 
99 1 7.50958 8.80257 1.93046 0.463519 -0.336291 -0.0212479 
100 1 4.77073 9.18609 9.33811 -0.354088 1.26736 0.661322 
101 1 8.59914 3.0759 3.69163 0.181764 0.391819 1.14667 
102 1 1.49736 4.74924 5.2513 -1.15185 -0.231051 0.73847 
103 1 7.03595 7.18723 7.44554 0.271887 -0.550922 0.533869 
104 1 7.80856 7.61809 7.90043 -0.48626 1.32354 -0.868474 
105 1 1.54367 9.19135 9.18989 -0.271804 0.591273 -0.0159206 
106 1 7.74249 9.26646 5.97046 1.00234 1.40167 0.567246 
107 1 5.5193 4.32247 9.36094 -0.729942 1.91183 0.124964 
108 1 5.19587 5.77069 8.65464 0.849339 -0.494362 -0.577042 
109 1 4.1862 5.87537 3.77629 -0.110191 0.366141 0.668646 
110 1 8.29431 7.0023 3.33015 0.353645 0.113708 0.696411 
111 1 7.85034 0.835478 4.9745 -1.1111 -0.0813393 1.03924 
112 1 0.137914 0.384965 4.26945 -0.918273 0.307828 0.69646 
113 1 3.04059 2.19804 6.68766 -0.144093 -0.410779 0.0464515 
114 1 0.0297781 3.94801 1.42467 1.22236 0.14985 0.509082 
115 1 9.0848 0.193649 2.67752 -0.372158 -0.514162 0.845364 
116 1 7.39724 4.79533 8.47716 -0.243471 0.11233 -0.238774 
117 1 9.24316 2.17308 6.82967 0.35657 0.317904 -0.889192 
118 1 2.68742 9.22226 1.2596 0.689447 0.19798 0.254753 
119 1 1.85598 6.66473 9.11617 1.40753 -0.88803 -0.156343 
120 1 5.42491 1.84051 3.86663 0.818549 0.318484 -0.431 
121 1 0.990654 0.930127 6.16999 -0.827351 -0.943764 -0.659332 
122 1 6.22433 3.07654 6.26017 0.547528 -0.977231 -1.43888 
123 1 6.16954 4.15822 2.35421 1.16861 -0.234611 -0.241943 
124 1 5.08215 2.31371 5.34768 0.339953 0.398915 0.263912 
125 1 7.30297 7.64628 5.76414 -0.0145452 1.28805 -0.869847 
126 1 1.7781 7.87866 1.80273 0.441351 0.663778 0.386407 
127 1 0.922711 6.81336 2.80011 0.143029 -0.591455 1.40885 
128 1 4.18946 9.14807 7.54548 -1.00186 0.430707 0.262282 
129 1 5.04686 4.28877 8.041 0.758719 0.47945 0.606402 
130 1 1.87979 0.133083 3.69232 0.610033 -0.0148167 -0.1675 
131 1 2.50939 1.4405 7.12927 0.316182 1.44201 -0.626141 
132 1 3.23816 5.77095 1.51946 1.40945 -1.24678 0.385088 
133 1 3.30829 5.52723 3.49064 -0.209174 -1.12312 0.978875 
134 1 0.585591 3.54693 4.00887 0.0731971 1.78438 -0.713491 
135 1 5.87696 8.9812 7.16844 1.83662 -0.0557177 0.637149 
136 1 7.45739 4.14431 7.44544 -0.640506 -0.0592283 0.580574 
137 1 2.5457 5.86404 0.0412537 0.00937289 1.41735 0.51857 
138 1 8.88539 1.14853 5.15172 1.49926 0.253618 0.0305169 
139 1 8.08001 4.84081 1.68426 -0.577733 0.444947 2.20731 
140 1 4.03145 6.073 2.07661 0.164479 1.12573 -0.360213 
141 1 8.04696 2.81857 2.9712 -0.831453 -0.290799 -0.481743 
142 1 3.65731 6.58755 5.45935 0.129655 -0.670757 0.909231 
143 1 4.38563 2.1562 9.15523 0.746449 -0.394762 -0.550481 
144 1 4.11012 1.50473 7.64838 0.794138 -0.840345 0.107807 
145 1 1.94648 6.3627 4.03413 -1.66573 0.836769 -0.45847 
146 1 8.2872 6.5905 5.21082 0.886043 0.273664 0.897855 
147 1 8.4084 2.14217 1.24438 -1.21708 -0.916564 -0.217567 
148 1 8.69222 7.38542 1.52353 1.13979 0.701161 -0.716247 
149 1 9.34262 4.35223 2.63801 1.44472 0.291833 -1.38285 
150 1 8.48883 2.59702 2.07382 -0.139052 0.0144547 -0.230903 
151 1 2.62057 6.99545 3.90384 -0.0642716 -0.414358 1.96124 
152 1 2.91044 3.95474 2.86739 -1.12932 0.959764 0.184986 
153 1 7.73847 0.824938 6.00336 0.499975 -0.0982191 0.41201 
154 1 6.94393 5.58752 1.47171 -0.243597 1.37827 -0.235827 
155 1 1.5395 3.14207 1.1674 1.05792 0.789666 0.580287 
156 1 9.37505 2.71344 5.29231 -0.319486 0.246884 -0.886997 
157 1 8.88557 7.29001 4.69337 -1.11139 -1.05691 0.123535 
158 1 8.56138 1.50447 3.58988 0.00819737 0.983088 -0.588102 
159 1 7.68236 3.36536 5.45633 0.753278 0.642652 0.151605 
160 1 5.62984 1.1147 4.52306 0.94069 0.691269 -0.589691 
161 1 1.15117 5.33882 7.04936 -0.753183 -1.57648 0.25455 
162 1 0.748082 7.97939 8.96716 -0.285193 -1.74837 -0.610711 
163 1 6.44649 4.02534 1.38471 -1.44352 0.188931 0.0375104 
164 1 5.46876 4.80878 4.76009 -1.03221 1.33443 0.795612 
165 1 2.49322 2.18535 2.41599 1.05137 -0.0580609 2.32677 
166 1 3.97386 8.84417 5.68105 0.759171 1.45952 -1.3131 
167 1 6.89609 5.65974 5.48573 1.90664 0.225574 -0.320475 
168 1 2.41876 0.237799 2.10146 1.90098 0.191574 0.0549114 
169 1 0.707853 2.14379 7.28597 0.469035 -0.855209 0.629732 
170 1 9.02344 8.30522 2.07264 1.07744 0.505919 -0.69318 
171 1 3.14841 5.75691 8.64684 -1.41824 -0.81231 0.185739 
172 1 1.05416 3.65038 6.39886 0.29645 0.847949 -0.273207 
173 1 7.49743 6.014 4.81651 0.466583 0.471991 -0.0909289 
174 1 8.6976 8.9307 5.88145 -0.484972 0.0193903 -0.529254 
175 1 7.2936 4.44604 9.35706 1.32168 -0.00612624 0.382603 
176 1 8.91287 4.93248 8.88249 1.83072 0.344013 0.232655 
177 1 0.880529 5.95702 0.351818 0.208892 0.918168 0.403027 
178 1 3.67855 3.00983 8.04257 -0.00284732 -0.458764 0.17594 
179 1 1.52592 6.27914 2.18637 0.927768 -0.755343 -0.625427 
180 1 6.2637 6.56242 2.33732 2.05685 -0.06142 0.298042 
181 1 4.69051 6.68176 7.04265 -0.102004 1.57671 0.741768 
182 1 6.54309 2.08329 6.28056 0.38091 0.205467 -0.675463 
183 1 3.50153 2.44143 3.8587 1.36445 -0.277396 -1.50654 
184 1 7.67342 1.38016 7.62972 -0.075739 -0.00802436 0.842409 
185 1 8.64259 2.25235 4.92579 -1.83231 0.566499 1.88581 
186 1 1.70673 1.98631 5.60415 -0.184692 1.19981 0.876682 
187 1 1.77116 9.30242 1.48906 0.140842 1.0366 0.0748658 
188 1 0.150259 7.98045 2.78492 -0.20287 -0.481106 1.72585 
189 1 7.42426 2.8845 8.86611 0.637504 0.500763 1.39571 
190 1 2.45751 0.105296 9.2839 -1.05162 -0.184162 0.0946086 
191 1 6.53492 6.99623 5.92464 -0.88514 -1.22271 -0.0315721 
192 1 1.06061 5.69254 5.00288 0.378438 0.490263 1.16765 
193 1 5.18234 6.25063 1.87758 -0.423865 1.0412 -0.765934 
194 1 1.00551 8.57147 4.92744 -0.819778 0.390016 -0.360982 
195 1 3.19599 8.11584 9.08322 0.228386 1.12877 -0.0231576 
196 1 4.01115 5.67702 5.50535 0.542516 0.622847 1.09354 
197 1 8.9218 8.21009 4.34583 0.950304 0.236096 1.00664 
198 1 9.35996 1.91265 3.20091 0.362449 -1.43094 0.204384 
199 1 7.75935 7.79783 3.28178 0.070653 0.274284 -0.0951455 
200 1 7.39409 2.94311 0.570346 0.533716 -1.01177 -0.334491 
201 1 7.20445 6.40218 2.06051 1.38809 0.280197 0.677078 
202 1 3.4711 6.52723 3.88401 0.332719 0.216304 0.373029 
203 1 6.52283 6.43765 5.09393 0.0428869 -0.252887 0.12891 
204 1 1.58224 3.76455 1.97802 -0.587903 0.0513007 -0.979966 
205 1 5.02083 5.18473 3.12451 1.15253 0.66716 0.665396 
206 1 5.61718 4.89524 8.51136 -1.15793 -0.753252 0.324997 
207 1 8.52003 8.6545 1.34068 0.127399 0.0104948 0.0763355 
208 1 5.53051 6.38683 5.37251 -1.01186 0.328728 -1.14415 
209 1 8.6977 5.6464 5.4378 -0.352697 0.693838 1.07766 
210 1 4.81466 1.73573 4.6081 0.470978 1.10466 0.626701 
211 1 4.40796 4.65995 2.55178 0.313821 0.050549 0.47219 
212 1 1.38253 8.49559 1.24443 0.595832 -0.209475 0.542088 
213 1 5.2803 8.61041 6.48382 1.17615 -1.07346 0.633977 
214 1 2.60473 7.62846 4.62842 -0.517806 0.561902 -0.14925 
215 1 6.85618 4.9788 0.59417 -0.60502 0.445082 -0.878697 
216 1 1.76997 6.43776 5.78655 -0.832635 -0.42812 -1.00778 
217 1 2.83339 1.93112 3.38512 -0.36379 -1.20737 -1.31229 
218 1 5.72377 0.990214 6.09707 -0.472717 -0.81914 0.877599 
219 1 6.92031 1.61398 8.18179 -0.220134 -0.516141 -1.29185 
220 1 7.21581 5.05752 7.58704 -1.16969 -0.0518762 0.192077 
221 1 6.32731 4.91052 7.2573 0.0754863 -0.076722 0.492981 
222 1 7.68594 2.1626 4.87518 0.605806 0.837474 -1.00952 
223 1 5.62948 6.56663 8.19881 0.473778 -0.0371109 0.379994 
224 1 0.0216624 6.33339 6.77774 -0.00552625 -0.029074 -0.363714 
225 1 7.26615 7.97694 2.4251 0.288159 -0.0208454 -0.229462 
226 1 3.8614 1.30301 9.18725 -0.540531 0.892363 -0.341039 
227 1 8.70218 1.11495 6.09732 0.0383059 -0.346878 -2.05237 
228 1 8.6075 3.42475 7.77171 0.146004 0.0506487 -0.445421 
229 1 3.25596 0.65445 2.22998 -0.155601 -0.00728514 0.54848 
230 1 7.32453 5.53125 3.11178 0.0427561 -0.316179 -0.000732581 
231 1 3.44006 1.38019 6.92252 0.0666539 -0.753759 0.506147 
232 1 9.12706 3.47857 6.818 1.86833 0.0405354 1.28426 
233 1 7.75884 6.24099 3.63869 -1.10854 -0.482437 0.762592 
234 1 6.78805 3.79427 4.64127 -0.173671 -0.935968 -0.63432 
235 1 3.24447 8.36815 4.50859 0.768758 -0.757027 -0.427299 
236 1 2.749 6.27129 3.27585 -1.53812 0.40657 1.46953 
237 1 1.18552 0.486032 8.60364 1.1052 0.0975389 0.229364 
238 1 7.2437 1.16878 2.71431 -0.306904 -0.977421 -0.254782 
239 1 7.18281 8.04059 1.44796 -0.223189 0.433992 1.09101 
240 1 7.3249 7.18084 8.73664 -0.199244 -0.746322 -0.452878 
241 1 3.38445 8.59342 1.237 -0.666251 0.352811 -0.0894066 
242 1 7.98235 7.5196 0.0245655 0.410415 -1.07521 -0.682345 
243 1 8.62354 0.482036 4.52352 0.235373 0.167282 -1.26062 
244 1 5.93749 5.51872 5.28118 -1.13984 -2.14908 0.537793 
245 1 4.68167 3.42894 3.01342 -0.0388559 0.361808 8.59709e-05 
246 1 3.41871 9.06752 9.00986 -0.490567 -0.584866 -0.803099 
247 1 8.13975 4.23894 8.07522 1.05358 -0.0580498 -1.13547 
248 1 5.84818 8.6611 1.32626 0.64563 0.873567 -0.563901 
249 1 9.01583 4.87829 3.9923 -0.902693 -0.612397 0.253164 
250 1 4.18569 0.473134 2.13013 -0.371182 0.487812 0.00854157 
251 1 0.0693485 7.32932 9.24752 -0.011116 1.04604 -0.562979 
252 1 0.509373 7.43536 3.45957 1.31031 -1.46355 0.110551 
253 1 9.11343 6.29026 4.86377 -1.87123 -1.00285 -0.624796 
254 1 1.00738 7.97562 4.07985 -0.841996 1.17169 -0.0166094 
255 1 6.92198 4.45738 2.93078 -0.331872 -0.546735 -0.23017 
256 1 1.68528 8.26148 8.81388 -1.08639 0.34079 -0.257145 
257 1 0.509508 1.82396 3.96135 0.095942 1.04894 0.379506 
258 1 3.00388 6.42099 7.9704 0.994622 0.632214 1.40139 
259 1 5.76069 2.04434 4.74161 -0.475897 -0.164273 -1.14061 
260 1 7.28711 7.82251 4.19776 1.0762 0.857614 0.139672 
261 1 3.38112 2.17926 7.56193 -0.229765 0.661414 -2.0702 
262 1 8.19307 7.53852 4.10763 0.369473 0.312833 0.694515 
263 1 7.93953 0.814185 3.93363 -1.08659 -0.0860316 -0.275004 
264 1 4.93687 5.07871 9.24512 -1.40105 -0.365112 -2.13493 
265 1 1.38618 3.82634 7.781 0.072851 0.490162 0.467139 
266 1 2.86151 1.71378 1.49534 1.32355 0.804585 -0.741928 
267 1 0.24366 3.37183 5.9306 -0.882691 -0.814013 -0.919088 
268 1 8.65649 8.99194 4.88935 -0.36841 -0.204438 0.844414 
269 1 1.47988 0.295663 2.31573 -0.752184 -0.998056 0.619764 
270 1 6.38415 1.61019 4.12467 -0.101608 -0.722281 -0.849373 
271 1 1.97547 2.61029 4.87897 -0.559709 0.919427 0.608811 
272 1 0.139689 7.16697 1.03868 0.284497 0.0280491 0.816294 
273 1 4.65282 7.34312 0.726035 0.192397 -0.41079 1.32273 
274 1 2.95276 4.6416 7.48903 -0.200144 -0.883398 -1.23214 
275 1 7.39049 6.73907 5.48373 -0.211286 -1.21407 -0.6914 
276 1 3.75338 0.9439 6.06637 0.464389 -1.19822 0.748712 
277 1 7.21966 3.94583 0.763405 -0.200485 -1.73455 0.638201 
278 1 4.07037 5.44936 2.90679 -1.3717 0.118267 -1.46833 
279 1 9.3628 2.84973 7.55214 -1.24761 -0.763946 1.10552 
280 1 2.27821 4.16929 5.23697 -0.67758 0.548587 1.04659 
281 1 1.29271 0.842807 3.1717 1.18533 0.650079 -0.0834678 
282 1 0.601264 3.85077 7.20778 -1.58032 0.598414 -0.496387 
283 1 8.06521 3.05983 1.31504 0.590399 -0.213118 -1.28247 
284 1 5.56883 2.93976 8.51826 -1.43692 -0.454858 1.64411 
285 1 6.78637 8.91307 1.2133 0.356269 1.51238 -0.417859 
286 1 1.17236 3.13373 8.55193 0.0186028 -1.42991 -0.281773 
287 1 3.1192 3.81232 6.97717 0.702375 0.631031 -0.300358 
288 1 8.85382 7.14202 6.6766 0.599138 -0.296446 -0.353605 
289 1 6.39686 4.19151 0.342964 -0.94244 1.71513 0.0563512 
290 1 1.1627 9.2745 3.10592 1.2217 0.659973 -1.71791 
291 1 3.03908 6.73353 4.72435 -1.93993 -0.0129282 -0.903298 
292 1 3.54241 4.12978 8.86164 -0.395413 0.387597 0.453481 
293 1 8.47105 2.77566 7.03863 -0.164092 -1.06722 0.743632 
294 1 8.9881 4.0344 8.5311 0.684627 -0.621825 0.00510386 
295 1 7.71415 4.72964 3.39747 0.389646 0.311928 1.34911 
296 1 4.80142 6.19518 7.89932 0.449414 0.512173 -0.800218 
297 1 3.72147 6.02866 4.64914 0.710552 -0.195446 1.22565 
298 1 1.0868 2.53531 3.74443 1.00644 -0.543945 0.273078 
299 1 0.276983 6.10633 2.47361 0.126806 0.30598 -0.642967 
300 1 0.558905 8.66982 0.851726 1.04553 -0.00151439 -0.468668 
301 1 9.0919 5.8705 3.95746 0.284494 -0.404013 1.38359 
302 1 1.02686 0.459163 3.97022 0.779356 -0.61109 0.523976 
303 1 4.85287 6.35208 4.26953 -0.0258059 0.326952 -0.121859 
304 1 1.40929 7.37076 8.47252 0.606633 -1.10738 -0.428155 
305 1 7.43116 1.65882 6.34086 0.85298 -0.950836 0.218302 
306 1 6.55341 8.50041 2.04462 -0.384905 0.528828 0.313678 
307 1 7.20014 4.06936 3.82167 -0.079972 0.417927 -0.595964 
308 1 4.57848 4.95101 6.89199 0.494304 0.586806 0.0979409 
309 1 4.76481 0.843517 6.03925 0.40482 -0.124293 -0.785257 
310 1 8.30189 9.35029 3.20329 0.365186 -1.08645 0.122614 
311 1 5.50986 3.19706 2.5496 1.30054 -0.134616 0.35079 
312 1 2.38582 4.77682 0.49043 0.574152 0.325576 -0.145741 
313 1 0.77567 0.204035 6.79077 0.582404 0.339595 0.932743 
314 1 0.361871 4.77018 1.75565 1.7478 -0.989843 1.17462 
315 1 2.81678 1.45488 6.1584 1.0482 0.821643 1.54553 
316 1 7.84104 3.96735 1.46916 1.06091 -0.0682402 0.0468155 
317 1 5.3502 6.32883 6.37688 -0.502662 1.19513 0.597149 
318 1 3.76149 6.34999 2.99576 -1.30351 0.944918 1.43416 
319 1 4.05243 4.9303 3.75006 -0.724359 -1.42996 2.01603 
320 1 0.246017 5.74419 5.54803 0.756773 0.690098 -0.798455 
321 1 0.775056 6.76079 1.85268 0.00692344 0.309708 -0.333801 
322 1 6.23408 8.67983 6.30246 -0.954207 0.682935 -1.04402 
323 1 5.0474 1.84541 6.94472 -0.0942418 -0.0419504 1.43523 
324 1 4.07584 2.09716 6.86355 -0.199852 -0.692246 -0.145306 
325 1 3.01243 4.21679 1.95366 0.211743 -1.61118 0.704463 
326 1 1.81871 0.717343 4.48365 0.133143 0.201073 0.825704 
327 1 1.54232 5.48767 8.02207 -1.0064 1.24425 -1.16505 
328 1 8.1519 5.26098 2.65016 0.304097 -0.176237 0.29606 
329 1 5.65872 5.71749 2.60528 0.268558 -0.389927 -0.533324 
330 1 7.28998 5.75715 8.27764 -1.13304 0.564297 -0.711719 
331 1 6.77565 4.97194 3.71815 -0.0729004 -0.928909 0.859746 
332 1 0.0257928 0.540511 6.26782 -0.377963 0.678577 -0.66739 
333 1 1.84943 5.49326 4.47509 -0.403877 -0.698508 -0.843881 
334 1 8.01437 8.37289 4.55804 -0.159643 -0.241858 -0.526321 
335 1 2.52611 5.18341 8.17071 0.661477 0.00241857 -0.482697 
336 1 7.38459 6.30317 7.15382 -0.277032 0.198031 -0.339876 
337 1 7.81264 5.71432 1.86922 0.171735 -0.484021 1.1585 
338 1 4.16076 8.04654 1.13991 -0.694662 -0.205897 -0.438291 
339 1 8.83532 4.84697 4.96473 0.197118 0.242893 -0.102657 
340 1 9.17534 5.37038 2.97075 0.360503 0.0901696 0.0965194 
341 1 8.88489 4.70771 1.16972 -0.283 -0.462087 0.202954 
342 1 3.49407 6.21926 0.0180191 -0.0885825 0.707226 -0.352706 
343 1 3.14696 0.311099 0.519746 -0.143378 0.252856 -1.05874 
344 1 8.76091 5.87629 9.10795 -0.919814 -0.129944 1.26554 
345 1 7.44205 7.94324 6.97339 0.430179 -0.0246857 0.49321 
346 1 1.64942 9.18112 4.55854 -0.705816 -0.0708653 -0.369328 
347 1 9.33231 0.898535 7.92295 -0.444463 -0.890669 0.444872 
348 1 2.68642 6.75473 2.42617 0.295895 -0.410572 -0.726447 
349 1 0.0721311 8.4928 8.48472 -0.133908 -1.50482 -0.208964 
350 1 3.43986 3.24793 3.31978 0.0601456 -0.0303128 1.0353 
351 1 0.437381 6.28539 1.09985 0.396507 -0.638743 -0.162092 
352 1 1.32964 2.77411 6.16356 -0.895206 0.0724448 -0.588226 
353 1 7.93975 4.33604 2.51922 -1.48868 -0.037182 -0.113587 
354 1 0.658149 1.16927 7.0658 -0.143455 0.0503812 -1.1707 
355 1 7.75368 3.04407 7.97894 0.174658 1.32601 -0.914151 
356 1 5.6733 7.90365 6.01713 2.23541 0.681445 0.168812 
357 1 2.338 7.51549 8.86139 0.0150615 -0.025286 -0.371896 
358 1 3.75495 0.816741 4.67911 0.234865 0.19465 -1.69083 
359 1 2.12866 1.81324 9.21185 0.684555 0.425479 0.773693 
360 1 7.74503 5.30561 9.3104 0.188165 -0.312471 -0.122505 
361 1 6.68803 1.05018 6.13495 -0.404679 0.36624 0.616535 
362 1 6.49969 2.58168 1.352 -0.551354 -1.57885 2.33636 
363 1 2.60299 3.70782 6.04415 -0.714734 0.0489589 0.869944 
364 1 4.29283 5.31788 0.531186 1.48528 1.08129 -0.0367005 
365 1 4.31168 7.34561 5.46679 0.68669 1.01617 -0.470807 
366 1 7.67645 8.75955 0.941422 -0.375806 -0.854986 0.483622 
367 1 7.17976 8.49361 6.16889 -0.807433 -0.17113 -0.352245 
368 1 2.56896 2.82103 3.20928 0.561441 -0.530668 0.879819 
369 1 6.61193 6.67365 8.15772 -0.748065 -0.0041312 0.797885 
370 1 5.69484 5.66312 7.82233 -0.433335 -0.625272 -0.522156 
371 1 0.166397 4.71898 8.17323 0.451224 0.932159 -0.518933 
372 1 2.95195 0.0647773 2.92821 -0.368338 0.625374 -1.24459 
373 1 4.69523 3.78301 1.32938 0.339014 0.434566 -0.378885 
374 1 2.86863 4.24729 4.46203 -0.571369 -0.0134238 -0.620895 
375 1 3.79697 5.19328 9.13658 -1.32103 0.0479925 -0.0839214 
376 1 1.97707 5.20523 8.9708 0.951041 0.13824 0.523508 
377 1 5.0493 7.13028 4.85595 -0.505215 0.748396 0.670076 
378 1 1.36576 1.06023 5.26904 1.0129 -0.195237 -0.91503 
379 1 0.887569 3.00849 0.417289 -0.22871 -0.235987 -0.543704 
380 1 0.863677 4.04425 5.58798 -1.08985 -0.434989 0.332092 
381 1 4.16748 3.4915 9.16723 0.228992 0.524781 -0.24935 
382 1 8.65385 4.94198 7.75294 1.69725 -1.48205 0.85638 
383 1 2.62185 7.71822 2.20055 -0.355213 -0.0828973 0.539392 
384 1 8.13872 2.56581 5.65265 -0.0175662 -0.978414 -0.583844 
385 1 5.53259 3.40025 6.86287 0.808603 0.762108 -0.501291 
386 1 3.82306 9.17926 4.71717 0.893373 0.0238838 -0.567139 
387 1 0.45981 3.46325 4.96071 0.434631 -0.18319 -0.178753 
388 1 1.52649 2.61316 7.06534 0.557213 0.320468 -0.117292 
389 1 1.86243 3.95158 0.741787 -0.887196 0.528622 2.01114 
390 1 3.26388 7.1566 3.168 -1.501 0.799533 -0.149082 
391 1 1.91736 3.05235 7.8251 -1.36713 -0.289778 1.31532 
392 1 0.404088 3.48491 9.0549 -0.0393332 0.710496 1.0072 
393 1 2.70038 5.12935 2.0203 0.483245 0.268783 1.39134 
394 1 2.24685 1.74634 8.16115 0.165211 -1.15511 -0.473112 
395 1 4.13703 2.73358 6.1667 0.185091 -0.0794366 -0.557886 
396 1 1.85021 3.11614 3.73133 1.19649 -0.730266 -0.661992 
397 1 2.42074 3.21073 0.562836 0.583743 -0.143052 1.49825 
398 1 4.23329 2.58953 2.98295 -0.161614 -0.0256095 0.451132 
399 1 8.80943 5.67954 6.39149 1.38391 0.692918 0.286858 
400 1 8.42369 0.674954 2.1315 -0.424383 -0.5947 -0.0711884 
401 1 0.187491 8.88528 4.55643 0.742007 -1.06294 -0.85297 
402 1 4.73022 4.87851 5.37317 -0.398124 -0.135957 -0.955061 
403 1 6.7247 8.97819 5.48094 -0.288305 0.64144 0.251022 
404 1 4.78016 9.25607 6.00888 -2.08312 0.136677 1.15423 
405 1 3.21873 4.018 5.37945 -0.100091 -0.651579 0.318537 
406 1 0.27907 0.077261 8.50209 -1.19832 0.154281 0.202614 
407 1 8.20372 4.22729 5.36954 -0.227582 0.929986 -1.51356 
408 1 0.801361 1.77543 5.52439 -1.08776 0.821292 -0.506068 
409 1 4.26874 3.7582 8.25613 0.258135 -0.491571 -1.11716 
410 1 3.32491 1.63374 2.34595 -0.430992 0.332519 -1.10204 
411 1 4.79528 2.77794 6.95281 0.15747 -1.55497 -0.689201 
412 1 8.37211 5.6326 4.5376 0.238902 0.212422 -0.624541 
413 1 4.32672 8.66699 6.61852 -1.54179 -0.793988 0.58867 
414 1 6.36645 1.07453 7.63108 0.466065 0.0750723 -0.365183 
415 1 7.33117 5.01768 6.00177 -0.845383 1.48503 -0.914638 
416 1 3.48062 4.8793 8.2734 -0.447968 -0.192582 0.196252 
417 1 1.72003 6.04752 6.73486 1.00652 -0.828532 -0.8678 
418 1 7.02067 8.88875 2.81065 -0.300681 0.164182 -0.405406 
419 1 6.03527 7.77425 1.65639 0.141535 -2.15018 -0.866407 
420 1 3.73894 2.04027 1.15402 -0.176911 -0.464232 -0.342206 
421 1 1.99561 2.16102 3.8561 0.929461 0.232717 0.305431 
422 1 0.570605 3.15291 1.36706 -1.15823 -0.236483 -0.547773 
423 1 2.59562 3.01679 6.7063 0.0196201 -0.420091 -1.78071 
424 1 2.18264 4.38266 2.40524 -0.529773 0.646321 -0.241974 
425 1 7.28373 7.0667 3.61199 1.11004 -0.333211 -0.686368 
426 1 2.0552 9.08237 2.84313 0.413355 -1.40941 1.97525 
427 1 9.16493 5.56197 7.28095 -0.442704 -1.15664 0.145005 
428 1 0.175784 7.05175 5.26593 -1.55746 1.13838 -0.533722 
429 1 7.13981 3.42619 6.2607 -0.172026 0.415397 -0.232455 
430 1 4.62094 1.8451 6.07732 1.1831 0.220136 0.458528 
431 1 1.98379 7.15845 5.15822 0.095622 -1.71164 0.254252 
432 1 2.39452 2.33541 7.41612 0.268847 -0.236676 -1.63639 
433 1 4.23138 5.24002 4.66885 0.240288 0.400592 0.948392 
434 1 8.96016 8.69413 2.97894 -0.648903 0.0465962 -0.595378 
435 1 3.73576 0.629812 7.41869 -0.611239 -0.107764 -0.902857 
436 1 3.38747 6.05379 6.88065 -0.822893 -1.22543 1.41301 
437 1 2.20812 2.84222 5.81948 -1.6026 0.364283 -0.248688 
438 1 5.38531 5.19995 6.40922 -0.165334 -2.04114 -2.30281 
439 1 8.68583 3.37406 5.4187 -0.918762 -0.26146 -0.149283 
440 1 4.93084 3.9369 2.24477 2.36279 0.0298111 0.0317862 
441 1 6.8489 7.36417 4.96904 -0.29257 -0.512091 -1.07259 
442 1 6.15446 7.2063 0.909411 -0.839483 -0.812756 -0.727401 
443 1 1.17112 2.02779 4.65781 0.586449 1.03907 0.466081 
444 1 6.85639 0.085138 6.30464 -0.306622 0.678574 0.170338 
445 1 3.86006 5.12852 1.86663 0.40575 -0.156622 0.198097 
446 1 4.41626 5.94887 9.20475 -1.33835 -0.386939 -0.0363694 
447 1 8.44714 9.07387 2.2078 -1.08224 -0.706753 0.755225 
448 1 9.07705 1.17193 6.99938 -0.900343 1.24076 -0.993462 
449 1 8.40695 6.55588 4.24284 0.110032 0.289903 -0.978702 
450 1 8.81265 6.24625 3.13259 0.165797 0.175429 -0.277341 
451 1 0.189862 8.41764 3.67746 0.377068 -0.677486 -0.120472 
452 1 2.11408 2.15367 6.47968 -0.11389 -0.0880985 0.15974 
453 1 0.86725 6.28695 7.2942 -1.03867 -1.05466 0.308943 
454 1 0.549111 4.865 5.2765 1.0881 0.0988977 0.88893 
455 1 2.21144 6.26505 4.93368 -1.39361 0.977433 1.06154 
456 1 0.174239 2.46386 2.03255 0.535436 1.89544 -0.868728 
457 1 8.55155 5.20768 0.372497 0.576463 -2.27363 1.54625 
458 1 6.09334 2.5007 5.52023 -0.861548 -0.0414219 -0.855909 
459 1 3.51793 2.08242 0.194756 -0.212624 -0.0122142 -0.471578 
460 1 1.30075 4.66274 1.9125 -0.586976 0.113036 -0.44354 
461 1 8.52486 6.29446 7.11314 0.00490221 -1.60844 -0.0936646 
462 1 7.27698 7.08585 6.51636 1.1191 -1.26713 0.0584996 
463 1 8.178 3.02675 4.66802 0.298711 -0.233593 0.750999 
464 1 5.47041 4.48279 3.85336 0.282146 0.496892 0.00260808 
465 1 9.18918 1.24646 4.23338 0.0676878 0.588539 -0.512769 
466 1 0.556108 4.33986 3.4565 0.47819 -0.269329 -0.477766 
467 1 0.259863 7.15347 7.26229 0.634797 -0.826887 0.857135 
468 1 8.72547 5.92485 2.24613 0.315592 -0.0646563 -0.728105 
469 1 4.1086 2.28587 5.33062 -0.709117 2.00968 1.07384 
470 1 3.38405 4.49675 0.32519 -0.078596 -0.389624 -0.751173 
471 1 8.12062 1.60679 5.5208 -0.514649 0.481367 0.650942 
472 1 7.71203 9.17921 5.03499 0.319633 -1.22583 0.26475 
473 1 7.14956 3.28673 1.45969 0.355892 0.728582 0.646155 
474 1 8.81848 7.54677 0.527798 -1.42743 0.825226 0.203254 
475 1 9.28135 9.1638 1.723 -1.21818 -0.468035 -0.0145847 
476 1 4.57706 5.69121 1.34609 -0.393529 -0.474813 0.553817 
477 1 4.91229 5.72849 5.80487 -0.129631 0.699881 0.0581699 
478 1 1.93832 1.41713 0.780359 -0.343758 -0.0705963 -0.0209125 
479 1 4.77827 6.34414 0.601543 -0.300713 0.58611 1.35766 
480 1 1.00097 4.94036 4.3994 0.823986 -0.463504 -0.914235 
481 1 1.17354 5.79599 3.91276 -0.49901 1.75178 -0.227901 
482 1 0.238322 4.33357 4.48815 -0.628036 0.192423 0.439926 
483 1 3.59 3.53835 6.17877 -0.859933 -1.09882 1.08944 
484 1 6.70169 7.374 0.0770684 -0.513341 -0.60787 0.902614 
485 1 9.35001 6.99759 2.81768 -0.172063 0.0631067 -0.998779 
486 1 4.76986 5.46756 2.23648 -0.522539 0.25154 -0.719603 
487 1 7.09935 2.2825 4.05467 0.230555 0.519938 1.63751 
488 1 6.56099 2.69484 9.39182 -0.454613 -0.453934 0.0446585 
489 1 5.00392 3.61557 3.91478 0.307963 0.955069 -0.774332 
490 1 1.74151 4.21092 6.02788 -1.77272 -0.767233 -0.086159 
491 1 3.21951 2.77143 0.829865 -1.69894 -0.161761 0.872587 
492 1 2.14681 0.445114 0.752553 0.890075 -0.0541606 0.24824 
493 1 3.77872 1.96514 8.41753 1.04727 0.36517 -0.110958 
494 1 7.63819 3.17489 3.88783 0.81348 1.12929 0.401712 
495 1 6.28718 4.11951 3.56568 -0.171693 0.138356 -2.19097 
496 1 5.08731 3.36367 7.78055 -0.457238 -0.573953 -0.869449 
497 1 8.92991 4.35544 0.258409 1.34306 -0.598157 -0.355212 
498 1 0.467716 2.62149 4.48267 -0.884469 0.633735 1.26364 
499 1 9.15835 6.65811 8.62508 0.808836 -0.677694 0.640513 
500 1 1.87268 8.12742 2.72729 -0.564025 0.651038 -0.881386 
501 1 8.80075 8.81804 7.13631 -0.568465 -0.296292 -0.269748 
502 1 5.54523 4.26185 1.59435 -0.980499 -0.146937 -0.706701 
503 1 0.129508 2.82758 3.63926 -1.03681 0.17865 -0.643492 
504 1 9.10739 9.04475 0.693995 -0.709729 0.565654 0.496844 
505 1 8.44129 0.363692 5.52678 0.544932 -0.365165 -1.66715 
506 1 1.98536 5.65422 3.41115 0.169528 -0.127306 -0.247791 
507 1 0.690535 7.72313 0.503057 -0.421105 0.805651 0.526712 