ITEM: TIMESTEP
1050
ITEM: NUMBER OF ATOMS
1000
ITEM: BOX BOUNDS pp pp pp
0.0000000000000000e+00 9.4000000000000004e+00
0.0000000000000000e+00 9.4000000000000004e+00
0.0000000000000000e+00 9.4000000000000004e+00
ITEM: ATOMS id type x y z vx vy vz 
1 1 5.06599 3.75365 4.6854 -0.672071 -0.0881595 -0.152245 
2 1 2.77655 2.61918 1.34118 -1.53388 0.906019 0.0337001 
3 1 4.83639 0.944756 1.41211 0.800602 0.614907 0.425291 
4 1 5.16622 6.48195 6.61427 1.26391 0.0104907 -0.193812 
5 1 9.02548 0.509074 9.30974 0.464083 -1.26739 -0.819304 
6 1 9.04353 2.73548 0.584174 -0.492514 -0.429136 0.245395 
7 1 5.03792 0.184706 6.3889 -0.0471969 -0.696953 -0.0101498 
8 1 7.40704 0.0413126 2.59344 -0.204318 0.70686 -0.0780178 
9 1 2.2775 2.69728 0.527256 0.0580238 0.384084 -1.742 
10 1 0.44893 4.34109 7.73802 0.36986 0.95434 -1.23761 
11 1 3.07377 5.12087 1.59257 -0.947846 0.953737 -0.301714 
12 1 6.22078 2.72614 5.0527 0.218783 -1.01652 -1.08773 
13 1 0.082205 6.89642 2.86192 0.775812 -0.105897 -0.503697 
14 1 2.01456 7.25252 1.91026 0.310428 -0.188417 -0.529362 
15 1 7.67796 6.35544 8.00269 0.380571 0.287993 -0.0836612 
16 1 2.32295 5.05099 7.40295 0.464981 -1.3849 -1.61878 
17 1 1.31164 9.01402 1.35018 0.262737 0.319739 -0.821854 
18 1 0.809278 5.00678 2.21292 0.510972 0.970129 -0.363646 
19 1 7.7117 4.89546 4.17854 -0.973284 0.639335 -0.547246 
20 1 8.35431 8.31702 7.7558 0.459224 0.711965 -0.197469 
21 1 3.61615 7.81411 5.35378 -0.342223 -0.394094 1.3058 
22 1 5.30644 4.53528 3.23386 -0.232465 0.592692 0.277439 
23 1 3.23599 6.37907 0.515628 0.56078 -1.24888 -0.0904063 
24 1 5.74211 7.07192 2.40041 0.355494 -1.28334 -0.429678 
25 1 8.21503 2.15724 7.02079 -0.400893 0.0890569 -1.18978 
26 1 1.09208 8.25064 2.83643 0.14676 -0.219719 0.643149 
27 1 4.67486 8.34285 7.02278 -0.377098 -0.32068 -0.456576 
28 1 8.76835 7.98367 5.49871 0.126627 -0.539634 -1.42429 
29 1 4.73 5.96048 9.20487 0.874076 1.67937 0.591803 
30 1 6.61947 3.45695 8.49873 0.787917 0.281649 -0.558123 
31 1 9.3593 9.001 0.0455134 1.79529 0.436156 0.150291 
32 1 6.295 5.82771 3.22881 -0.250911 0.795429 1.41008 
33 1 6.50916 1.50792 9.29768 -0.505993 0.830734 -1.5094 
34 1 6.79666 9.3707 1.75568 0.584696 -0.447668 -0.0357657 
35 1 9.21028 3.83461 2.84228 0.823516 -1.13111 -0.657366 
36 1 7.76951 0.808099 7.45735 -1.00322 0.205716 -0.434666 
37 1 0.453075 8.38223 0.6489 0.474503 0.705824 -0.341671 
38 1 7.72092 7.40731 4.61715 0.355644 -1.34814 -0.0673718 
39 1 4.16903 7.5784 2.54732 0.418442 -0.121751 -0.0874925 
40 1 6.11716 5.83505 2.25935 0.700868 0.970367 0.731077 
41 1 5.78981 9.08083 5.9888 -0.394757 -0.246508 0.273182 
42 1 1.2825 0.47264 0.256214 0.791663 0.238891 0.447721 
43 1 7.84692 7.23717 9.37366 -1.90635 -0.112188 -0.372646 
44 1 4.43824 1.54127 6.89807 0.445854 1.31729 0.810453 
45 1 1.23707 7.42345 9.15848 -0.432822 0.903504 0.36457 
46 1 5.26204 5.45737 3.233 0.414592 0.78485 -0.64482 
47 1 7.2981 6.23449 8.86684 0.0829852 0.446522 1.41235 
48 1 1.81706 4.86979 3.85897 -0.111418 -1.54945 0.944103 
49 1 5.4091 4.97816 9.28029 0.682538 0.205107 0.251301 
50 1 7.5989 7.75638 7.7122 2.08311 -1.11752 -0.517946 
51 1 1.34086 5.72302 2.57317 0.0584828 0.569502 0.201561 
52 1 6.13259 5.1459 6.13401 -0.107573 -0.567587 -1.12298 
53 1 9.35429 4.5193 3.55815 -0.250679 0.759408 -0.304531 
54 1 8.59425 1.75569 7.97942 0.516753 0.362867 1.0764 
55 1 5.71129 2.07089 8.8328 1.02931 0.862784 -0.0945627 
56 1 5.27188 5.32875 4.40232 0.202996 -0.376784 2.00155 
57 1 0.0827213 4.54154 8.62028 0.512483 -0.286834 1.41926 
58 1 8.25652 0.381626 2.27829 -0.65665 1.74986 0.289112 
59 1 8.555 5.24572 5.86374 0.806776 0.146914 -0.0234662 
60 1 5.96876 3.70553 5.03771 -1.22768 0.0140438 -0.729136 
61 1 0.94116 8.24677 1.85561 1.40996 -0.688825 0.625167 
62 1 8.17705 2.99897 2.17444 -0.334552 0.794702 1.13357 
63 1 6.42422 3.82931 4.23222 0.817626 0.10555 -0.175506 
64 1 7.2032 8.60369 2.15617 0.777821 -0.978293 -0.0379461 
65 1 4.29311 6.60272 2.1167 -0.935916 0.939863 0.942442 
66 1 3.9205 7.36278 8.86827 -0.495468 -0.617982 -0.821851 
67 1 4.17612 6.19003 0.584822 1.08892 -0.314134 0.104988 
68 1 4.7895 5.59132 5.29165 -0.302338 0.192881 0.751908 
69 1 6.89056 5.01002 0.802771 0.610577 0.614484 -0.365939 
70 1 6.12474 0.979605 3.17693 -0.141045 -0.226035 0.174084 
71 1 2.52684 3.55529 1.74618 1.32767 0.618602 0.0511876 
72 1 2.25984 7.36366 9.03438 -0.553093 0.67885 0.40241 
73 1 0.59082 4.67793 6.83288 0.0669762 0.150529 0.160505 
74 1 3.39198 4.72502 9.27152 0.21658 -0.717694 -0.340757 
75 1 3.25741 4.19354 1.78314 1.28613 0.177358 0.315887 
76 1 5.79789 3.34008 6.75682 -0.126864 0.804245 0.0306536 
77 1 1.32611 4.67756 7.4509 0.898946 -0.365334 0.686893 
78 1 8.63088 5.35112 3.46402 -0.827121 -1.06655 0.246992 
79 1 9.22179 4.18654 4.44696 1.59415 0.356205 -0.522056 
80 1 9.00649 0.151448 0.833762 0.610847 0.151317 -0.393903 
81 1 5.59071 3.60667 0.310919 -1.2011 -0.65234 -0.141181 
82 1 8.93549 8.26208 2.3307 0.0179623 0.591277 0.100308 
83 1 2.2182 1.06701 1.50224 -1.14226 -0.398469 0.378642 
84 1 1.88817 8.3055 1.7501 -0.50503 -0.313061 -0.442351 
85 1 8.70162 6.91312 0.176713 0.0566762 -0.0513538 0.100474 
86 1 0.98093 3.31527 1.43607 -0.617709 0.321908 -0.543425 
87 1 7.968 2.12242 1.87808 -1.17148 -1.58452 -1.3832 
88 1 1.51101 5.62477 7.53895 -0.122335 0.805022 0.744598 
89 1 1.10931 3.96103 0.70839 -0.580682 -0.364612 -0.430188 
90 1 8.4847 2.25995 2.69585 -0.878282 0.945293 0.533829 
91 1 8.13539 3.95039 1.1826 -0.627709 0.475674 0.768603 
92 1 6.57329 9.05446 2.82921 0.387278 -0.385894 1.92224 
93 1 7.78666 0.65453 4.61333 0.509196 -0.570206 -0.286 
94 1 4.07703 3.03856 9.12284 0.815956 1.23542 0.12787 
95 1 1.20686 4.38975 8.3903 1.28873 0.411867 -0.629536 
96 1 0.602773 5.60178 7.06264 1.08627 -1.09829 -0.929978 
97 1 4.11972 3.93688 8.58223 0.686764 -0.00161266 0.124812 
98 1 4.92692 3.58421 8.13521 -0.687083 -0.29589 -2.10727 
99 1 8.28965 0.535387 1.34099 -0.217423 0.0545809 -0.555722 
100 1 1.64985 7.28792 3.22772 -0.180932 0.688521 -0.132631 
101 1 5.17654 2.67535 8.1844 -1.73995 0.23292 -0.079887 
102 1 9.39198 6.13595 1.47869 -0.868766 1.02168 0.423384 
103 1 4.30462 7.47748 3.56942 -0.940512 -0.314854 -0.602261 
104 1 3.47033 6.09997 4.42208 -1.97312 1.19563 0.279005 
105 1 0.93322 6.5976 0.223608 -0.934312 -1.79816 0.355917 
106 1 2.7709 8.22276 5.5936 2.6029 0.741819 0.310629 
107 1 1.64059 9.07633 8.90582 -0.529165 0.878016 -1.00119 
108 1 7.68993 5.47246 3.30345 -0.575499 0.324028 0.903241 
109 1 1.01406 7.27013 5.22264 -1.18748 1.44372 0.3434 
110 1 8.24311 1.36406 2.40543 -0.391329 0.723119 -0.528011 
111 1 8.26917 7.00175 5.39211 -0.29855 1.00799 0.0315439 
112 1 2.43853 1.7433 0.328073 -1.02021 -0.989833 0.739264 
113 1 4.52317 2.94894 2.92334 -0.852085 -0.455151 -0.180521 
114 1 0.318775 1.99818 3.52832 -0.537672 -0.335992 0.163311 
115 1 0.996255 1.78857 2.5307 -0.743784 -0.60082 -0.724754 
116 1 6.68443 5.68864 1.48296 -0.827467 0.0913194 1.55157 
117 1 2.12753 6.67253 8.30661 0.152931 -0.527446 0.146448 
118 1 0.609922 0.0588629 1.78265 -0.563288 -0.521222 -0.632511 
119 1 2.86926 6.99668 1.36381 -0.518276 0.219145 0.469535 
120 1 8.37465 2.20039 1.03064 1.06719 0.839505 -0.450146 
121 1 5.84828 2.46816 6.32119 0.880952 -0.240095 0.11337 
122 1 2.80356 7.45527 7.06566 -0.1465 -0.380798 -1.30316 
123 1 0.0548948 2.75966 9.14568 0.594027 -0.211294 -0.0355553 
124 1 5.02297 7.18889 5.97069 1.00502 2.14979 0.312015 
125 1 0.412815 2.75561 8.27156 -0.560851 -0.656286 0.186558 
126 1 2.29659 4.29955 8.74444 -1.46907 -0.808158 0.825862 
127 1 3.59652 2.20283 8.05367 -0.0680818 0.411246 0.884194 
128 1 7.71876 9.26616 1.69855 -0.878389 -0.503677 0.259603 
129 1 8.05271 1.53018 4.44346 -0.284343 -0.933571 0.473414 
130 1 2.66927 5.06701 3.41878 0.275592 -0.773551 -0.797176 
131 1 3.993 2.87059 3.72176 0.850463 0.819659 0.251053 
132 1 7.36496 7.31175 6.10239 -1.76052 0.434179 -0.458804 
133 1 0.908153 5.77047 1.67069 1.07021 0.793679 -0.0481247 
134 1 7.39055 0.463761 0.964229 -0.345697 0.0403336 -0.875667 
135 1 5.53037 6.42624 5.65182 0.0554557 1.28741 -0.897039 
136 1 2.28339 8.75089 8.21452 -0.304261 -0.197601 -0.486914 
137 1 3.62556 7.98106 6.97023 1.12941 0.148096 -0.714304 
138 1 5.76534 6.62637 8.27082 0.947116 -1.03334 -0.0163198 
139 1 4.96863 4.61726 5.0881 0.834756 1.26987 -0.114578 
140 1 7.49746 1.17174 9.14207 -1.1436 1.50083 -0.26088 
141 1 5.73282 3.11587 4.331 -0.0361444 0.237073 -0.299289 
142 1 4.39978 3.79245 7.35649 0.140301 0.991844 -0.171052 
143 1 7.52678 5.75391 0.936576 -0.93835 -1.03477 0.614575 
144 1 8.95236 5.61255 5.06148 -0.990945 -0.243182 0.593883 
145 1 8.0859 2.56926 7.84962 0.640376 1.57511 1.38807 
146 1 4.45255 0.884061 2.34643 -0.494264 -0.149607 0.472904 
147 1 3.12955 5.43464 0.644833 0.399297 0.34876 1.31692 
148 1 3.06654 0.175068 0.0374302 -1.23639 0.561114 -0.780774 
149 1 6.06243 4.11964 8.1237 -0.379206 -0.99028 0.981247 
150 1 9.06929 6.80978 7.64279 0.215838 -2.39318 0.117329 
151 1 0.173782 5.22667 2.89188 0.569119 -0.941247 0.784035 
152 1 5.04517 3.22198 2.1602 -0.0852504 -0.051922 -1.00507 
153 1 5.5159 6.97524 1.26208 -0.882727 0.523736 0.781766 
154 1 6.4333 8.40233 7.55632 -0.84447 -0.544207 0.629379 
155 1 5.66203 5.23753 5.3127 -1.3265 -0.339669 1.0747 
156 1 0.381745 6.02589 2.41605 0.603896 -1.12327 -0.240527 
157 1 4.3202 6.91797 6.55324 -0.87399 0.084062 0.953834 
158 1 2.45065 0.184482 8.71204 0.391366 0.893604 -0.509201 
159 1 5.34883 3.32162 1.20312 -0.86809 -1.98024 -0.145498 
160 1 6.21632 2.6224 8.23676 -0.91325 -0.119128 -2.27713 
161 1 7.90297 2.66326 3.47682 0.612348 -0.790192 0.61714 
162 1 3.70925 6.18398 6.47806 -0.152144 -1.70944 0.804509 
163 1 1.34127 2.58266 8.24402 -1.42046 -0.755147 -0.705795 
164 1 7.27941 8.33196 6.0984 -0.804348 -0.298854 -0.372053 
165 1 1.62195 3.88278 9.31293 -0.7287 -1.02094 -0.529076 
166 1 9.00292 7.67059 3.09747 0.838823 0.042239 2.7283 
167 1 1.65404 5.13403 5.76111 -0.0890074 -0.0376253 0.593905 
168 1 1.31209 5.73622 0.00505835 -0.214747 -0.684308 -0.47656 
169 1 7.05658 0.984053 8.22155 -0.485173 1.18958 -0.329619 
170 1 5.46396 6.59952 9.18379 -0.254379 1.12741 -0.0968628 
171 1 7.40531 7.33469 1.61227 0.987777 -0.307605 0.252779 
172 1 8.098 3.01153 0.613593 0.0428491 -0.162655 1.12468 
173 1 1.0704 3.31391 2.97139 -0.0670377 0.0908455 -1.12504 
174 1 6.42307 0.17427 0.899442 -0.641085 -0.586491 0.601812 
175 1 0.398588 0.938997 8.84868 -0.528583 -0.44055 -1.74458 
176 1 2.11274 0.178113 2.61889 0.0871024 0.594969 -0.084148 
177 1 8.81425 4.69693 2.80098 -0.0306817 -0.250992 -0.308157 
178 1 7.1555 8.931 0.982452 0.458666 1.47894 -0.224466 
179 1 6.30704 9.29566 3.79967 0.571924 -0.875757 -0.408813 
180 1 8.92907 1.61495 4.09091 -0.208383 -0.622152 0.495557 
181 1 5.02978 2.41431 1.54583 0.985533 -0.173776 0.319594 
182 1 3.95342 2.28209 1.20787 1.84806 0.485017 0.581181 
183 1 2.98577 2.85642 7.61514 0.974644 0.816127 0.520023 
184 1 1.94167 3.16246 7.58127 0.267267 0.563766 -0.248844 
185 1 0.147353 3.44749 7.56865 -1.23493 0.0394008 -1.43618 
186 1 8.08288 4.01216 7.05473 -0.492139 1.83579 0.30617 
187 1 6.80881 4.55854 8.6045 0.0721532 -0.00791788 -0.421754 
188 1 2.98091 7.57616 4.21346 0.783192 -0.196797 -0.00421108 
189 1 5.87445 2.25859 1.96679 1.31807 0.870711 -0.339936 
190 1 5.48807 6.25274 2.84125 -0.136747 -0.351238 0.949506 
191 1 3.55879 2.76657 2.74459 -0.347922 -0.616137 -0.160703 
192 1 0.227845 8.34691 3.27898 1.59555 -0.284809 0.329175 
193 1 5.25164 4.33963 8.59574 -1.32242 0.798251 -0.425717 
194 1 6.71616 9.26151 6.19055 0.706163 0.181309 -0.00228174 
195 1 0.269252 7.91178 4.90058 0.370321 1.10769 1.2225 
196 1 7.0664 1.37791 0.673329 -1.19256 -0.103598 0.377698 
197 1 3.90902 1.30471 1.16204 0.0368594 -0.977715 0.560497 
198 1 5.03758 4.94904 1.43187 -0.288541 -1.00088 -0.110478 
199 1 7.3454 6.34067 7.09568 -0.471113 0.459315 0.844347 
200 1 1.49929 2.10798 0.399802 -0.706301 -1.13098 0.775627 
201 1 3.76918 6.45304 9.09209 -0.781699 -0.575634 0.0847476 
202 1 0.387131 0.79397 0.404451 -1.06439 -0.247226 -1.13308 
203 1 8.33378 4.66474 2.00106 0.198593 0.167935 0.41078 
204 1 0.0258849 4.44533 2.10805 -0.621832 0.173724 0.145413 
205 1 0.525172 5.79052 0.676749 -0.275801 -0.637256 0.162445 
206 1 7.50563 4.38545 3.43692 -0.453459 -1.48174 -0.264298 
207 1 4.15809 1.4268 7.85681 -1.06299 -0.0258804 0.231021 
208 1 5.64979 7.44569 8.82603 -0.461341 -0.322514 -1.3735 
209 1 6.31842 4.54838 5.3824 -0.0440589 1.24541 -1.47174 
210 1 1.98537 6.06709 4.33384 -1.66775 0.269903 0.534216 
211 1 6.65194 2.85733 4.21057 -0.264053 1.21658 0.251245 
212 1 4.69047 3.93626 2.84446 -0.53006 -1.37912 -0.274334 
213 1 6.66143 1.94734 6.75147 1.37563 0.814908 -0.949486 
214 1 0.452925 6.12104 7.94686 -0.880982 0.0548826 -1.65641 
215 1 9.07372 5.92546 7.23664 1.06708 0.70332 -0.140936 
216 1 8.17311 0.567712 0.402016 -0.856294 -0.540541 0.358457 
217 1 7.35267 8.63456 7.88455 -0.109555 -0.818914 -0.344625 
218 1 6.26079 6.59962 1.72846 0.421116 -0.208514 0.0335401 
219 1 1.37792 4.2529 2.32199 0.447029 -0.288454 0.0908678 
220 1 2.45308 6.93619 0.498828 -0.487123 -1.28611 0.610788 
221 1 5.00833 9.2296 8.49442 0.197049 1.09015 -0.828564 
222 1 4.71866 1.76788 0.875872 -0.594715 -0.420782 -0.792389 
223 1 3.8246 3.91987 0.186777 0.265949 -0.560854 -0.340959 
224 1 4.05555 0.243581 9.22997 -0.939041 -0.703326 -1.01687 
225 1 7.77168 3.55428 5.17997 0.808882 -0.210817 0.662963 
226 1 7.46713 4.74611 7.34332 -0.430952 0.103149 0.611434 
227 1 5.27636 8.00577 2.51651 -0.164374 -0.875238 -1.71964 
228 1 2.79806 8.55608 1.46362 -0.989686 -0.12798 0.242076 
229 1 7.72858 3.8556 2.0392 0.0799904 0.480936 0.10122 
230 1 2.91255 5.8388 6.02806 -0.896823 1.41277 0.565522 
231 1 8.34188 0.856231 3.7951 0.946665 0.052433 -0.0734875 
232 1 6.19316 3.25574 5.85438 0.0396006 1.01874 0.271474 
233 1 8.40164 8.95721 9.33546 -0.835448 0.13236 -0.2318 
234 1 7.42035 7.10513 2.63037 0.549354 -0.528924 0.236276 
235 1 4.76389 7.72136 8.74781 1.49817 1.17684 -1.50446 
236 1 7.18237 4.70725 4.96955 0.425685 -0.485718 0.21929 
237 1 3.91749 8.18451 8.43338 0.125871 0.600628 -1.42983 
238 1 4.86633 8.6537 6.10947 0.322367 -0.408521 0.155332 
239 1 1.4594 8.08243 3.71726 0.104552 1.45822 -0.914376 
240 1 0.22018 7.12259 9.24034 -0.339897 0.706918 0.132981 
241 1 5.05125 7.45581 6.92063 -0.887521 -0.689104 -1.1114 
242 1 5.83942 6.92178 3.37347 -1.68005 0.220708 -2.08411 
243 1 7.44002 0.830012 2.11204 0.0869714 -1.00073 0.511822 
244 1 8.96385 7.31105 2.16227 0.646798 -1.13796 0.270311 
245 1 4.34699 4.6131 0.790551 0.071973 -0.64739 1.40629 
246 1 6.95855 2.65797 3.33781 0.0117816 1.18269 0.2352 
247 1 7.14202 2.97917 0.572109 -0.0717448 -1.1664 0.0538799 
248 1 4.1261 3.58806 2.17329 -0.0586649 -1.08474 -0.254419 
249 1 6.44415 1.78698 1.31664 -0.45792 0.391135 1.23486 
250 1 6.42939 5.80797 5.52077 -0.174459 0.291069 0.451795 
251 1 8.32968 7.46708 6.24169 -0.699033 -0.0508823 -0.696858 
252 1 1.46181 4.1544 3.29158 -0.372029 0.581706 -0.737685 
253 1 5.98502 1.53558 6.24633 0.322083 0.379885 -0.444982 
254 1 2.2436 7.72118 1.09883 -0.658752 -0.246571 0.816797 
255 1 4.05384 9.08721 2.18533 0.329332 0.256419 0.523452 
256 1 0.604587 4.33798 2.88008 1.20412 -0.975816 -0.0102559 
257 1 3.90491 3.86026 1.20184 0.676374 -0.817747 -0.702641 
258 1 3.87422 7.17919 0.665991 0.881641 0.853994 -0.320931 
259 1 8.64407 6.16802 0.758613 -0.243072 -0.288018 1.29194 
260 1 8.86482 6.351 2.37327 -0.0246964 -1.44891 0.888454 
261 1 6.8658 3.57481 1.79782 -0.57636 -0.628386 -0.0676964 
262 1 3.52497 3.63688 7.88801 -1.87607 0.0814025 -0.106004 
263 1 6.98441 1.29156 2.81869 0.307795 0.996538 0.253336 
264 1 8.61432 8.94369 1.64719 0.24289 -0.295352 -0.0526865 
265 1 0.33546 7.77695 2.45008 -0.115283 0.236512 -0.437916 
266 1 0.903295 6.55446 1.15465 -2.33486 0.820099 0.433914 
267 1 0.872061 2.25107 9.02592 -0.125087 -0.196953 0.584123 
268 1 4.54549 6.25284 5.92345 0.992778 -0.0292822 -0.560575 
269 1 6.29839 3.42389 0.997064 -0.0727951 0.373385 0.0688515 
270 1 5.9641 4.97903 8.50347 2.94252 -0.71776 -1.18945 
271 1 2.67205 2.44193 9.13058 0.966521 0.0893491 0.708883 
272 1 5.90613 9.24772 2.10487 -0.267491 0.652747 1.24869 
273 1 5.69395 3.33914 8.73239 0.153149 0.848562 -0.569985 
274 1 5.12083 6.35615 0.635838 -0.475406 -0.350915 1.02453 
275 1 3.64326 8.44705 6.13085 -1.25382 -0.963652 -0.158692 
276 1 6.82213 7.27098 4.34987 -0.643365 0.172103 -0.833968 
277 1 6.26372 7.47825 0.189036 0.235069 -0.322742 -0.731075 
278 1 4.32682 5.33752 7.67189 -0.537291 -0.838063 -0.585414 
279 1 2.4793 5.65661 2.63785 0.467868 -1.13866 0.670647 
280 1 8.66864 3.07294 1.38841 -0.222777 -0.105106 0.959127 
281 1 7.76066 5.73654 5.80752 -0.283087 -0.188835 0.595215 
282 1 0.402798 5.04926 1.31528 0.662103 0.0609068 -1.6896 
283 1 4.61913 6.71172 7.44206 0.763377 -0.159943 1.76586 
284 1 2.21584 1.01674 8.30863 0.22809 1.17375 -0.514314 
285 1 6.03015 0.538128 6.46624 0.366034 -0.0828619 0.39207 
286 1 4.98946 3.03551 7.22542 -0.430876 -0.580155 0.729345 
287 1 0.294603 0.303413 2.64934 -0.262869 0.28005 -0.40978 
288 1 8.14808 3.32209 8.41237 0.631362 -0.00132252 0.138648 
289 1 0.535129 9.32325 0.806153 1.13167 1.37321 0.325432 
290 1 7.44831 2.36309 6.33533 0.13547 0.141677 0.52989 
291 1 7.09808 0.132315 7.73989 1.87391 0.00746379 -1.2398 
292 1 7.40783 2.18892 1.07366 0.458916 -0.00404546 -0.417559 
293 1 6.96876 6.80668 0.12844 0.133061 -0.367327 0.269597 
294 1 4.27588 3.43395 6.46369 0.044703 -1.29871 -0.809664 
295 1 7.39244 6.49092 4.3165 -0.421482 1.67916 -0.828616 
296 1 5.77504 1.26008 4.77962 -0.864676 0.468274 -0.193294 
297 1 5.47502 8.90207 6.88616 0.536621 -0.344443 0.475091 
298 1 1.85045 0.329388 1.02126 0.351797 0.135918 1.01989 
299 1 7.62005 3.10879 1.40758 -0.0869229 -0.169888 0.367182 
300 1 3.75955 0.193891 7.62517 1.21774 -0.0917516 -0.919196 
301 1 8.36163 5.76632 6.6234 -0.0624271 0.360427 0.512454 
302 1 0.772418 4.28673 9.2537 1.46534 -1.30002 0.335509 
303 1 4.23067 5.50254 4.53781 0.168612 1.31607 -0.219654 
304 1 4.53433 8.21478 1.91362 -0.143879 0.750696 0.454503 
305 1 5.79825 7.42249 5.43165 -1.24552 -0.0687117 -0.946811 
306 1 8.04173 5.65857 8.75985 -0.992836 0.310251 -0.131054 
307 1 0.31849 6.00192 4.5474 0.313947 1.0739 0.765826 
308 1 3.27265 5.30706 7.74772 -0.7012 0.421636 1.19954 
309 1 8.93823 0.891721 8.39128 0.980387 -0.132669 -0.436166 
310 1 0.395002 6.5356 7.10177 -0.399203 -0.271945 0.0460574 
311 1 4.87241 4.93057 6.96514 0.566421 0.083528 -0.724855 
312 1 1.80976 1.23716 2.41939 0.071014 -0.126076 0.289193 
313 1 5.62627 1.92762 7.86572 1.83129 -0.237113 0.765684 
314 1 7.37771 1.15074 3.83643 -0.244772 -0.11753 -0.434654 
315 1 3.96698 7.43348 1.60763 -0.841343 0.138115 -1.04711 
316 1 5.3413 7.76674 4.58656 -0.395464 -0.688675 -0.930508 
317 1 1.09039 5.05612 3.23248 -0.347963 0.449798 -0.818537 
318 1 7.90214 2.03596 8.65258 -0.127233 -0.513721 0.782364 
319 1 4.45138 2.46616 6.64988 1.47632 -0.769845 -0.342868 
320 1 5.5848 8.38193 5.33372 -0.124365 0.200864 0.832269 
321 1 0.248364 7.6791 1.47082 0.745518 -0.142586 0.141631 
322 1 0.987541 6.65801 2.86265 0.363294 0.568795 -0.663222 
323 1 5.73915 8.64448 3.08436 -0.705758 0.665005 -0.575108 
324 1 9.20679 1.26653 2.25342 1.2929 -0.789648 -0.705205 
325 1 1.20889 0.532048 2.8061 -0.978193 -0.0140225 0.466936 
326 1 0.380955 8.76774 2.4318 0.697894 0.662281 0.851987 
327 1 9.09226 5.32904 1.91474 -2.22973 -1.14678 -0.198306 
328 1 5.73722 5.78639 0.229559 -1.80761 -0.758202 -0.89599 
329 1 0.781694 1.5749 0.835123 0.780183 -0.0456947 -0.0658291 
330 1 6.49033 5.4842 6.93448 -0.284701 -0.628289 0.329987 
331 1 1.07528 1.55878 8.39613 1.21244 -1.81508 0.125398 
332 1 2.62385 0.858243 0.617268 -0.129982 0.15123 0.38514 
333 1 0.794375 5.16005 8.84976 -0.186127 0.541897 0.547241 
334 1 5.00677 2.1887 3.47405 0.652183 0.0420038 -0.528199 
335 1 3.39663 0.311976 8.54064 -0.117353 -0.590991 -0.147227 
336 1 5.54763 3.91861 3.86786 0.0383915 0.441928 0.856006 
337 1 2.98264 1.68119 1.19669 -0.295795 -0.24506 -0.485103 
338 1 1.31256 8.93956 0.400541 0.384543 -1.72812 -0.433497 
339 1 7.57288 3.30132 2.84871 -1.19741 0.423212 0.453105 
340 1 2.10579 3.60518 0.692085 1.35672 0.305341 -0.191755 
341 1 3.19561 7.19237 0.00723929 -0.182875 -3.03557 -0.15424 
342 1 1.13525 5.58238 4.1419 -0.0590831 0.499501 -0.245392 
343 1 5.46879 0.409389 7.25452 -0.849765 -0.368835 0.149715 
344 1 3.3785 7.64894 7.85755 -0.060873 0.605409 1.25512 
345 1 1.75083 8.11294 8.64678 -0.828645 0.180346 0.219202 
346 1 1.90651 6.90744 6.51279 0.18875 1.26455 0.335552 
347 1 8.7282 3.45799 6.53274 -0.419664 0.293839 -1.41543 
348 1 6.59238 4.40456 1.44467 0.323801 -0.872641 -0.147709 
349 1 7.43873 3.839 8.7546 -1.65962 0.0591264 -0.352844 
350 1 5.24459 6.40092 1.95657 0.384332 0.0325663 -0.779984 
351 1 6.46709 1.3344 5.42687 -0.215341 0.582656 0.278395 
352 1 6.74108 0.910776 1.49372 0.311758 0.148766 0.593086 
353 1 6.68633 2.92222 6.62406 0.0722803 0.57461 0.176841 
354 1 6.66081 8.28903 0.511664 -0.630056 -0.749236 -0.331496 
355 1 7.92949 6.56054 6.29104 -0.0141789 0.584632 0.751698 
356 1 2.77352 6.02474 1.29253 -0.298916 -0.0366405 -0.533764 
357 1 6.63412 9.11996 9.36296 -0.079983 0.474129 0.44207 
358 1 1.41632 7.36564 8.18221 0.850243 -0.179782 2.10642 
359 1 4.50883 0.581491 8.11581 -0.982672 -0.26655 1.12647 
360 1 7.59642 5.52686 1.89725 0.162642 1.54526 -0.192325 
361 1 0.88622 6.69115 8.65363 -0.674913 -0.131034 0.230074 
362 1 7.84513 4.67718 9.04328 -0.764761 0.315961 -0.617234 
363 1 6.47414 0.998859 4.12032 -0.807581 -0.115644 -0.540052 
364 1 2.17041 9.21628 1.74352 -0.0527319 -0.165065 0.185875 
365 1 3.92222 2.9539 7.28575 -0.0889672 -1.7182 0.616866 
366 1 1.48209 5.78882 0.920876 0.0704108 0.401826 0.134101 
367 1 3.90404 6.8282 8.08226 -0.768708 -1.51998 0.228617 
368 1 6.92653 0.289124 4.57238 1.73008 -0.458344 0.740373 
369 1 5.62947 6.09233 3.85842 0.195515 -0.506528 0.235567 
370 1 3.771 4.51913 7.54124 0.890945 -0.742375 0.314515 
371 1 4.84917 4.54925 4.10247 0.821035 0.234982 -0.823015 
372 1 5.72662 9.09469 7.85181 -0.184591 0.561761 -1.10666 
373 1 5.34987 4.14509 7.48833 -0.725059 1.71113 0.146027 
374 1 1.88036 1.8427 8.90466 0.317362 0.058594 -0.568306 
375 1 8.58364 7.52523 7.1816 -0.525305 -1.83666 1.03574 
376 1 9.2896 9.25023 3.40815 0.765049 -0.807148 -0.10568 
377 1 1.90296 7.66863 5.48586 -1.11769 -0.600529 0.210617 
378 1 4.11183 9.12196 8.3694 -0.808775 -0.284776 -0.143818 
379 1 0.111532 8.65899 1.50702 -0.660919 0.349008 1.25654 
380 1 6.46572 6.77026 5.7386 -0.952899 -0.0225991 0.00712216 
381 1 5.83802 7.05808 6.37025 -1.20096 1.29149 -0.312201 
382 1 4.37175 7.50084 4.58305 0.262977 0.0388982 0.760501 
383 1 2.79771 5.10184 8.54941 -0.71422 0.178631 0.896972 
384 1 8.26794 7.16385 8.00452 -0.573496 0.765363 0.564357 
385 1 2.40598 5.81471 7.96502 -0.196969 -0.189425 -1.08803 
386 1 9.13917 7.61164 0.655307 0.00830816 -0.29475 0.79827 
387 1 8.25308 6.26503 3.4341 0.0931162 -0.896952 0.465175 
388 1 4.14993 3.88584 5.01704 0.0712142 0.320683 0.896112 
389 1 2.12475 6.23286 7.15289 -0.836284 -0.570472 0.512489 
390 1 3.35432 6.62052 5.63646 0.0544093 -0.339384 0.155988 
391 1 3.88897 3.05421 0.660306 -0.0758368 0.301308 0.549497 
392 1 6.60447 7.42327 2.12996 -0.303141 0.199955 -0.206437 
393 1 9.25859 6.57686 8.55436 0.0513402 -0.739122 -0.387314 
394 1 4.98872 1.46176 8.43402 -0.596017 -0.264888 0.184655 
395 1 1.13201 6.44109 4.68069 1.30848 -0.173444 -0.666928 
396 1 0.566028 3.70392 8.43718 0.373156 0.0631022 -0.267083 
397 1 8.38793 5.49428 2.53522 0.575674 0.866335 0.0693875 
398 1 0.122746 1.0355 1.31515 1.15007 -0.463256 -0.144104 
399 1 0.0716013 6.02843 6.34025 -0.617314 -1.50314 0.0268577 
400 1 8.92464 2.22141 1.83295 -0.076 0.0363056 1.30476 
401 1 6.19809 4.17033 2.26949 -0.114955 -0.174653 -1.36907 
402 1 0.441184 1.8524 1.7507 -0.273266 -0.575841 -0.386253 
403 1 6.65984 5.87489 0.48059 -1.5964 0.0957609 0.468016 
404 1 5.89892 5.09993 0.844352 0.607112 -0.0480302 0.0612899 
405 1 1.9268 5.73027 1.80508 -0.281765 -1.34723 0.856772 
406 1 5.34465 7.31391 0.382946 -0.609488 -0.592851 0.768729 
407 1 5.53269 1.59844 1.32019 0.111207 0.485303 -0.765655 
408 1 8.57436 9.36971 4.05493 0.745017 0.652868 -0.510995 
409 1 6.04222 2.53956 7.25419 -1.19742 -0.901023 1.21686 
410 1 2.51398 1.81268 2.03296 0.122862 0.542576 -0.278064 
411 1 8.38355 2.27359 0.0574618 -0.949557 1.92104 0.54813 
412 1 5.62071 6.83384 7.35588 1.51285 -1.6532 1.2307 
413 1 2.89983 4.76449 2.51189 -0.925856 1.51368 -1.04331 
414 1 6.53752 6.61642 2.69714 -0.563169 -0.032741 0.430888 
415 1 3.75787 5.29247 6.88863 -0.34966 -0.0391576 -0.453202 
416 1 4.49867 0.592649 7.1091 1.88659 -1.09921 0.615127 
417 1 5.27863 4.71057 6.05531 -1.17327 -1.52892 0.461089 
418 1 3.06401 7.03133 8.48397 -0.973769 0.928369 0.376028 
419 1 4.56042 6.89581 0.032182 -0.25718 0.838538 -0.486515 
420 1 6.74418 5.5144 8.57907 -1.42256 -1.27723 0.879367 
421 1 5.25149 4.42748 0.625985 0.562432 0.214195 -1.69537 
422 1 8.7321 7.96218 1.47219 -1.01711 -0.170241 0.103794 
423 1 2.86105 6.63603 6.58928 -1.47481 1.03162 -0.197776 
424 1 3.62491 0.475649 0.705271 0.629538 -0.0193762 -1.11962 
425 1 3.62835 1.03331 7.14581 0.577858 -0.1913 -0.730346 
426 1 5.09441 7.02368 3.99685 1.87488 -0.398556 -1.06096 
427 1 4.92246 7.74127 1.1606 -0.532992 -0.161425 0.151183 
428 1 7.33524 1.63838 5.71421 -0.698886 -0.0024784 0.208405 
429 1 6.78804 4.67221 4.06077 0.913144 1.3514 0.0599797 
430 1 2.41749 7.62006 8.12783 0.244648 -1.05433 0.147207 
431 1 4.701 5.88068 1.40876 2.45654 0.315692 0.379537 
432 1 9.10958 0.376882 1.83323 -0.349372 0.625365 1.34444 
433 1 4.05713 5.34028 0.148128 -0.856087 -0.176686 1.75461 
434 1 6.57149 2.23509 0.519028 1.25152 0.861055 -0.829867 
435 1 8.0789 5.19928 5.00314 0.3984 -0.691955 -0.588394 
436 1 1.85869 8.76388 3.11254 -1.52859 1.17878 -0.969486 
437 1 2.33539 8.0791 4.71806 0.537521 -0.102088 0.24727 
438 1 2.63154 2.77183 2.28623 0.0464166 -0.976332 -1.2076 
439 1 7.19892 3.88248 0.911756 0.900484 0.842632 -0.0118002 
440 1 9.1914 7.75006 7.9375 0.289846 -0.253988 0.56683 
441 1 0.167198 5.3815 3.84859 -0.178494 2.04642 0.952219 
442 1 3.96946 1.13966 8.76581 0.934536 -0.791334 -0.0755226 
443 1 8.93402 1.54803 3.142 0.691811 -1.90342 0.387982 
444 1 3.48104 1.9683 8.99096 -0.690214 0.609423 -0.325023 
445 1 5.00639 6.94611 5.03349 0.0274119 -0.221329 0.481415 
446 1 5.69529 1.52728 3.85633 0.604066 -0.3332 -2.03876 
447 1 3.84143 4.93693 8.45459 -0.742308 -0.155622 -0.312547 
448 1 3.40454 4.55893 0.828224 -0.808298 -1.26737 1.15863 
449 1 5.97623 5.07423 3.75743 0.339159 0.525555 -0.0340963 
450 1 9.20066 3.02931 2.23567 -0.720026 0.0614011 0.592302 
451 1 8.83499 7.43849 4.71187 -1.8141 0.28101 1.12635 
452 1 3.2364 7.81677 1.05631 0.529036 0.325059 0.511478 
453 1 3.95643 8.61356 7.57956 -0.0904148 -0.876527 1.64774 
454 1 2.18878 8.9765 7.26756 1.02174 -0.624757 -0.735831 
455 1 8.86426 2.44286 3.55021 -0.677565 2.46517 0.423316 
456 1 5.80975 9.07039 8.9009 0.559839 0.237784 0.114976 
457 1 5.22309 1.09706 6.59803 -0.652219 0.671441 0.255959 
458 1 8.06294 7.7927 2.17331 -1.06709 -0.975041 0.0831178 
459 1 3.6089 1.27372 2.09174 -1.28784 -0.649572 0.163795 
460 1 1.70094 2.75799 9.12685 1.63975 -0.0354447 -0.48003 
461 1 8.85328 5.97999 9.22197 -0.919427 0.315412 -0.186821 
462 1 4.9102 7.30709 1.98824 -1.09957 1.53487 1.4222 
463 1 8.27452 6.50169 7.24996 0.118037 0.999373 1.12421 
464 1 5.27398 5.6419 6.16027 -0.924607 -0.269554 0.502015 
465 1 0.309002 6.9784 4.669 -0.0161055 0.851595 -0.838054 
466 1 3.26691 2.94703 8.55308 -0.753207 0.091897 0.822174 
467 1 6.2626 0.570858 7.77217 1.31604 1.20314 -0.0101436 
468 1 5.93455 5.03541 1.77959 0.752938 -0.692833 2.05715 
469 1 1.69095 1.22838 0.720323 -0.526 0.420285 2.2208 
470 1 6.54727 8.36644 3.52632 -0.591707 0.447778 1.18313 
471 1 7.19825 6.44119 1.93779 0.0277951 -1.44855 -0.178783 
472 1 6.4141 1.94527 4.48148 0.789519 -0.295444 0.970068 
473 1 1.18272 7.37621 1.47035 -0.328323 -1.22226 0.077177 
474 1 5.24969 3.10115 3.49215 1.26412 -0.35574 0.391441 
475 1 6.34205 9.29528 7.11496 -2.28082 -0.0991362 -0.102885 
476 1 8.3825 6.00728 1.64965 -1.13956 -0.436076 0.0108809 
477 1 2.49279 5.03092 0.0823147 -1.24176 0.557005 -1.18032 
478 1 8.84974 0.642727 2.9567 0.334553 -0.376517 -0.290207 
479 1 6.82387 1.05928 6.28909 -0.0646199 -0.691048 -0.327374 
480 1 9.19805 7.10421 5.67738 -1.43057 1.10115 -0.728295 
481 1 3.92517 5.41927 1.13351 0.0715622 -1.14191 -1.32248 
482 1 2.12766 8.70125 0.834587 1.51566 -0.998738 -0.0992022 
483 1 3.67908 6.45364 1.38413 0.693624 0.854074 -0.0300645 
484 1 2.79493 7.76117 1.98928 -0.0972725 -0.54367 -1.07615 
485 1 1.88382 2.95663 1.36604 -0.897661 -1.04927 0.656966 
486 1 6.70717 6.40617 8.16212 -0.0381414 0.0970529 -0.0277301 
487 1 6.9275 7.45716 5.26693 -1.23217 0.864379 -0.669449 
488 1 1.92169 4.90272 2.82495 -0.0438121 -0.0326302 1.84413 
489 1 3.86257 3.60286 3.12755 -0.217587 0.144358 1.09578 
490 1 8.13786 6.86896 1.9607 0.252674 0.624031 1.35257 
491 1 7.91781 8.19374 6.85854 -0.539277 0.872787 -0.312457 
492 1 2.57426 5.12578 5.434 0.119194 0.401151 1.14794 
493 1 3.75811 6.10159 7.46275 -0.779304 0.00563804 -0.321697 
494 1 4.54012 5.86276 6.89794 1.53408 0.947886 0.629 
495 1 0.879122 3.251 9.18565 0.320227 -0.727285 0.21851 
496 1 1.38201 6.53364 2.00112 -0.0108465 -1.13069 -0.176782 
497 1 5.75552 1.9981 5.43138 0.537121 -0.315736 -0.423918 
498 1 8.0297 8.60988 3.88336 -0.667394 0.424912 0.793191 
499 1 7.93838 4.44735 5.52844 -0.538997 0.271365 0.432444 
500 1 1.34749 0.642904 8.69831 -0.648356 -0.442135 0.317303 
501 1 1.18165 8.71821 8.16301 -0.495713 -0.464239 0.252181 
502 1 4.59567 4.49019 7.96254 0.828991 -0.855772 -1.75126 
503 1 6.18379 1.34891 8.3397 -0.368686 0.427612 -0.426947 
504 1 1.6926 2.31849 2.07248 1.17702 -1.32446 -0.489591 
505 1 2.56335 4.32822 1.16168 0.0284069 0.375251 -0.391211 
506 1 5.65264 8.28509 8.36879 0.297901 -0.167005 0.650106 