ITEM: TIMESTEP
2705
ITEM: NUMBER OF ATOMS
1000
ITEM: BOX BOUNDS pp pp pp
0.0000000000000000e+00 9.4000000000000004e+00
0.0000000000000000e+00 9.4000000000000004e+00
0.0000000000000000e+00 9.4000000000000004e+00
ITEM: ATOMS id type x y z vx vy vz 
1 1 0.928693 3.10264 7.51452 0.011904 0.79829 -1.03808 
2 1 8.79429 7.66022 4.56448 0.249127 -0.986069 -0.58392 
3 1 0.934486 1.39043 4.84386 0.246788 0.68101 -0.182459 
4 1 2.55654 5.46578 8.65902 -0.164241 0.248765 1.34948 
5 1 3.21463 4.55773 2.03384 -0.105432 0.183974 0.542075 
6 1 0.398343 2.09142 5.30335 2.13879 0.771527 0.807814 
7 1 7.5847 4.85811 5.18487 -0.756294 0.661204 0.310597 
8 1 9.00144 2.2251 4.75993 -0.378924 1.44265 -0.608379 
9 1 5.48746 3.47064 0.967352 -0.475067 0.15431 -0.894243 
10 1 6.70967 7.57151 5.97627 -0.0847122 -0.638853 0.945322 
11 1 7.70498 4.49011 7.09068 -0.942231 0.156768 -0.46059 
12 1 0.46436 2.8464 6.66244 1.50584 -0.0389182 1.32081 
13 1 7.58853 8.66646 4.10963 -0.175882 0.22984 -0.0507879 
14 1 8.91131 0.256578 8.3699 0.269534 0.345501 -1.45751 
15 1 5.69314 5.7177 2.81497 0.325766 -0.168756 0.066413 
16 1 7.50298 7.8617 2.60852 1.46271 0.445698 0.072836 
17 1 4.89741 0.578645 3.48986 -0.626372 0.570953 0.0350019 
18 1 5.88352 8.52507 4.66482 -0.963678 0.546086 1.75116 
19 1 6.97722 5.53533 7.66283 -0.772439 0.412071 -1.57167 
20 1 8.98698 8.80166 0.392529 -0.0936243 -0.503295 0.0159169 
21 1 2.62486 7.31783 7.2433 0.326225 0.900947 -0.448284 
22 1 2.35827 9.36174 2.47542 -0.219484 1.24507 1.08027 
23 1 5.36328 0.206586 4.233 1.30056 -0.605443 -0.295146 
24 1 0.66988 5.76005 1.18139 0.69972 0.544274 0.382687 
25 1 8.87205 6.98718 5.20767 -0.135081 -0.182301 0.201348 
26 1 4.12122 3.19319 7.8689 -0.552147 -0.525215 -0.165305 
27 1 6.39033 7.14949 7.65613 -0.222378 1.69761 0.876683 
28 1 5.5777 7.26126 9.05098 -1.19432 0.156005 0.826907 
29 1 8.33987 4.34216 7.82017 0.220286 -0.458932 -1.29409 
30 1 9.08403 0.607614 5.66278 -0.758091 0.386564 -0.783512 
31 1 0.792612 7.97594 5.37807 -0.159698 0.0193725 0.175214 
32 1 5.86249 4.3927 4.43955 0.926966 0.185094 0.102831 
33 1 0.338651 6.83024 2.1136 -0.0491434 -0.725507 0.0193346 
34 1 7.11607 6.17977 2.95377 0.443735 0.682027 -0.47885 
35 1 5.52858 2.38972 5.6792 0.386125 0.862109 -0.035662 
36 1 0.596105 7.75142 1.48325 -0.153568 0.934714 0.917089 
37 1 4.85291 6.126 0.910453 -0.199336 1.68516 -0.900756 
38 1 4.64017 3.95766 0.204275 0.0489849 -0.221615 -0.434209 
39 1 8.69801 8.72726 5.6836 -0.401194 -0.574856 -1.80513 
40 1 7.47773 6.45262 4.57584 -0.455266 0.138839 0.794335 
41 1 0.639007 5.10079 6.02453 -0.33411 0.544825 -0.160866 
42 1 0.239644 1.00572 2.14602 -0.83435 -0.636987 -0.613918 
43 1 8.65551 3.85926 2.79943 -0.625319 -0.582241 0.279601 
44 1 0.768552 6.56415 4.63415 -0.235829 0.687311 0.0964595 
45 1 0.571127 9.11363 7.5497 2.34341 -0.657709 0.50243 
46 1 1.9722 7.72587 1.54781 0.862343 -1.22689 0.969714 
47 1 1.95689 0.725648 6.90251 -0.420732 0.432015 -0.828648 
48 1 2.86168 3.33346 0.711522 -0.677659 -0.953801 0.245628 
49 1 3.55038 9.38849 7.12535 -0.674115 -0.00927786 -0.175654 
50 1 6.63098 8.8012 0.452388 -0.0882909 -0.00565825 -0.138316 
51 1 1.39759 9.24049 2.13474 1.6604 0.151788 -1.10071 
52 1 4.03814 0.876727 8.5206 0.674374 -0.0583487 -1.46161 
53 1 2.31542 7.22173 8.90555 0.346718 -0.896735 -0.290615 
54 1 8.81037 2.05328 1.12041 -0.788176 0.758462 -0.82516 
55 1 8.38362 5.12555 7.00381 0.260759 0.265796 -0.298055 
56 1 7.31488 6.73656 1.28091 0.819171 -0.703116 -0.787252 
57 1 9.21197 5.72031 7.0674 1.73063 -1.91726 0.651746 
58 1 2.89506 4.75474 7.10769 -0.636004 0.814015 -0.752422 
59 1 0.00145375 6.36678 0.695459 -0.372241 -0.739711 -0.264436 
60 1 6.44451 5.48648 8.53599 -1.31742 0.488301 0.322551 
61 1 1.85231 4.39035 2.34006 0.609582 -0.132169 -1.40906 
62 1 1.18384 5.72273 4.3022 0.911208 1.18685 0.979968 
63 1 0.44749 0.0386845 2.22335 -0.0902038 -0.42829 -0.381574 
64 1 7.08107 5.1494 6.78303 1.04819 -0.500997 1.30612 
65 1 3.91871 2.7782 5.8362 -0.383738 -0.797105 0.931465 
66 1 0.573663 4.6894 5.21918 0.369431 -1.38425 -0.511012 
67 1 8.07547 9.35914 1.60632 0.26244 1.19419 0.252386 
68 1 6.45395 0.848897 7.30773 0.234833 0.462904 1.47879 
69 1 8.48197 7.12264 6.08276 0.130532 0.450966 -0.0657975 
70 1 6.01848 8.87535 1.95013 0.334799 0.980606 0.431788 
71 1 5.85909 0.06319 0.44609 0.922213 0.139115 -1.68194 
72 1 1.63122 4.48579 0.44608 -0.535617 -0.18999 -0.158085 
73 1 6.22915 6.53342 2.89172 0.492668 0.920222 0.54396 
74 1 6.34512 3.534 2.77129 0.0824756 0.528948 0.187036 
75 1 8.09258 3.15375 2.28528 -0.744742 -1.30148 -0.0213248 
76 1 6.95632 5.36528 0.0250707 -1.2463 -0.538016 -0.541582 
77 1 3.03376 6.65338 0.585876 -0.283487 -0.167796 -0.788405 
78 1 7.41627 0.634551 6.4122 1.37393 -0.0663655 0.448606 
79 1 9.36116 8.54694 6.94882 0.573638 0.16059 -0.142492 
80 1 1.25558 8.95295 8.67975 0.286297 -0.331898 -0.287775 
81 1 6.25498 4.09472 1.17632 -1.83212 -1.93006 0.130416 
82 1 3.862 0.857634 7.38239 -0.732773 0.675384 -0.000787669 
83 1 7.83545 4.07275 5.73538 0.177088 0.521736 0.736702 
84 1 7.03931 1.43016 6.88703 0.136112 1.24856 1.09476 
85 1 5.94357 2.67584 2.48694 0.61073 -1.45749 -0.214262 
86 1 4.5746 3.15545 4.49253 -1.1909 -0.040903 2.01479 
87 1 7.01889 8.52292 5.7445 0.311958 -0.603613 -1.27565 
88 1 4.90387 2.65832 1.06542 -0.235075 0.227004 -0.0239429 
89 1 8.89531 1.14572 1.58816 -0.595602 -0.624897 -0.0808808 
90 1 9.35694 4.3952 2.35418 0.0286086 0.381107 0.0959482 
91 1 6.91866 6.24032 8.95619 0.442366 -0.365026 -0.286723 
92 1 0.618992 5.85961 2.18663 -1.07014 -0.592797 0.353912 
93 1 4.4098 3.46717 1.06173 -1.15631 -0.456837 1.29306 
94 1 6.96121 2.30394 0.921382 1.07794 -0.650136 0.493427 
95 1 0.245724 3.39125 5.64805 -0.284113 0.355601 -0.557838 
96 1 6.93819 4.1512 5.39737 0.123584 -0.0428796 -0.283543 
97 1 7.53202 8.05851 4.95882 -0.76554 -1.13732 0.398865 
98 1 7.65141 0.196785 4.64386 -0.896423 -0.777052 1.07829 
99 1 8.54649 7.34602 8.91513 0.968883 -0.785179 0.178453 
100 1 1.27483 4.82351 4.65621 -0.429138 -0.284741 -0.00413248 
101 1 0.104484 9.15613 5.34693 0.264628 0.299498 -0.481872 
102 1 8.30744 7.83712 2.08733 1.15205 -0.341765 -1.00298 
103 1 2.00564 3.46807 2.62566 0.702906 0.652826 0.357019 
104 1 5.7666 7.40367 6.20862 0.0286185 -0.445539 -0.618276 
105 1 3.8062 2.4029 7.3208 1.09075 0.579081 -0.24099 
106 1 5.35051 6.41867 0.134514 -0.31322 0.0273704 -1.07595 
107 1 7.27357 4.96422 0.846745 -0.19636 0.102056 0.566344 
108 1 3.45648 4.49429 3.23014 -0.0543848 -0.238419 0.0352794 
109 1 3.78691 1.84332 5.5955 0.166096 0.921782 0.620283 
110 1 3.70648 7.34372 0.606753 -0.228135 0.89435 0.683706 
111 1 9.34059 1.35904 4.78788 0.282575 -0.416443 0.391734 
112 1 0.267767 7.35621 4.84494 -0.473657 1.547 1.19502 
113 1 6.40918 2.91742 5.63244 -0.358428 -0.799719 1.42964 
114 1 3.98614 2.8163 8.79063 0.756854 -0.534318 -0.311799 
115 1 1.40998 6.3185 0.764145 1.20019 -0.601285 0.146289 
116 1 8.97013 1.20535 8.18529 -0.272617 0.0669767 0.0478372 
117 1 7.52338 5.23496 1.71511 -0.578004 0.0954262 0.37004 
118 1 4.23623 4.0484 1.79044 0.574647 0.319089 0.248229 
119 1 5.05251 3.29596 1.84752 -0.0480658 1.90812 1.50484 
120 1 2.86917 6.3894 1.50626 -0.311565 -0.102826 0.496439 
121 1 1.52353 2.72925 2.01548 0.682227 0.946786 -1.37135 
122 1 7.24644 7.98818 3.49653 -0.0526849 -1.00297 0.174858 
123 1 6.9976 3.2841 4.9873 0.813969 -1.16294 0.367691 
124 1 4.70179 5.18455 1.05115 -0.193588 0.487247 0.604788 
125 1 3.96481 2.60048 3.98415 -0.0639138 -0.703226 0.0955853 
126 1 2.91815 1.88807 2.25557 -1.69752 -0.689937 1.00319 
127 1 2.12318 6.87491 0.369517 -0.573942 -0.904898 1.04565 
128 1 6.7987 6.61484 2.11746 0.0289796 -0.730147 0.385897 
129 1 4.22979 8.11991 0.559544 0.336045 -1.19644 1.31793 
130 1 3.17526 6.18525 8.46818 -0.757827 1.41514 -0.673959 
131 1 1.87755 6.88568 7.62403 0.140559 1.06779 -0.281088 
132 1 2.89325 1.39893 4.77753 1.41562 -0.841431 -0.435732 
133 1 8.22985 0.732489 3.03194 0.535599 0.276418 0.352033 
134 1 5.13357 9.24385 7.78435 -1.02235 -0.6917 -1.16532 
135 1 5.42745 2.07199 8.21617 -0.627553 0.0930589 0.558745 
136 1 9.3253 6.95619 8.36154 0.622726 -0.0764247 1.62274 
137 1 6.32199 7.30105 4.52545 1.18491 0.657459 0.342468 
138 1 8.72101 5.91252 3.97716 0.999693 -1.19315 0.139852 
139 1 7.37603 0.815907 7.67345 0.59289 0.244574 1.49811 
140 1 8.91973 2.86598 0.553543 -0.884654 -1.23818 -0.0139274 
141 1 4.0979 1.8101 8.90629 -0.372881 -0.361264 0.696787 
142 1 3.52609 0.0694225 2.43136 0.1964 0.175363 -0.21855 
143 1 2.38607 4.10905 5.6379 2.0158 -0.215797 -1.06354 
144 1 7.75971 6.02609 3.65968 -0.971184 1.22171 0.0207378 
145 1 3.07565 7.82605 8.73996 0.348409 1.74939 0.202261 
146 1 6.66457 8.17548 4.19686 -0.860732 1.1266 1.4232 
147 1 1.03682 7.76396 4.3869 0.111404 -0.0400314 1.17965 
148 1 5.51112 7.18779 8.12015 -0.14014 -0.40678 0.390972 
149 1 8.40121 1.78052 8.67394 0.716491 -0.370506 1.12563 
150 1 6.38064 6.90841 1.12377 0.0570267 -0.902406 -0.312145 
151 1 0.786106 4.73126 8.28416 0.385801 -0.121265 -1.95892 
152 1 5.38069 8.14502 8.56649 0.210339 1.63542 0.147553 
153 1 1.57346 3.30057 8.2379 0.501391 -1.45008 0.770539 
154 1 2.47715 4.73816 8.0633 -0.11525 -0.0191134 -0.272162 
155 1 5.64412 4.35533 0.4464 0.40949 -0.171102 0.242344 
156 1 0.556977 2.93122 4.87177 1.47015 -0.619931 1.1773 
157 1 7.09478 6.48942 7.25889 0.363321 0.316492 -0.116064 
158 1 3.23441 6.91085 9.09545 0.111557 -0.0570181 -0.509352 
159 1 0.189506 0.615325 7.74226 0.961999 -0.716451 -0.632422 
160 1 9.37223 4.4132 0.715238 0.435594 0.486959 0.763754 
161 1 1.0687 3.39435 2.55267 -0.272186 -0.196931 -0.415761 
162 1 6.38986 5.00035 2.89477 -0.837538 -1.20844 -0.20241 
163 1 8.66832 0.54657 6.69851 -1.76873 -0.288527 -0.235807 
164 1 8.20919 5.08491 0.598261 0.0287897 1.27384 -0.962719 
165 1 6.23874 3.14376 4.37144 0.10119 0.192565 0.603233 
166 1 2.69682 5.66411 6.91257 -0.362232 -0.0205228 0.539248 
167 1 9.2209 7.6781 2.0153 -0.537017 -0.837156 1.14743 
168 1 5.06647 7.9504 0.948729 -1.24348 -0.0641633 -1.31486 
169 1 3.7963 1.27559 6.4638 0.101991 0.325863 1.53659 
170 1 4.07618 4.42243 0.861005 0.0788383 0.687064 -0.391367 
171 1 2.21591 4.63593 9.09652 0.788152 -0.718857 -0.122808 
172 1 8.5082 4.81663 5.54477 0.322586 0.819578 0.809253 
173 1 6.04585 0.547139 5.5795 -0.660068 0.219618 0.0477307 
174 1 0.0662375 5.49665 3.23083 0.70981 0.609748 -0.167467 
175 1 0.303197 8.47599 2.08213 0.363238 -0.364644 -0.285357 
176 1 0.769372 3.80403 8.16845 0.0479261 -0.368473 -0.104029 
177 1 0.780105 6.71946 0.230137 0.341513 0.0748191 0.821905 
178 1 2.9905 2.62242 5.68148 -0.147711 1.18767 -0.225073 
179 1 4.01324 5.81921 1.37866 -0.9388 -1.28792 -0.0246957 
180 1 1.15595 7.13601 6.96668 -0.589692 -1.4537 0.921905 
181 1 4.96174 1.11024 0.622952 -1.15165 -0.924074 0.519561 
182 1 7.63263 7.46581 5.81835 -0.0251031 -1.0732 -0.301378 
183 1 0.561626 2.87542 3.26498 -0.617804 -0.709991 0.174583 
184 1 5.44458 2.6705 0.326569 0.763695 0.0922249 0.832731 
185 1 7.44463 9.27267 7.93786 0.281355 0.592536 1.55892 
186 1 0.339296 5.30265 4.5183 0.765264 -1.05744 1.71516 
187 1 3.53608 5.26313 8.65401 -0.758484 -1.1063 -0.406827 
188 1 8.05139 8.39322 3.22198 1.16122 -0.460363 -0.275025 
189 1 3.06894 2.35006 3.14715 0.694542 -0.471787 0.506356 
190 1 7.50464 2.41864 2.40555 0.312303 0.0163013 0.0504247 
191 1 8.25671 7.39498 2.99848 0.330159 1.08826 0.0553743 
192 1 1.54265 4.56317 5.56805 0.337905 -1.4134 0.409569 
193 1 7.18798 9.01549 1.71986 0.417478 0.112051 -1.99809 
194 1 5.28182 6.50379 2.41244 0.0495662 -0.494243 0.0289746 
195 1 9.33834 1.93315 1.95472 -1.15451 -1.21713 -0.988413 
196 1 2.23204 0.928557 7.7902 1.07422 -0.641224 0.416434 
197 1 2.21557 4.91689 4.94041 0.218185 -0.48496 -0.259714 
198 1 6.26964 7.98639 8.88275 0.881901 0.348127 -0.404359 
199 1 2.32888 2.94806 3.372 0.555187 -0.129158 0.128228 
200 1 8.32214 1.10428 6.01213 -0.591361 -0.101316 -0.663545 
201 1 3.71681 3.24629 1.74654 0.169092 0.0421891 -0.138958 
202 1 4.28346 2.0983 6.44999 -0.00962185 0.253942 -0.300434 
203 1 4.56828 8.77474 1.18996 -1.00415 -0.417507 0.349903 
204 1 3.17499 0.896149 8.02449 0.193221 0.132346 0.60064 
205 1 4.34649 4.79862 3.5283 0.365554 -1.66889 -0.776216 
206 1 5.41997 0.0794962 2.81672 0.063236 -0.771462 0.732436 
207 1 2.08784 2.52253 4.23087 0.547389 0.175416 0.794897 
208 1 6.0252 4.94966 9.20904 -1.04492 0.486712 -1.07675 
209 1 3.71404 8.58947 8.81043 0.117098 2.06316 -2.16073 
210 1 8.17047 8.46971 9.30984 0.151193 0.0720304 1.50889 
211 1 5.81531 8.55563 0.884542 0.115289 0.562421 0.440059 
212 1 8.10878 6.88517 3.93093 0.622525 -0.148874 0.444774 
213 1 6.94539 3.28139 1.11761 -0.526771 -0.938505 0.78281 
214 1 8.94078 1.68905 5.57788 -1.67591 -1.15714 -0.48764 
215 1 2.37037 2.33121 6.40891 0.864736 0.0997607 -0.354424 
216 1 1.51085 6.99382 8.46353 0.29964 0.35683 0.0568895 
217 1 4.51914 4.06848 4.1943 1.43831 -0.780058 -0.206242 
218 1 4.81847 3.34113 8.71556 -0.780078 1.02081 -0.00893681 
219 1 0.2221 3.74867 7.38147 0.0457401 -1.1568 0.427958 
220 1 5.73591 9.1876 6.18073 -0.017619 -0.0836425 -0.530254 
221 1 6.77515 0.728239 4.97766 0.329115 -0.59209 0.295252 
222 1 0.19651 4.51792 3.31853 -0.995754 -0.212484 -0.0742356 
223 1 0.208279 5.92637 6.18727 -1.05847 0.152387 -1.65041 
224 1 6.22411 5.66262 5.29281 -0.97831 1.71554 -0.525972 
225 1 7.88327 1.56132 2.53973 0.0494251 -0.04079 -0.285026 
226 1 7.739 5.84095 7.02127 0.553652 -0.970951 -0.862934 
227 1 5.11725 0.502441 6.0008 0.329875 -0.0831566 -0.840035 
228 1 6.64604 8.3475 1.29491 0.654025 0.879806 -1.9561 
229 1 2.23662 4.81723 6.2974 0.0783637 0.192886 -1.23288 
230 1 7.11366 7.16474 0.009375 0.73329 0.0635504 0.279823 
231 1 7.84154 5.55662 4.5019 0.358126 -0.305069 -0.0353125 
232 1 3.69469 6.94462 1.47015 -0.325224 -0.753958 1.18522 
233 1 2.9646 3.71446 3.53545 0.636552 -0.438602 -1.62775 
234 1 5.66739 7.70447 5.1848 0.587615 1.39042 -0.748457 
235 1 0.586778 1.93809 6.28372 -0.259106 -0.367509 -0.446593 
236 1 2.91879 3.21378 2.65575 1.32666 0.0975156 1.15906 
237 1 7.56562 2.65234 3.37984 -0.575021 1.05389 -1.15655 
238 1 5.0822 7.44186 1.8616 -0.597119 0.35635 -0.750497 
239 1 8.88587 8.51505 3.67875 -0.337301 -0.0451307 1.03773 
240 1 0.696624 3.42916 4.04835 0.676914 0.144484 -2.08534 
241 1 9.37929 7.56057 5.75094 0.771956 -0.0252014 0.108083 
242 1 3.72438 1.75694 3.62753 -0.229391 0.456826 1.42755 
243 1 4.60244 0.241625 0.790956 0.0391427 -0.329303 -0.302204 
244 1 2.13262 5.63364 7.7454 0.252797 -0.483225 0.163997 
245 1 5.58091 6.71825 4.73579 0.959942 -0.11756 0.862511 
246 1 2.34724 3.83499 8.52514 -0.293081 0.167522 1.39477 
247 1 1.00131 4.33453 7.39311 -0.402986 -1.06242 -0.454054 
248 1 2.27313 2.51038 2.54614 1.40889 0.30885 0.480522 
249 1 0.663362 8.34318 8.22259 2.12946 1.03448 -0.0796508 
250 1 7.77887 8.94847 5.34531 -2.49606 0.312036 0.699906 
251 1 0.737674 1.37795 8.06156 0.768355 0.847548 -0.78004 
252 1 0.836689 8.26232 7.22824 -0.286065 -0.740916 0.010752 
253 1 0.440236 1.23521 5.66736 -1.33163 0.624612 0.602805 
254 1 7.89151 5.22317 7.79802 0.754379 2.13943 -0.764676 
255 1 9.02757 3.00069 3.23062 -1.46881 -0.757284 0.164943 
256 1 5.62571 4.92067 1.24384 -1.03976 -0.448242 -0.223116 
257 1 6.11267 3.73393 5.12853 1.79059 0.00732655 0.49811 
258 1 1.08441 4.20586 3.11908 0.257424 1.2511 0.0523427 
259 1 7.80741 7.81603 7.78235 0.510217 -1.75019 1.24456 
260 1 1.23527 7.62235 7.79289 -0.7368 0.337463 0.457204 
261 1 9.19723 3.65458 0.095754 -1.43554 -0.934468 0.301098 
262 1 7.92764 3.22205 5.263 -0.677105 -1.59439 -0.239957 
263 1 1.4351 3.61423 0.798834 0.0241839 0.251577 0.532685 
264 1 8.43466 9.2047 2.93362 0.702284 -0.738949 0.496756 
265 1 6.36435 8.1901 3.20491 0.256881 -0.652813 -0.200952 
266 1 3.54018 6.00845 9.33943 0.383628 -1.09221 1.14416 
267 1 6.74694 1.55931 4.33881 0.703263 -0.141779 0.528083 
268 1 4.85941 2.37788 8.92977 0.270802 -0.497162 0.913294 
269 1 9.31451 2.86229 4.13497 0.334381 2.34504 -0.960289 
270 1 3.23547 4.85981 1.03254 -0.206621 0.38647 -0.312192 
271 1 3.79722 1.77634 1.75137 -0.836232 1.32374 1.60673 
272 1 8.92925 7.54824 3.64949 -0.0777888 0.251771 -1.09513 
273 1 0.702323 9.05378 6.59672 0.48531 -0.997362 0.303671 
274 1 8.20712 0.151082 5.95176 -1.35585 -0.785063 0.654675 
275 1 0.775584 5.74039 5.27808 -0.582743 -0.231497 1.34877 
276 1 1.25446 8.26088 2.00306 0.844407 0.749764 0.0106331 
277 1 0.75709 6.80125 7.8087 -0.0357463 0.133895 0.238876 
278 1 4.39082 2.55722 1.83624 -0.775067 1.10564 0.0255321 
279 1 6.7156 2.41664 3.84524 0.498888 0.78524 -0.170475 
280 1 1.83779 4.93488 3.92902 -1.40508 -0.276553 -2.24236 
281 1 6.14887 2.03745 3.21616 -0.234607 0.745171 -0.583464 
282 1 3.28008 3.22009 7.35396 0.598621 0.929391 -0.874388 
283 1 7.33902 0.643207 1.62196 0.434467 -0.73827 0.44789 
284 1 0.918471 3.6575 6.73245 0.0614287 -1.57601 -0.313454 
285 1 8.04618 4.51943 1.35972 2.51762 -0.169206 0.705153 
286 1 7.85473 2.73624 6.39008 -0.943833 1.4443 -0.619429 
287 1 1.381 1.65444 4.03983 -0.594339 -0.174983 0.0634403 
288 1 5.68058 0.658941 7.79461 -0.491917 1.30992 -1.23514 
289 1 1.79969 7.90364 7.09522 0.0110037 0.462264 -0.0238665 
290 1 3.32596 2.58439 8.11786 0.831815 -0.72879 1.57665 
291 1 7.449 1.46238 8.67431 -0.492461 0.185415 -0.348512 
292 1 6.98173 2.3786 6.38237 0.494314 -0.293997 -0.0038728 
293 1 3.0438 3.48763 9.14705 -0.0124812 -0.890757 0.0908858 
294 1 1.51914 5.45806 5.90463 0.97357 0.3709 0.00989149 
295 1 2.06692 6.74125 2.20465 1.2557 0.00644246 -1.23088 
296 1 4.36698 1.64265 7.27991 -1.21415 -1.11883 -0.324787 
297 1 9.1356 0.0619777 3.60481 -0.627011 -0.723276 1.23101 
298 1 3.19294 5.77583 0.840567 -1.34962 0.00962933 -0.0255999 
299 1 6.34614 2.46027 0.110919 0.512599 0.0744533 0.355649 
300 1 7.54535 3.94924 3.79401 -0.371278 1.03955 -0.0267777 
301 1 3.94773 7.88354 8.16425 -0.655222 -0.122061 -0.93436 
302 1 4.28186 7.86979 1.48722 -0.707526 -0.5843 -1.91621 
303 1 7.64428 8.61533 7.25774 -0.589271 -0.257508 -0.442888 
304 1 2.57842 4.38282 4.17198 -1.31871 -0.502176 1.80864 
305 1 7.9154 2.41254 9.18378 -0.890812 -0.000325115 -0.253815 
306 1 7.1668 7.43807 7.20118 1.01165 -0.107583 -0.0286738 
307 1 9.07126 0.536247 4.41458 -0.0968028 0.198699 0.544691 
308 1 9.29286 5.0919 8.61462 0.00570935 0.355502 -0.706593 
309 1 1.57059 8.85674 6.92589 -0.569266 -0.805515 0.00240376 
310 1 1.8454 0.0423908 7.64278 0.0761164 0.157432 0.640861 
311 1 2.80849 2.35362 4.81733 0.526458 0.451287 -0.160738 
312 1 7.9873 7.65084 6.75537 -0.285877 0.155347 0.429626 
313 1 8.57517 6.43775 6.76166 -1.34096 -1.23846 1.57249 
314 1 6.75949 9.04783 3.78111 0.119669 1.05905 -0.25547 
315 1 7.9166 2.42462 8.14704 -0.270492 0.533093 -1.61831 
316 1 3.2547 3.57491 8.22543 -1.26404 0.388116 -0.132332 
317 1 6.46147 0.994613 1.6773 -0.254389 -0.115252 -0.0380164 
318 1 6.36021 1.60686 0.536594 1.08279 -0.26625 -0.306895 
319 1 0.323908 4.9928 7.48784 -1.26373 0.118691 0.43235 
320 1 8.84295 6.20762 5.68519 0.531998 1.62586 0.89963 
321 1 1.89832 4.02808 4.83372 -0.604027 0.187114 0.673536 
322 1 0.227943 0.860233 0.407697 -1.0114 -0.231564 -0.873936 
323 1 1.5192 8.54809 7.84386 -1.05097 0.0669012 -1.52928 
324 1 8.68921 3.82625 1.83315 -0.882636 -1.33991 0.0572529 
325 1 7.17876 2.91315 0.17567 0.471644 0.0114483 0.114538 
326 1 5.16251 9.0523 8.75617 -0.682545 0.779184 -0.325104 
327 1 9.15763 1.92149 3.79981 -0.322345 -0.153432 0.0778889 
328 1 1.222 0.0563393 4.9062 1.24675 0.811293 -0.33879 
329 1 1.85109 8.5385 2.70505 -1.0631 0.55096 1.0711 
330 1 3.02871 5.19441 0.0626037 0.130771 -0.857175 -0.0897053 
331 1 9.01011 1.01289 3.56323 -0.160388 1.4912 -1.65962 
332 1 4.04107 8.67242 2.02256 0.522086 0.511239 -0.358778 
333 1 1.19312 2.58128 3.9188 0.143401 0.642852 0.855252 
334 1 2.19343 3.50671 4.09535 -1.16413 -0.565603 0.0569484 
335 1 8.00704 1.3963 0.0744076 -0.916689 0.0284814 -0.24158 
336 1 6.91138 7.91248 8.15244 -0.621409 0.757252 -1.5997 
337 1 4.80478 1.75647 5.72104 1.21035 0.0528082 -0.167678 
338 1 1.43683 7.35836 9.33013 0.856885 0.393076 -1.72576 
339 1 5.74028 7.34612 3.04559 1.01496 -0.11398 0.256662 
340 1 4.41944 0.224346 2.74946 0.61986 0.47674 -0.923758 
341 1 8.53305 3.40104 5.97892 -0.281651 0.0491009 -0.748916 
342 1 7.60302 6.15595 8.0106 -0.815748 -0.262383 0.846571 
343 1 0.202904 5.07333 0.0751319 0.868118 -0.02242 0.621082 
344 1 6.32102 7.93014 6.9202 -0.416144 0.375503 -1.22189 
345 1 7.55906 1.66143 6.12472 0.326268 0.479969 -0.432378 
346 1 1.84714 5.46833 0.0417419 -0.00299538 1.27367 0.561438 
347 1 8.37931 2.45565 5.67431 0.0929073 0.729572 -0.218405 
348 1 0.54707 0.233567 4.14862 0.561144 0.714488 -0.489149 
349 1 1.10096 8.15549 6.32368 0.545322 -0.0808787 0.231482 
350 1 0.789873 8.97129 1.43092 -0.994041 0.541741 1.24732 
351 1 2.83244 7.54379 0.258233 0.0264366 0.618614 -0.358617 
352 1 9.22602 1.27647 6.37868 0.820161 0.220427 0.50616 
353 1 6.18861 6.94393 5.44595 0.594051 -0.654312 -0.398337 
354 1 3.90774 7.67061 9.13456 0.621644 0.166838 0.82328 
355 1 8.2602 6.50032 1.41468 0.0307738 -0.172864 -1.64276 
356 1 4.72561 3.097 3.52181 0.159493 0.237766 -0.143014 
357 1 7.83219 4.50886 3.05753 1.19073 -0.541465 0.536301 
358 1 8.87425 1.32069 7.25304 0.0787375 -0.315941 -1.0842 
359 1 5.38664 -0.0073978 5.1725 -0.0999168 1.15382 0.203598 
360 1 5.38504 3.55447 4.12574 0.0159012 1.28782 0.570297 
361 1 8.84824 5.17406 7.82298 1.24641 -0.0061938 0.865111 
362 1 6.27578 1.87829 1.43911 0.182522 0.0509068 -0.0511866 
363 1 1.24718 7.31577 0.861726 0.0816455 -1.82467 -0.351279 
364 1 4.71865 1.72259 1.37227 -1.15675 0.751513 0.551574 
365 1 7.80802 5.80876 0.00287175 0.986295 -0.823149 -0.206672 
366 1 7.70541 4.15262 8.52642 -0.514249 -0.105933 0.494374 
367 1 0.678279 5.01647 2.66376 0.139625 0.31229 0.608833 
368 1 1.65376 5.17725 8.50692 -0.33233 0.250601 0.575676 
369 1 8.93022 0.293694 0.861725 -0.480015 -0.222089 -0.0913015 
370 1 0.996232 8.90078 5.66945 0.481915 0.15075 -0.267439 
371 1 8.2638 4.64096 4.5489 0.485084 0.88992 -0.961328 
372 1 7.82165 6.67597 0.469587 -0.818218 -0.0588504 0.608757 
373 1 5.0602 8.89056 0.361154 -0.40137 0.960884 -0.12771 
374 1 6.51256 4.80334 3.8649 -0.211892 -1.06963 0.303789 
375 1 8.76495 2.03892 0.109716 -1.53707 1.0359 0.0962142 
376 1 8.31391 4.89315 2.20287 -1.37237 0.85213 0.242248 
377 1 0.154287 8.0675 4.19571 -2.2825 0.0492359 -0.560572 
378 1 8.21458 0.736035 4.01238 1.42905 0.227637 -0.354275 
379 1 2.59227 3.74861 1.88139 0.131914 0.489517 1.12275 
380 1 6.91512 6.4986 3.82548 -0.557447 0.306619 0.625739 
381 1 9.22319 6.21443 2.59316 0.628229 -0.987116 -0.183023 
382 1 3.92577 3.82503 4.9581 -1.51018 -0.346139 -0.334738 
383 1 8.5812 -0.00389235 5.03652 -1.52765 0.105212 0.919619 
384 1 5.19858 2.95984 7.92412 0.0992328 -1.32488 -0.0800262 
385 1 0.471383 4.38198 4.23341 0.715623 -0.768646 -0.952726 
386 1 0.217391 2.18719 0.561434 0.0381425 0.857239 1.19594 
387 1 4.80216 0.713178 7.40869 -1.51194 1.41955 0.838049 
388 1 3.5875 8.77379 7.86566 0.378065 -0.24594 0.128318 
389 1 6.61424 0.700134 0.686337 -1.39291 -0.28662 1.21183 
390 1 1.06571 1.19473 1.70794 -0.159505 -0.442338 0.00263321 
391 1 7.48909 4.02163 0.671957 -1.03328 -1.75694 0.280624 
392 1 3.2964 1.59772 7.2167 -0.785363 1.10299 -0.000597132 
393 1 5.58022 3.35068 5.90729 -0.127195 0.612844 0.906923 
394 1 7.00146 0.10751 5.68303 -0.482286 1.27299 -0.62476 
395 1 2.43988 5.15812 2.4589 0.175174 0.591042 -0.00299766 
396 1 0.518686 2.6247 8.2696 0.299441 -0.748863 -0.504327 
397 1 6.15337 5.87371 0.00651632 0.835428 0.0116871 -0.511626 
398 1 4.72315 4.89655 0.120748 0.685372 0.366277 -0.653737 
399 1 5.90682 8.86812 8.16174 0.545302 1.10498 -0.118864 
400 1 6.37798 9.3902 1.26172 1.31796 0.567746 -0.419435 
401 1 7.6518 3.96056 4.75051 0.380208 0.0573737 -0.940828 
402 1 4.79083 1.22607 6.53607 0.352699 0.68326 0.517358 
403 1 2.63661 3.98499 6.60036 0.326708 0.412895 0.372878 
404 1 6.15511 4.52918 8.2055 -0.220562 -1.23948 0.17013 
405 1 8.9052 3.04096 5.16382 -1.50127 0.754663 1.06563 
406 1 1.31557 0.810651 5.51298 -0.158346 -0.570667 0.0190293 
407 1 2.86126 2.78448 1.79946 -0.961363 -0.538657 -0.148167 
408 1 3.0888 5.46165 7.80681 0.00679408 0.274755 -0.599588 
409 1 5.41448 5.44428 0.453021 0.414936 -0.430511 1.88471 
410 1 0.419549 8.6903 9.21901 0.347331 -0.881493 -0.347308 
411 1 3.41472 0.0790813 8.51248 -0.175034 -0.569009 0.166353 
412 1 3.79841 0.846154 3.15057 0.883872 -1.51031 0.60599 
413 1 8.98264 4.68319 1.52284 0.363135 -0.503281 -0.587479 
414 1 5.48792 8.07325 0.113039 1.75355 0.354088 -0.483337 
415 1 5.81386 0.947693 0.0790978 -1.51171 -0.236027 -0.327441 
416 1 2.70647 4.18408 2.72448 -1.94642 -0.458559 1.34926 
417 1 4.40325 8.82786 7.27628 -0.75419 -0.290555 1.01355 
418 1 6.65197 4.90089 4.83951 0.101096 1.25854 0.388466 
419 1 5.67092 1.21972 8.54725 0.754629 0.94328 0.035516 
420 1 5.9546 8.82373 9.17644 -0.339243 0.428719 1.12004 
421 1 2.73918 6.37392 7.56048 1.57399 0.353739 -0.934943 
422 1 6.76869 2.71678 2.89478 0.297425 -0.233113 0.136053 
423 1 8.3797 3.30618 8.10205 -0.666221 0.784519 0.36326 
424 1 6.04416 0.911262 4.30656 -0.0670584 0.140451 0.585575 
425 1 1.41504 4.00704 8.95589 0.47363 0.100446 0.0813097 
426 1 8.44626 5.93889 2.18161 -1.27342 0.642769 0.915221 
427 1 7.2661 7.34981 4.21454 -0.183143 -0.612699 0.601942 
428 1 6.38248 5.75425 3.48399 0.166408 0.323858 -0.248504 
429 1 2.06386 0.826613 2.94645 -0.769219 -0.712792 0.442896 
430 1 6.09376 3.3456 1.79737 1.02588 0.816341 0.607927 
431 1 4.83619 2.82014 6.21171 -0.177134 0.59176 0.150937 
432 1 6.87966 4.23857 3.1748 0.231157 -0.638154 1.46045 
433 1 0.482553 6.43375 6.96888 1.8628 -1.68724 1.11391 
434 1 6.94259 5.62957 4.24467 0.134006 0.155207 -0.588481 
435 1 3.6185 2.56553 2.39819 -0.648429 -0.143679 0.435529 
436 1 4.95648 4.24884 1.1078 0.557356 0.704329 -0.0441567 
437 1 1.28408 1.76916 5.65374 0.471357 -0.87231 0.800236 
438 1 0.915555 4.25117 2.16522 0.189242 -1.27678 1.47881 
439 1 6.33816 7.78912 0.464154 -1.27436 1.08684 -2.06763 
440 1 4.2969 9.39032 8.87391 -0.144508 -0.175646 -0.838483 
441 1 7.57408 1.15749 4.56581 -0.288351 1.19644 0.895029 
442 1 6.39369 3.53994 6.42698 -0.678991 0.651657 0.00679978 
443 1 5.59346 1.85632 9.29373 1.24036 -0.30088 -1.01972 
444 1 8.35872 2.42209 2.89447 0.0185532 0.360266 -0.231143 
445 1 7.07091 7.14996 5.12062 0.641358 -0.798692 -0.579607 
446 1 5.45456 3.0455 5.00033 0.00872208 0.17461 0.0766343 
447 1 8.42861 1.60274 4.36058 -0.185945 -0.0783818 2.03099 
448 1 8.31809 4.87154 8.63153 -1.16778 -0.0493775 0.0443019 
449 1 2.25039 6.38229 8.40192 0.0771686 0.0804968 0.508978 
450 1 2.90787 7.0793 8.16637 0.64325 -1.41508 -0.647 
451 1 3.73447 3.6553 0.3943 -0.674234 0.273376 0.033028 
452 1 0.291887 6.08197 3.95173 0.714096 -1.01376 0.575088 
453 1 4.93829 6.56348 8.66611 -0.765864 -1.11088 -0.302527 
454 1 9.22722 5.38338 0.877837 -1.40715 -0.0151339 0.413429 
455 1 1.57243 6.34472 9.16694 -0.0942302 0.254356 -0.0135467 
456 1 5.78716 5.05141 2.15652 1.03123 -0.785249 -0.241577 
457 1 9.24915 0.176514 9.2724 0.0835401 0.171383 -0.469706 
458 1 7.75115 6.6607 8.88934 -0.266595 0.587897 0.321718 
459 1 5.78035 7.85701 3.93356 -0.846638 -0.713402 -1.59329 
460 1 1.46765 3.19177 4.59821 -0.504228 0.204828 -0.524022 
461 1 4.06576 9.01021 0.306904 -1.01184 -0.449064 -0.659853 
462 1 0.462338 8.80885 3.70409 -0.918427 -0.481204 -0.246682 
463 1 5.20986 2.1864 3.37836 -1.39714 0.324078 1.6407 
464 1 9.29526 3.64268 6.50374 1.22694 -1.2686 0.460185 
465 1 6.71168 1.11407 9.20078 0.0336384 0.129688 0.376308 
466 1 1.6087 5.0304 2.99654 -1.1173 -0.994767 -0.0388849 
467 1 9.1516 4.58944 4.83041 -0.802816 -0.573841 -0.049045 
468 1 8.1609 0.843272 8.60444 -0.623887 -0.265847 0.143899 
469 1 8.99442 7.90528 1.11925 -1.57982 -1.0823 -0.0450151 
470 1 3.56957 4.40737 4.18472 -0.0322872 0.0261795 -1.72948 
471 1 6.74998 3.9999 4.37246 -0.473231 -0.909224 -0.138658 
472 1 1.89227 2.51056 5.57619 0.198702 0.320768 0.0710015 
473 1 0.582574 7.77301 9.38334 -0.511226 -0.783929 -0.769649 
474 1 7.97661 1.18009 6.94394 -1.26055 1.23841 0.563534 
475 1 5.82754 8.84393 3.74402 0.566476 -0.434081 0.415123 
476 1 3.40642 4.47197 7.87021 -0.326096 1.52617 0.450076 
477 1 1.37537 6.19489 1.71934 0.149696 -1.2049 0.337192 
478 1 3.67453 1.91971 4.59326 0.0542968 1.25446 1.26325 
479 1 6.09052 2.72253 1.04415 -0.0647569 0.921472 0.487285 
480 1 9.29033 7.25078 2.83791 1.22935 -0.975046 -0.219073 
481 1 7.16452 5.78531 5.18734 -0.439899 0.511544 0.547495 
482 1 6.78274 7.49819 1.75514 0.349807 0.0769127 -0.232791 
483 1 6.33959 5.26171 0.722078 0.35416 0.824719 -0.0777832 
484 1 8.95412 8.80507 8.82764 -2.01957 0.835827 -0.82058 
485 1 4.2795 0.932074 5.6879 -0.469171 -0.769463 -0.760553 
486 1 5.96505 6.58301 3.85016 -0.536998 -0.972431 0.284121 
487 1 2.07434 8.67885 1.72052 0.645261 -0.13906 0.317893 
488 1 7.41788 2.46815 5.5573 0.502951 -0.389709 -0.457256 
489 1 4.5881 1.44851 3.22628 -0.0128219 -0.173956 1.53016 
490 1 4.60855 7.07845 1.02034 -0.870983 0.408562 -0.227165 
491 1 4.13153 0.934291 2.16607 0.0592717 0.578162 -0.664066 
492 1 8.18817 0.784343 2.07828 -0.324421 -1.2077 0.590128 
493 1 1.49934 0.186847 6.25601 1.57076 0.212806 -0.253898 
494 1 9.2049 8.56819 7.91386 -0.322062 0.128852 -0.94167 
495 1 8.01701 6.90136 7.40884 0.784415 0.5681 2.24976 
496 1 8.89606 2.51574 8.33307 1.12307 -0.0900602 -0.650987 
497 1 0.394377 9.28243 0.609205 0.0595176 0.0671347 -0.121395 
498 1 4.87994 9.2525 2.02396 0.165833 -0.323539 0.549872 
499 1 2.39588 4.77362 1.61112 -1.49098 0.275013 0.0735662 
500 1 4.61692 1.9503 4.0984 -1.2629 0.968277 0.210636 
501 1 5.40409 3.20978 6.90112 0.34793 0.00437584 0.935041 
502 1 5.01482 2.60356 2.55477 -0.15111 0.877378 0.286728 
503 1 7.20838 8.81531 2.97946 -1.13897 -1.35656 1.06306 
504 1 5.39327 3.4135 2.87745 0.748381 1.21409 0.985357 
505 1 5.97691 7.07154 2.09355 -0.851313 -0.519166 -0.796474 
506 1 2.19712 5.72614 1.69847 -0.935922 -1.00494 -0.237309 