ITEM: TIMESTEP
3146
ITEM: NUMBER OF ATOMS
1000
ITEM: BOX BOUNDS pp pp pp
0.0000000000000000e+00 9.4000000000000004e+00
0.0000000000000000e+00 9.4000000000000004e+00
0.0000000000000000e+00 9.4000000000000004e+00
ITEM: ATOMS id type x y z vx vy vz 
1 1 5.54704 7.81518 4.53142 -0.121818 -1.78188 1.11437 
2 1 7.96769 0.556264 6.91183 0.0554855 -0.0300191 0.392223 
3 1 7.05803 3.09541 1.55965 -1.77779 0.00343877 -0.938465 
4 1 5.78944 5.19589 0.905833 -0.380408 -1.04484 -0.279077 
5 1 1.17611 3.54647 4.65672 1.42452 -0.932245 0.60723 
6 1 0.407192 5.81393 3.78142 0.1157 0.013072 -0.0354429 
7 1 3.36424 1.56606 8.20854 -0.0965722 -0.837242 -0.256748 
8 1 4.06504 5.30059 7.43069 0.0237309 0.0913116 -1.22419 
9 1 0.478715 2.84775 2.51059 0.869553 0.658685 -0.150787 
10 1 1.91245 4.27362 6.01652 0.19161 -0.65536 -0.578278 
11 1 6.48448 2.7721 9.20612 -0.770994 -1.09197 -0.212358 
12 1 7.84394 0.489834 1.11271 0.262281 -0.248503 0.0276461 
13 1 0.897222 0.808835 1.13711 0.193238 0.553745 1.02447 
14 1 7.62613 7.81448 6.5865 0.491712 -0.289265 -0.704322 
15 1 4.98439 5.89865 6.21559 0.137925 -0.984981 0.277056 
16 1 1.68009 8.33745 3.92433 0.68569 0.176375 0.619201 
17 1 5.51095 3.56594 8.32059 -0.974694 -0.202442 -0.82981 
18 1 5.6545 4.26919 9.02936 0.676061 0.427536 0.440739 
19 1 4.02087 2.92761 0.742418 -0.823298 -0.323514 0.260899 
20 1 4.94429 3.56374 9.04479 -1.16509 2.10406 -1.40714 
21 1 7.02198 4.05422 8.10014 -1.34979 -0.425192 0.93475 
22 1 6.05265 0.347568 7.21236 0.667308 0.0181874 -0.390395 
23 1 0.428039 1.55652 6.15819 1.42169 1.40653 0.126499 
24 1 4.37274 2.81722 9.26209 -0.785799 -0.560725 -0.433323 
25 1 5.49529 2.94128 7.55912 1.10229 -0.153184 1.23655 
26 1 1.62035 3.38342 6.37599 0.0400551 -1.54993 -0.430043 
27 1 3.89875 7.39345 3.15143 0.961301 -0.307049 -0.683866 
28 1 6.87419 4.99395 8.10855 -0.017123 -0.875552 0.869758 
29 1 8.63473 9.22302 1.12365 0.283738 -0.480528 0.0229427 
30 1 1.50997 8.41766 5.50177 0.34822 0.856185 1.05986 
31 1 9.37719 2.77744 5.55878 -0.517594 -0.0928006 -0.4027 
32 1 6.25218 7.15153 4.59838 -0.218082 0.684779 -0.80118 
33 1 2.54944 1.77666 8.71937 0.017956 -0.726808 0.625779 
34 1 2.53484 8.10096 2.51854 0.244016 -0.794687 0.27077 
35 1 7.15137 2.73597 4.47038 0.868556 0.780294 -0.218048 
36 1 8.11224 5.66344 3.06034 -1.19408 -0.49936 -1.30937 
37 1 1.85178 0.567866 5.62284 -0.667851 0.688958 0.142541 
38 1 2.8539 0.422262 5.82974 1.17905 1.3928 0.586539 
39 1 5.0382 1.07037 3.35616 -0.243159 0.583414 0.638464 
40 1 1.68739 3.86222 3.06399 0.298852 1.01509 -0.390873 
41 1 1.35291 5.67103 3.6013 -0.566441 -0.695653 0.459319 
42 1 7.53149 1.38739 5.23019 0.0672929 1.37502 0.481839 
43 1 2.12002 3.54605 1.08126 0.269717 0.796794 -0.784154 
44 1 1.33179 2.96 3.07369 0.399551 1.14081 1.64519 
45 1 2.67267 4.65888 4.40016 0.641283 0.364387 -0.220536 
46 1 3.88435 2.02706 0.422612 1.17025 -0.24799 -0.662454 
47 1 1.61564 0.463475 7.55323 -1.12694 0.559006 0.0826958 
48 1 8.42564 1.92928 3.20903 -0.388445 -0.51474 -0.213139 
49 1 4.69147 6.47021 5.4748 0.351419 -0.185157 0.964949 
50 1 4.64097 4.26105 5.20144 0.0842221 -1.0824 0.978924 
51 1 3.04334 0.506589 0.154257 -0.975265 0.48266 -0.930134 
52 1 4.78398 3.26852 5.53125 0.330585 1.71488 -0.43592 
53 1 2.01898 0.0540942 3.18014 0.0503697 0.00282283 0.161044 
54 1 0.204449 7.25211 5.58693 1.05663 0.157716 1.49652 
55 1 2.23722 4.59758 2.82775 1.10254 0.00589452 -0.0698434 
56 1 5.23119 7.79478 2.75369 -1.31355 -1.124 -1.56164 
57 1 5.48238 4.75637 5.0665 -1.41061 0.249412 -0.112159 
58 1 9.08343 2.30852 2.6581 0.29255 -0.262452 0.311335 
59 1 7.55257 8.2474 5.65263 0.599006 0.844535 0.416425 
60 1 3.19393 8.5838 1.92304 -0.209956 -0.255574 1.23145 
61 1 0.304018 5.5326 6.01947 0.313667 -0.241656 0.00464536 
62 1 7.14223 9.16073 1.3527 -0.018659 0.250331 1.41396 
63 1 3.0672 7.79603 1.37748 0.599724 0.94571 -1.38129 
64 1 6.20713 2.816 1.88405 0.206408 -1.13733 0.798178 
65 1 4.13862 4.95542 4.72927 0.47371 0.364909 -0.158283 
66 1 6.72281 3.05841 5.33402 0.202183 -0.249892 -1.10278 
67 1 4.7506 7.95401 6.30014 0.800277 1.80548 -1.52279 
68 1 6.09448 3.46355 6.89464 0.423261 0.283575 1.08972 
69 1 8.77141 0.312596 5.45218 -0.125875 -0.480789 0.195963 
70 1 2.1338 5.29957 2.12183 -1.20832 -0.257009 -0.234762 
71 1 3.40711 2.63166 1.91359 0.544581 -0.172833 -0.342752 
72 1 2.55714 0.742587 0.963819 -0.881159 0.166512 0.16309 
73 1 5.52555 8.66325 4.96905 0.967066 0.192556 -0.439452 
74 1 2.75006 4.21962 0.809306 -1.37176 -0.0880132 -0.119608 
75 1 9.09862 8.90503 2.92374 -0.504475 0.502776 -0.647297 
76 1 4.18607 8.39946 7.91781 0.325295 -2.02698 0.450507 
77 1 7.94057 6.09027 2.13839 1.43194 0.0764493 -0.693895 
78 1 6.46278 5.61183 1.50231 0.92506 0.406561 0.705083 
79 1 1.35376 0.487865 8.50928 -0.521426 -0.549728 -0.434761 
80 1 3.16637 6.14224 8.16515 -0.59835 0.285665 0.676754 
81 1 5.86142 1.27713 3.77324 0.540405 -0.82971 -0.344463 
82 1 4.32083 2.59876 2.23397 -0.944523 0.0555457 0.609042 
83 1 9.34935 4.41553 4.99581 0.261135 0.494907 -0.0171087 
84 1 6.71576 4.8305 1.00858 0.373878 -1.35916 0.237206 
85 1 4.77227 7.06824 3.11137 -0.721075 -0.0488023 -0.11701 
86 1 7.89555 3.00449 6.60077 -1.24513 -0.66681 0.813758 
87 1 6.95128 7.87267 2.42444 1.7158 1.32861 0.385683 
88 1 2.90359 3.59067 5.2812 0.384668 -0.0231728 -0.351762 
89 1 0.33121 0.135791 2.40498 0.721791 -1.31079 -0.544428 
90 1 5.61379 0.828825 5.89708 -0.057639 0.241984 0.0428396 
91 1 9.2035 3.82385 5.8048 0.644516 0.156725 -0.0510744 
92 1 5.72085 8.89976 7.45725 -0.344527 -0.331215 -0.0312636 
93 1 5.67577 6.8151 3.16882 0.436639 -0.256526 -0.345822 
94 1 8.29409 2.85229 4.51599 -0.231711 1.92619 -0.165761 
95 1 2.54676 5.65464 6.61213 -0.254456 -0.650685 0.124232 
96 1 8.0721 2.13737 7.47171 -0.298326 -1.0404 -0.834418 
97 1 2.51518 2.85257 1.56196 -1.08521 0.743828 -0.786075 
98 1 0.6592 7.56551 4.75394 -0.652152 0.716561 -0.377126 
99 1 0.342924 0.0557129 3.35569 -0.393211 -0.548191 -0.278877 
100 1 5.82716 2.5709 6.71176 0.866423 -0.519662 -1.06862 
101 1 8.4573 1.82258 9.12556 -0.732378 -0.705365 -0.157167 
102 1 3.11145 3.68683 3.18502 0.149361 0.83763 1.16115 
103 1 6.79477 5.6959 3.31329 0.870886 -1.48285 -0.213045 
104 1 7.49849 2.13661 6.71248 0.412631 0.3337 0.607319 
105 1 5.66213 3.60309 2.0049 -0.0150689 -0.58352 2.49346 
106 1 4.3461 7.09484 3.95073 -0.0372161 -0.77804 0.0611916 
107 1 6.61582 0.385555 8.17065 -0.178184 -0.399895 -0.502823 
108 1 3.89127 5.08329 2.33236 1.44588 0.830274 0.239103 
109 1 4.5539 6.80471 8.61966 -0.490385 0.863554 -0.382903 
110 1 4.4679 3.27965 2.98296 0.458786 0.0600592 0.12948 
111 1 8.93697 9.35726 6.41122 1.00025 0.0462343 0.894741 
112 1 4.4587 4.27422 2.73321 0.0325868 -0.334796 0.13313 
113 1 4.72054 6.41965 4.50571 0.294252 0.489193 1.19829 
114 1 2.83308 4.9 3.49757 0.478939 1.15225 1.87969 
115 1 5.72698 8.32844 1.10762 0.327402 1.21734 -0.749847 
116 1 7.68474 7.31109 5.7691 0.0915925 0.439879 0.16455 
117 1 0.389674 2.1262 4.18465 -0.260554 0.461182 -0.118029 
118 1 3.69613 0.468581 8.74157 1.03274 0.155674 -1.26634 
119 1 1.67433 0.846906 0.522866 -0.579887 -0.224579 -0.536707 
120 1 5.41068 2.70569 9.15539 -0.38424 0.413238 -0.110595 
121 1 3.3403 1.07172 3.44763 1.20403 -0.902747 -1.9639 
122 1 4.32938 7.3993 5.59029 -0.135875 -0.850087 -0.537113 
123 1 7.64685 8.3846 1.37069 0.0358353 -0.407148 0.153214 
124 1 4.18894 0.546867 2.0215 -0.0115013 -0.49907 -0.524606 
125 1 6.09301 6.11875 8.96055 0.0596423 -0.372192 -0.24005 
126 1 3.09481 2.92111 3.75766 0.0548848 -0.653148 -0.33683 
127 1 2.44908 3.40991 4.4336 0.000301569 0.612778 0.229994 
128 1 8.01516 1.85322 5.93792 0.35642 -0.553419 0.6777 
129 1 0.686344 4.95264 6.7474 -1.18348 0.39463 0.658121 
130 1 9.3644 5.71737 5.12859 1.70505 -0.18241 0.375361 
131 1 9.2239 8.66894 3.81107 0.146001 -0.360796 -1.44437 
132 1 4.76379 0.189788 3.06353 0.393993 0.0183644 0.893717 
133 1 8.34198 8.54035 6.16212 -0.731341 -0.35094 -0.412448 
134 1 4.73428 2.91468 1.39381 -0.805864 0.954678 0.597403 
135 1 3.84715 7.18651 6.37624 1.93112 -0.0130171 1.31175 
136 1 3.39617 0.421804 4.20046 0.847392 -0.235975 -0.431037 
137 1 6.39245 1.29459 0.680739 -0.966879 0.0447997 -0.44309 
138 1 4.8133 3.64158 3.83114 0.438329 -1.22235 1.07873 
139 1 1.48985 5.68302 5.28956 0.431396 0.89137 0.109336 
140 1 2.22654 6.39676 5.1156 -0.0801594 -0.49569 0.573484 
141 1 5.12466 0.742427 0.551941 -1.20216 0.479309 0.251583 
142 1 6.75014 1.98823 2.13359 0.291911 0.17196 0.47968 
143 1 5.86227 7.26843 7.49284 -1.19586 0.663374 -0.529189 
144 1 9.09934 8.81657 5.54303 -0.850551 1.05976 0.173878 
145 1 6.85011 2.09674 5.16567 0.0512116 -0.436484 1.02483 
146 1 8.05249 1.39857 1.37484 1.75712 -0.323593 1.30026 
147 1 3.76992 6.57802 5.65841 1.157 -0.601058 1.41455 
148 1 5.6348 6.10569 4.38733 -0.401448 0.411236 -0.381914 
149 1 8.78639 2.19925 5.00175 -0.366591 0.0127936 0.898441 
150 1 6.57831 3.84847 1.16954 -0.155739 0.391414 0.564161 
151 1 6.9901 3.61529 7.13505 0.273269 1.38961 -0.0134494 
152 1 0.943417 6.58894 4.00005 -1.28486 -0.814594 -0.227144 
153 1 6.02314 1.15603 1.55945 -0.629829 0.69564 -0.697293 
154 1 4.19069 8.06581 3.7532 0.298739 -1.41459 0.0485842 
155 1 6.23111 4.12447 3.39711 -0.474523 0.252246 0.308354 
156 1 1.28256 6.79007 4.93626 -1.07678 0.494644 -0.407756 
157 1 3.37068 4.9076 0.615565 -0.993748 0.460439 0.354206 
158 1 6.81943 5.5049 8.95635 -0.000848223 2.06708 -0.331796 
159 1 4.98059 4.75734 1.17464 1.3555 0.349015 0.0705118 
160 1 3.48783 1.28894 9.21574 0.404767 -0.919677 0.607157 
161 1 7.86125 6.54452 5.23529 -0.854019 0.505214 0.859565 
162 1 1.37079 5.17019 4.4107 0.911317 -1.08338 0.260952 
163 1 4.48871 1.33295 0.144069 0.240117 0.173156 -0.427937 
164 1 7.97177 2.02821 0.563129 0.38876 0.157299 1.13153 
165 1 5.74861 6.11502 1.12699 0.775626 0.733411 -0.547021 
166 1 6.34078 8.13424 7.36311 -0.519815 -0.209065 0.8603 
167 1 4.20261 4.5939 8.20789 1.03138 0.424337 -0.0430787 
168 1 5.28368 2.74558 2.17301 -0.106149 -0.841048 0.0102701 
169 1 0.740853 2.71559 4.86433 0.40991 -1.03107 0.638004 
170 1 5.57891 2.58413 1.15416 0.161478 0.402446 0.345894 
171 1 4.16644 9.33262 7.68729 -0.211435 0.863337 -0.515747 
172 1 1.31711 1.77049 6.42545 -0.470671 0.334407 -0.676482 
173 1 8.2001 9.04908 7.02979 -0.285572 1.26083 -0.0769922 
174 1 3.13891 8.31568 4.77782 -0.283366 -0.885386 0.185303 
175 1 1.18892 0.576909 3.22379 -0.235368 1.753 -0.537782 
176 1 3.74602 2.13611 8.89066 -0.653218 0.74395 -0.671886 
177 1 6.59077 8.39117 1.66306 -1.06446 1.73458 0.301662 
178 1 3.24344 6.82027 2.8344 -0.0884752 0.127545 0.478464 
179 1 8.44994 3.02377 3.59862 -0.42725 1.39999 0.966767 
180 1 4.72577 0.46763 8.28219 -1.01598 -0.959951 -0.0377248 
181 1 5.61748 7.02276 1.41172 0.832788 -1.58308 0.533625 
182 1 2.86091 0.912641 7.6667 -1.1456 -0.0998372 0.0138025 
183 1 1.89874 2.05096 0.0890063 -0.518152 1.1793 0.693068 
184 1 3.90135 3.3464 1.58409 -0.122854 -0.332188 -0.86096 
185 1 9.39479 0.159318 9.0068 0.538612 -0.539607 -0.529882 
186 1 5.56313 8.23068 6.80988 0.0390115 0.950769 1.02512 
187 1 1.07962 1.10887 7.10295 0.868809 0.718286 -0.293381 
188 1 2.46323 1.25764 0.126204 0.578254 -0.11387 0.518454 
189 1 3.12285 2.14674 4.34622 -0.480224 -1.0846 0.248234 
190 1 8.47668 2.996 7.3737 0.0491154 -0.818964 -0.501268 
191 1 3.40723 6.92281 0.988402 -1.19138 0.748015 0.710244 
192 1 6.34435 9.09084 3.54038 0.600314 0.977566 -0.55757 
193 1 9.00313 7.06533 6.39106 -0.922934 -0.592282 0.437664 
194 1 6.22163 9.29522 8.93047 -0.284999 0.981062 -2.05005 
195 1 5.77736 1.36689 2.77256 -0.967329 0.557951 -0.234119 
196 1 6.32251 6.4229 7.30517 0.024137 -1.18366 -1.87407 
197 1 7.99115 0.122719 2.71948 0.418533 0.495476 -0.669749 
198 1 1.17845 7.51441 3.96504 -0.249929 0.124715 0.271552 
199 1 4.46744 9.12279 0.483156 0.362072 0.0739619 -0.842369 
200 1 5.7165 3.05239 5.43796 0.500682 0.382914 -0.582809 
201 1 8.41241 4.71243 3.14282 0.94409 -0.405128 0.128797 
202 1 5.06502 8.9521 9.08979 -0.410948 -0.299294 1.01784 
203 1 4.93293 8.67852 3.34139 0.881238 -0.624659 0.175316 
204 1 4.48004 6.46461 2.4399 -0.0264842 -1.56802 -1.653 
205 1 3.41728 2.89783 9.38554 -0.190063 1.55003 -1.64039 
206 1 6.94134 0.480586 0.762855 0.557532 0.72203 -1.34055 
207 1 7.535 0.556724 8.44068 0.158531 -0.6483 -0.901529 
208 1 2.65651 6.08563 2.44669 -0.531767 -0.871277 -0.820341 
209 1 6.04213 5.42502 8.29165 0.852713 0.892491 -1.64307 
210 1 7.90022 5.92893 6.78372 -0.770534 1.75927 -1.28341 
211 1 5.71544 3.43149 3.79848 1.17248 0.888282 -1.53189 
212 1 5.22906 5.19896 6.82502 -0.130756 -0.305512 -1.38433 
213 1 4.09682 5.88249 4.94233 -1.05678 0.343411 -0.376734 
214 1 1.12134 7.48488 5.60979 0.479068 0.493446 -0.773272 
215 1 0.11504 4.04574 6.70262 -0.027763 1.04693 0.0246791 
216 1 7.23894 0.730452 3.00725 0.155071 -1.25032 0.0906051 
217 1 0.549352 7.45425 6.43735 0.0614472 1.0637 -0.271597 
218 1 7.50288 5.00571 3.42206 0.0384288 0.54642 -0.183909 
219 1 4.57826 3.68673 7.98867 -0.971577 -0.63557 -1.63189 
220 1 3.83248 0.402947 2.96424 0.229009 0.277108 -0.612302 
221 1 7.52364 2.29451 9.14157 0.414215 -0.270656 1.6052 
222 1 7.45129 8.96517 7.75058 1.09981 0.356466 -0.202662 
223 1 5.30792 9.18782 6.59063 -0.157028 -0.606876 0.620184 
224 1 1.88892 3.01775 7.26083 0.111485 -0.370337 0.131913 
225 1 5.82839 3.459 0.132882 -0.0755926 0.665873 -0.353935 
226 1 3.85761 0.818864 7.83919 0.833404 -0.826492 0.44844 
227 1 2.48817 7.77457 5.2541 0.102743 0.290784 -0.701165 
228 1 6.99869 7.53144 5.13174 -0.833299 -0.447029 -0.753941 
229 1 6.27649 3.54198 7.79226 -0.416797 -0.804312 1.02589 
230 1 5.80117 5.18483 4.24135 1.32719 0.339943 -1.11046 
231 1 0.665885 8.68699 2.82648 1.33748 -1.16617 0.775055 
232 1 2.57161 4.5198 5.33186 0.830424 -0.486904 -0.66305 
233 1 6.0993 1.02533 8.61836 -0.555667 0.584269 0.328471 
234 1 7.37446 2.56507 5.85456 -1.33397 0.216718 0.251269 
235 1 6.61419 4.77556 1.97558 0.576118 -1.31557 -0.0906251 
236 1 5.78119 1.94308 1.98595 0.2062 -0.499838 -0.0274232 
237 1 5.04531 1.06992 1.56465 0.511128 -0.61298 0.479057 
238 1 6.90423 2.29116 3.64052 -1.07647 -0.594323 -0.0143152 
239 1 4.99685 0.0719787 2.05724 -0.99467 1.15666 -0.693565 
240 1 0.267514 0.287889 5.88493 -0.0153082 -0.195557 0.39 
241 1 8.64814 3.92063 7.1397 -0.830025 -0.27159 0.409257 
242 1 5.34124 7.32315 8.38316 0.446172 1.97203 1.01339 
243 1 6.5886 3.76823 2.12315 1.12444 -0.437765 0.240047 
244 1 0.350229 4.56993 5.92901 -0.481431 -0.777954 -0.108405 
245 1 2.49395 8.58079 3.46577 0.133065 0.578815 0.201391 
246 1 8.19287 1.45257 6.80993 -0.483585 -0.270177 0.212432 
247 1 5.97502 2.52074 3.74255 -0.0909389 0.494141 -1.44181 
248 1 7.58497 5.62674 8.35728 -1.98943 -1.62638 -0.946062 
249 1 8.20144 1.59819 4.45919 0.206985 -1.07671 -0.815498 
250 1 7.83881 0.481175 5.24926 -0.0936004 0.192356 -0.535523 
251 1 8.57374 8.10861 3.35863 -1.21266 -0.885006 -0.582927 
252 1 6.39007 1.00991 6.47075 0.252718 0.63529 0.358358 
253 1 1.75458 2.78832 4.77121 -0.23494 0.598543 -0.0358917 
254 1 7.25615 1.21771 6.84546 0.600785 0.59054 -0.158232 
255 1 4.22274 0.735289 3.74673 -0.47426 0.132319 0.799942 
256 1 9.26586 2.94798 4.44667 0.01588 0.846071 -0.153964 
257 1 4.67634 4.46942 9.05231 -0.339444 -0.560845 0.31751 
258 1 0.504989 3.36962 1.66657 -0.789231 0.879159 -0.611781 
259 1 6.5035 8.8587 8.02308 0.117521 0.576612 0.640223 
260 1 8.51847 4.05505 2.46238 -1.14093 0.520324 -0.612266 
261 1 7.58442 6.72827 1.44606 -0.356556 -1.41474 1.15273 
262 1 0.961077 0.135136 6.85278 0.965017 -0.0478193 0.218983 
263 1 2.98039 5.17403 2.58774 -1.74358 0.00966638 -0.0458358 
264 1 6.88739 3.64719 4.5615 1.31881 1.31075 0.334497 
265 1 2.54745 0.109078 1.71447 -1.13147 -0.631907 -0.00311517 
266 1 0.244436 5.75042 6.99929 -0.0975391 0.448208 0.324096 
267 1 1.88578 2.08017 3.15248 0.168052 -0.419301 -1.09385 
268 1 2.14623 8.55314 4.74858 0.984009 -1.01708 0.313074 
269 1 4.1917 1.36399 2.99751 -0.241111 -0.820263 -0.47593 
270 1 8.1467 4.7984 7.04655 -0.10188 -0.565501 1.46481 
271 1 2.52982 0.569528 3.80494 0.252521 0.463444 -0.838101 
272 1 0.297544 1.93725 5.16919 -1.11659 -1.17231 1.27378 
273 1 8.54187 2.31813 6.64192 0.276451 -0.694744 0.625228 
274 1 3.90692 4.6803 5.66771 -0.252948 0.583745 0.597983 
275 1 5.89278 4.25433 4.27294 -0.166055 -0.550954 2.2744 
276 1 6.6395 6.62641 3.7844 -0.196403 -0.538317 1.08033 
277 1 3.27747 1.33717 0.729001 -0.205366 0.150115 -0.524661 
278 1 4.99476 2.47748 4.97667 0.103518 1.21996 -0.0199007 
279 1 2.22097 5.41365 4.01 0.404443 0.837352 0.108662 
280 1 6.44643 2.64498 7.49119 -0.852437 -0.414973 -1.42155 
281 1 8.3066 7.04488 2.05713 0.654783 0.137571 -0.135455 
282 1 7.2833 8.7561 2.24835 1.01045 0.0744855 -0.742168 
283 1 7.16927 9.1221 8.70219 -0.223534 -0.752688 -1.37611 
284 1 4.4343 2.33834 3.16307 0.767967 0.755777 -0.507887 
285 1 6.82391 2.21312 8.48739 -0.444924 0.064325 0.22898 
286 1 8.47656 1.24996 5.31875 1.1066 0.218247 0.115835 
287 1 5.14004 4.97546 2.74071 -0.457695 0.168453 -0.257987 
288 1 1.94567 6.14685 5.99877 0.170749 -0.874782 2.05236 
289 1 1.0696 8.46152 4.65704 -0.599331 -2.09325 -0.731274 
290 1 6.08379 6.75467 0.43056 0.462443 0.0181156 0.900014 
291 1 5.72779 4.33303 6.52711 0.473782 -1.02933 0.556562 
292 1 0.0193417 1.08063 5.44216 -0.80447 1.10237 -0.76726 
293 1 7.02678 7.2895 3.19797 -0.0426983 -0.527182 -0.177453 
294 1 7.28232 6.45025 7.41917 1.106 -0.212841 0.474657 
295 1 0.885312 1.42209 3.74453 0.616789 0.468676 0.109938 
296 1 0.420122 6.91649 1.64301 0.251954 -0.248733 -0.0404322 
297 1 3.47983 5.4938 6.68365 -0.558684 0.811567 0.0443357 
298 1 4.95393 7.83161 1.50752 -0.636596 -0.194846 -0.512485 
299 1 5.64738 4.8999 7.58012 -0.284611 1.07088 0.149237 
300 1 4.96138 8.94449 8.03416 -0.737182 -0.65037 -0.967184 
301 1 4.94878 6.27554 3.57381 -0.465341 -0.37583 -0.572038 
302 1 6.4617 7.14004 2.00968 -0.99444 1.12145 0.0275456 
303 1 6.2923 8.52227 2.5686 -1.72087 0.313609 0.0222815 
304 1 6.67349 1.59008 9.2112 0.977358 -0.299757 0.297084 
305 1 0.828427 1.85873 8.85923 -0.77117 0.920849 0.985456 
306 1 7.85617 7.88308 2.16426 1.43609 -0.537934 -0.468602 
307 1 2.11249 0.445918 9.13689 -1.56193 1.8488 -1.18676 
308 1 4.19495 8.32836 1.90036 0.775696 -0.0257426 0.334409 
309 1 4.29059 4.5946 0.541773 -0.781367 -0.102582 0.969329 
310 1 6.46909 5.84082 5.85841 -1.25352 -0.327789 0.260985 
311 1 8.86971 0.653078 7.17898 -1.12386 -0.438452 -0.575114 
312 1 1.97353 6.67346 1.94824 0.987303 -0.254476 0.504435 
313 1 4.68019 3.52996 2.10836 0.485109 -0.750501 0.372366 
314 1 2.54958 3.24344 6.56918 0.678825 -1.3743 0.818616 
315 1 4.02587 5.14468 1.27694 0.0239346 0.966713 -0.772924 
316 1 3.67831 6.81541 1.97766 -0.145337 0.746286 -0.00275564 
317 1 9.15106 6.44534 5.65155 -1.57164 -2.5925 -0.871613 
318 1 6.86371 8.32978 0.766535 0.643687 -0.280841 1.13799 
319 1 4.96074 2.6667 3.9957 -0.270519 -0.61545 0.251671 
320 1 6.94783 0.738344 5.66866 0.44285 0.705186 1.52526 
321 1 2.1436 5.21635 5.84687 0.313203 0.385175 0.164259 
322 1 9.12009 7.96167 6.01708 -0.415811 0.4722 -2.10876 
323 1 1.42728 3.01026 1.77386 -0.35676 -0.0622156 1.84739 
324 1 8.86424 0.148937 3.79256 2.3804 0.806717 -1.21695 
325 1 4.09878 5.50381 0.336839 -0.011511 0.337361 1.60659 
326 1 0.759873 2.25723 0.382983 0.457684 -0.408091 0.718674 
327 1 0.877869 0.365693 0.0928851 -0.508433 -0.460251 -0.0875175 
328 1 7.06928 0.253737 3.86954 -0.80165 -0.998781 0.906158 
329 1 1.81067 1.06831 1.476 -0.742264 1.02164 1.51571 
330 1 6.86719 9.12292 0.212507 -0.276179 0.332912 0.972858 
331 1 0.817011 2.37644 5.8388 0.189847 0.969812 0.44618 
332 1 3.4398 1.76449 5.15884 0.210784 -1.54493 -0.679703 
333 1 0.510977 8.18644 5.5084 0.705328 -1.77917 -0.863185 
334 1 1.96965 0.564755 2.34207 0.537247 -1.9034 -0.434112 
335 1 3.77868 4.7453 9.1394 0.0393616 -0.583771 0.689127 
336 1 5.12145 5.37212 3.63165 -1.26877 -0.273176 -0.0199811 
337 1 2.38958 4.04766 3.67099 0.593203 1.01091 0.369064 
338 1 1.94241 8.80012 1.9995 -0.805476 0.243564 -0.946463 
339 1 2.67537 1.05751 1.88544 -0.0397399 -0.897936 0.149455 
340 1 2.36256 5.45344 4.93819 -0.255812 1.34233 -0.216737 
341 1 1.18296 1.45752 2.86112 0.843632 -0.739475 1.22607 
342 1 1.67319 6.08191 4.41736 0.0772108 1.45508 0.210879 
343 1 1.07105 3.54961 7.17611 -0.395606 0.519849 -0.466078 
344 1 3.64943 7.72811 0.482183 1.70063 -0.760139 -0.733128 
345 1 9.13228 1.40435 4.54441 -0.248502 1.60051 0.135679 
346 1 2.72181 6.29903 7.30161 -1.13068 -1.22626 0.390502 
347 1 7.10915 1.91384 7.58122 2.03218 0.304145 -0.70848 
348 1 7.17462 7.5848 1.53635 0.105429 -0.722012 1.37676 
349 1 7.39396 5.22897 1.65178 0.653823 1.15967 -0.702097 
350 1 6.11054 3.32071 2.862 1.29017 -0.106848 -1.26621 
351 1 4.14072 6.22889 6.46272 -0.00904912 1.20736 0.391936 
352 1 5.04113 5.09442 0.27227 -0.253305 -0.519892 -0.830543 
353 1 3.52086 9.10498 6.20589 1.99339 1.93956 -1.17547 
354 1 5.02208 0.903259 4.26399 -0.196013 0.828996 -0.752957 
355 1 6.57207 8.37526 8.87864 0.199544 -0.870688 0.0944464 
356 1 1.21393 9.28674 5.91398 0.336053 -1.39507 -0.322942 
357 1 3.59756 3.67977 7.88101 -1.2544 -0.367244 0.773952 
358 1 1.26754 6.76677 6.27291 -0.827989 0.303739 1.30091 
359 1 1.76584 3.80918 7.84225 -0.144402 -0.0535694 1.1634 
360 1 4.73879 8.57366 7.14503 -1.12391 0.459868 -1.04188 
361 1 4.75498 8.19953 5.30342 0.445956 0.776259 -0.96952 
362 1 4.78816 6.95422 6.30577 -0.611732 0.851001 -0.424781 
363 1 3.79172 5.63546 5.7999 -0.871089 1.15319 -1.08554 
364 1 2.79598 1.20945 4.44115 -0.0176512 0.634938 0.154399 
365 1 5.47049 6.79652 5.018 0.565211 0.910097 0.871903 
366 1 5.88773 6.55521 8.14835 0.277103 -0.798539 -0.579063 
367 1 1.34948 2.3803 3.90199 0.342866 1.39459 -0.424832 
368 1 2.83467 5.88608 5.72987 0.736747 0.872854 -0.237845 
369 1 5.39875 5.93328 2.72051 -0.115156 -0.225806 -0.359782 
370 1 3.62799 2.86228 2.92751 0.216205 -0.212317 1.04095 
371 1 9.22371 6.93107 2.42119 -0.0584218 0.117788 0.126016 
372 1 5.63874 3.57433 1.06865 -0.936082 -1.55512 0.0964544 
373 1 4.74003 0.48859 6.13158 -0.110245 0.0580867 -0.305607 
374 1 1.43522 6.95416 3.23305 -1.0038 -0.0387496 0.730859 
375 1 8.7327 3.3459 5.16871 0.566217 -0.833456 0.689093 
376 1 3.81729 8.15141 6.19815 -0.0332082 -1.08823 1.39679 
377 1 2.81166 2.39126 2.98518 -1.36933 0.396526 0.649687 
378 1 7.47994 5.9518 3.89752 1.60275 0.465229 0.39811 
379 1 0.427991 3.57858 3.18531 0.614858 0.35066 1.37079 
380 1 4.5207 0.416529 9.21779 -0.924742 -1.32861 -1.16187 
381 1 8.76112 0.909702 6.20772 -0.460303 1.29113 0.0974267 
382 1 2.50362 1.85562 7.74529 -2.06936 0.608815 0.150939 
383 1 4.92107 0.938974 2.4664 -1.53327 -0.728962 1.09658 
384 1 2.50827 0.10482 7.26168 0.282676 0.0639386 -0.838892 
385 1 9.13113 1.56894 6.80022 1.36185 0.470175 0.555251 
386 1 3.13285 9.30693 3.41099 0.777751 -0.0772445 0.730843 
387 1 0.693618 4.87252 2.09924 0.0819567 0.536095 -0.00719765 
388 1 7.75097 1.18373 7.6648 0.267902 -1.12598 -0.865588 
389 1 0.912319 4.40695 2.92394 0.443008 -1.47193 0.809486 
390 1 2.21666 1.90685 4.76257 1.76219 0.608467 -0.360401 
391 1 0.627439 2.40327 1.63199 -0.225426 0.761147 0.118065 
392 1 6.17926 1.82653 7.92451 0.62415 0.378781 -1.40813 
393 1 8.23138 2.75882 2.71346 -1.20256 -0.307488 -0.586342 
394 1 7.33877 4.20149 1.68552 0.436715 0.870382 0.831414 
395 1 8.58481 7.19354 5.53169 1.03869 0.453015 1.20471 
396 1 7.8221 4.71153 8.00187 0.856932 0.389268 -0.259598 
397 1 6.8858 2.84757 2.58164 -0.55013 0.475195 0.611359 
398 1 3.97282 3.87841 3.50824 0.412659 -0.605667 1.47677 
399 1 2.53673 7.84893 4.17734 -0.2368 -0.874314 -0.356902 
400 1 7.08182 7.16605 0.657562 -0.422783 0.691998 -1.1519 
401 1 0.563339 9.08237 5.20361 -0.473285 0.2581 1.23599 
402 1 1.64823 7.70629 4.80022 -0.500511 -1.04834 -0.440851 
403 1 6.20915 4.53302 5.68834 -1.5815 -1.09594 -0.720581 
404 1 8.85769 5.78999 2.46082 -0.146142 -0.847697 1.74111 
405 1 5.89889 5.86106 6.62568 -0.727258 -0.0113691 1.29048 
406 1 8.51298 7.22988 4.08921 -0.55825 -1.66674 0.38812 
407 1 2.87847 6.40388 1.58579 0.53538 0.880015 -0.874031 
408 1 4.30754 9.32697 6.74864 -0.0140647 -1.56021 -0.535061 
409 1 4.93857 5.46936 4.58944 -0.155692 -0.874839 1.22446 
410 1 1.7936 4.99948 6.70287 -0.324773 -1.51869 -1.15674 
411 1 3.49179 1.04652 2.37863 0.298126 -0.794906 -0.131716 
412 1 0.478548 7.11066 3.25015 0.629542 0.753377 -0.965169 
413 1 4.55119 7.42411 0.730455 -0.543567 0.126912 0.747792 
414 1 9.10143 7.47459 4.81324 -0.919871 -1.09159 -0.274644 
415 1 3.02211 7.74594 3.23201 -1.08839 -2.23682 1.14353 
416 1 8.13271 8.97906 5.30876 -0.596387 0.0163109 0.527911 
417 1 8.02805 4.40154 3.97155 0.628427 -2.17793 -0.940631 
418 1 0.0798663 2.45449 6.45386 -0.0992768 0.719552 -0.297291 
419 1 3.6034 2.0338 3.53549 -0.81707 -0.917562 0.564655 
420 1 0.349931 6.47024 6.38023 0.406656 0.568863 0.395565 
421 1 8.61771 3.76899 4.35564 -0.0471809 1.38307 0.12205 
422 1 5.14454 4.12789 0.425211 0.324632 -0.638886 -2.79465 
423 1 1.20189 9.07704 3.52561 -0.68454 -0.457056 -0.761744 
424 1 5.19929 2.42651 5.94275 -0.432761 0.63197 -0.343444 
425 1 1.21176 8.20245 2.16583 0.0904148 -0.769689 0.252224 
426 1 2.15736 5.33933 7.50409 1.82706 -1.67916 -0.188091 
427 1 8.91483 6.39325 1.6999 -0.291201 1.23639 0.513738 
428 1 2.34685 4.04261 8.61174 -0.496869 0.72554 -0.2879 
429 1 8.23714 1.10264 0.399408 0.67625 0.0803664 -0.271274 
430 1 2.07738 4.03034 6.94537 1.13618 0.664668 -0.0416009 
431 1 0.756336 8.9395 1.79374 0.0052348 0.722155 -0.213033 
432 1 6.26926 9.10004 0.975839 -2.18017 0.916843 -0.0106709 
433 1 7.77206 9.02414 0.64037 0.125382 -0.351387 -1.00318 
434 1 8.44909 4.28293 5.28167 0.844161 0.998779 -0.240065 
435 1 1.4984 0.161794 1.58289 0.0459984 0.318723 1.09556 
436 1 6.9872 5.04285 5.63839 -0.116421 -0.942811 0.170534 
437 1 2.87117 7.0805 4.69873 0.460901 1.67769 -0.677019 
438 1 9.03454 3.27454 2.70714 -0.24516 0.0767402 -0.964909 
439 1 7.6426 3.4642 2.32722 0.938731 -0.533598 0.800545 
440 1 2.42984 0.376762 4.82927 0.100735 -0.306528 -0.00826881 
441 1 7.35219 0.440619 2.05025 0.724769 0.769427 -0.9301 
442 1 1.7612 7.49953 2.46359 0.865796 -0.813478 0.905126 
443 1 5.92688 5.98271 3.51885 -0.968619 0.242836 0.8067 
444 1 7.42825 8.77164 6.50313 0.11122 -0.332288 -1.06728 
445 1 3.82308 6.17848 8.8793 -0.925099 -1.37624 -0.487409 
446 1 1.07807 0.821994 6.17996 -0.203104 -0.21885 -1.46297 
447 1 9.34068 2.47914 0.950126 0.872331 -1.1068 0.658042 
448 1 2.99339 8.44712 5.72924 0.868649 0.0642419 -0.722334 
449 1 0.163891 3.86783 4.13326 -0.297882 1.16529 -0.0650277 
450 1 4.0166 7.94471 4.69902 -0.0884994 -1.26331 0.681142 
451 1 5.76403 1.1418 4.79911 -1.52232 -0.375319 -0.249548 
452 1 2.016 1.07205 3.16878 1.33935 0.0106871 0.135912 
453 1 3.21403 6.39948 6.45376 1.00891 0.371208 -1.13267 
454 1 4.86156 2.85259 8.3861 -0.729693 -0.0794914 0.13074 
455 1 3.09568 3.43978 8.68953 -0.83076 0.594296 0.277061 
456 1 8.97481 1.86882 5.87711 -1.44198 -1.90102 0.426031 
457 1 0.761697 4.91866 3.70502 -0.269229 1.08878 -0.740887 
458 1 0.173611 4.02185 2.36886 0.240753 0.881314 0.227835 
459 1 7.80915 2.27562 5.06132 -1.16793 -0.997769 0.0271844 
460 1 3.91759 0.597308 0.524812 -0.399513 0.742438 -1.37385 
461 1 5.68567 1.29305 0.0400074 0.858116 1.50517 -0.107276 
462 1 5.62783 1.0201 7.77489 2.20293 0.101715 0.714568 
463 1 4.87044 5.30719 7.94145 0.635099 -0.72618 0.340766 
464 1 5.00155 3.14292 0.518485 1.24794 0.65545 0.18448 
465 1 3.75325 0.643271 6.30517 -0.109422 1.7816 0.761981 
466 1 4.83866 8.16705 8.57508 0.172161 -0.620851 -0.323718 
467 1 1.68472 4.74073 3.56617 0.878655 -1.69632 0.146307 
468 1 6.5857 0.0246799 2.52319 0.180835 -0.356986 -0.529144 
469 1 3.05569 2.51897 8.25525 0.179292 -0.0725945 -1.65966 
470 1 6.67972 1.60911 3.02714 -0.0401659 -1.55418 -1.96527 
471 1 1.60369 1.27406 9.00614 0.489999 -0.257643 0.661505 
472 1 3.12285 3.2835 0.797788 -1.35407 1.10946 -2.09352 
473 1 3.48807 3.07425 4.6291 -0.240048 0.121699 1.40815 
474 1 4.20713 9.07209 2.47446 0.822508 0.3434 -0.380543 
475 1 6.99494 1.14973 1.45599 -0.444308 0.933005 0.0177711 
476 1 4.80639 2.21053 0.593664 0.0956462 -0.78205 0.0719164 
477 1 6.44293 5.84436 0.495898 0.904063 -0.949549 0.0362935 
478 1 6.06878 4.32994 0.502591 0.836042 1.19422 -0.0724579 
479 1 3.21376 1.35123 6.00468 0.69397 -0.4817 -0.144833 
480 1 4.42203 5.40433 8.82252 0.0501394 1.18039 0.139869 
481 1 2.67858 2.03907 2.00419 0.421225 1.24287 -0.583278 
482 1 5.53957 1.79723 7.21038 -0.632204 -1.90299 1.63408 
483 1 4.50563 1.69515 3.86493 1.02936 1.48042 0.370196 
484 1 7.37336 6.75942 6.50014 1.30283 0.861411 0.622263 
485 1 3.18429 2.34331 1.02609 0.081963 -0.92129 0.991742 
486 1 6.99096 7.55231 4.15737 0.801369 -0.176095 1.41119 
487 1 3.22481 3.8336 4.12092 -0.672132 -0.218512 1.40018 
488 1 1.68518 1.04374 4.81214 -0.730056 0.150822 1.37163 
489 1 5.72285 1.69903 6.28625 -0.672039 -0.034175 0.0603716 
490 1 7.51939 2.08048 2.91293 -0.14032 -0.36321 -0.477 
491 1 5.39428 9.20731 0.551423 -0.426668 0.677761 -0.0648081 
492 1 5.26636 2.05674 8.08945 1.0169 -0.669423 -0.624747 
493 1 4.63578 6.86582 1.52828 0.372127 0.101421 0.808813 
494 1 4.07004 2.22772 1.36026 -0.879436 0.190273 0.282833 
495 1 0.521391 0.940006 8.77379 -0.349868 0.537761 0.344991 
496 1 5.34302 1.85487 4.35018 0.259615 0.779114 0.327803 
497 1 7.49058 1.38167 2.23418 0.761821 -0.0796172 0.563068 
498 1 5.31237 1.96274 3.39846 -0.425745 -1.37181 0.0519602 
499 1 0.194238 1.03494 1.85496 -0.127163 1.59897 0.124594 
500 1 0.926382 6.43959 7.14428 0.184807 0.320208 -0.553021 
501 1 5.68621 0.157261 8.16482 0.255627 0.265951 -0.147591 
502 1 3.22758 6.22574 4.96345 -1.13037 0.7799 1.03671 
503 1 2.62728 9.04071 2.60229 -0.322422 0.609739 -0.983429 
504 1 9.02542 5.40615 3.37653 -1.57264 -0.0615578 -1.08877 
505 1 0.108831 9.27438 0.523972 0.232548 0.760273 0.367171 
506 1 7.7795 0.964927 6.07129 0.256712 -2.06013 0.649554 
507 1 3.90718 2.95241 8.42657 0.272958 0.312561 -0.370175 
508 1 8.65674 1.13194 3.70643 -0.824451 -0.12534 -1.35265 