ITEM: TIMESTEP
1659
ITEM: NUMBER OF ATOMS
1000
ITEM: BOX BOUNDS pp pp pp
0.0000000000000000e+00 9.4000000000000004e+00
0.0000000000000000e+00 9.4000000000000004e+00
0.0000000000000000e+00 9.4000000000000004e+00
ITEM: ATOMS id type x y z vx vy vz 
1 1 8.42539 5.97875 5.58729 -0.268276 1.26634 1.39387 
2 1 7.54501 4.05869 0.090421 -0.965784 -0.00309343 -0.349235 
3 1 3.26522 5.34885 1.17092 0.258027 -0.00658839 -0.786972 
4 1 0.28294 6.95648 5.02913 -0.553168 0.602504 0.672194 
5 1 4.14077 0.277818 6.61354 0.890137 0.00497535 0.253777 
6 1 2.5578 0.649619 6.29122 0.673745 -0.656136 -0.142607 
7 1 1.02462 0.659121 7.15013 -0.520764 -0.517856 -0.948075 
8 1 2.22088 1.68238 7.33812 -1.16622 -0.456927 1.87995 
9 1 1.21928 0.0338717 3.7554 0.80465 -1.05872 -1.79664 
10 1 2.80964 6.67334 4.96954 -0.349654 -1.35094 -1.10233 
11 1 8.6531 3.90145 2.24283 0.565272 0.0711923 -0.0542228 
12 1 6.08677 0.830169 9.19683 -0.811373 0.791376 -0.115827 
13 1 8.81942 8.88201 8.84513 -0.314251 -0.214322 -1.00959 
14 1 8.89329 3.95813 4.02533 0.11789 -0.0901719 1.03008 
15 1 1.66954 3.62832 0.605847 -0.439692 -0.0865926 -0.924234 
16 1 2.61381 2.49833 7.66055 -0.713744 0.373213 -0.525286 
17 1 7.4552 3.93778 8.51589 1.06065 -0.619138 0.0664469 
18 1 5.55086 4.33048 7.95014 0.473529 0.37402 1.13389 
19 1 5.68445 8.4993 1.62327 -0.512975 0.323445 1.07758 
20 1 1.71235 3.14516 6.62341 -0.930841 -0.622113 -0.0242339 
21 1 9.13555 7.63956 4.69686 0.263877 -0.0263152 0.91073 
22 1 8.18225 0.355071 4.61746 0.535065 0.441818 -0.45413 
23 1 9.17965 2.13899 7.48543 -0.673899 0.168424 -1.9558 
24 1 0.52376 9.05923 4.30816 0.314153 -0.707224 -0.788873 
25 1 8.61595 7.49571 7.46753 -0.0297426 0.237679 0.2263 
26 1 8.39838 7.97381 8.97545 0.249429 1.93662 0.827099 
27 1 6.59755 0.0453219 9.13346 0.147817 -0.270526 0.811936 
28 1 5.33534 7.63046 7.91298 0.275239 0.242263 0.349318 
29 1 5.55393 6.8737 1.71529 0.154622 0.521747 0.759153 
30 1 3.54432 5.48897 9.03178 -0.0869514 1.71435 0.831143 
31 1 8.1282 0.0758731 9.03429 0.404586 -0.918802 -0.256724 
32 1 2.09162 7.34509 8.90402 0.164406 0.143117 0.594012 
33 1 8.04679 3.59427 1.57959 -0.319951 -0.800094 -0.529412 
34 1 5.73347 6.2903 3.2229 -0.249788 -2.34125 0.0230442 
35 1 0.0973038 0.213869 2.55525 -0.181619 -0.301696 0.0462522 
36 1 4.20886 3.02606 3.91341 0.535005 -1.50294 0.323662 
37 1 0.239386 4.68202 5.4819 -0.302356 -0.9429 0.149851 
38 1 3.78307 5.16209 5.14477 -0.648612 -0.380974 0.105109 
39 1 1.28874 7.90957 5.654 -0.836435 -1.18421 0.385121 
40 1 8.94224 3.12529 4.82512 -0.219842 -0.431618 -0.631839 
41 1 4.42343 8.02774 1.82791 -0.673032 1.01318 0.658456 
42 1 8.28255 2.34229 8.86805 -1.74352 1.15137 -1.13143 
43 1 7.17776 6.34388 7.92187 -0.735924 -0.864634 -0.135049 
44 1 1.72073 9.37611 2.9441 0.534312 0.415974 0.649756 
45 1 8.16546 4.48081 2.7958 0.696813 -0.221394 0.171001 
46 1 2.62 2.01467 8.49623 0.281283 0.754995 1.61902 
47 1 0.125655 2.92586 6.3421 0.411358 0.0382822 -0.333519 
48 1 6.63451 3.47799 3.35376 1.04451 -0.715405 -0.0433197 
49 1 2.77536 3.83425 8.54582 0.117007 -1.68428 -0.317189 
50 1 6.50657 4.28627 2.79782 1.44882 0.652242 1.3294 
51 1 7.23312 6.68539 6.02994 0.0776452 -0.415971 -0.755463 
52 1 0.682519 3.00814 3.69544 -0.074373 -0.264778 -0.36393 
53 1 9.37271 2.20127 2.15993 1.07554 0.561839 0.177739 
54 1 6.79584 9.31453 6.69774 0.266143 -0.514686 0.331966 
55 1 7.81346 2.40178 0.528484 -0.707175 -1.14763 -1.3694 
56 1 1.36187 1.40049 1.62592 0.57383 -0.176597 -0.86316 
57 1 9.24404 0.194327 5.95471 0.340697 -0.21397 1.16195 
58 1 5.60303 6.58762 8.32496 -0.462084 -0.404372 1.47216 
59 1 0.648427 4.2176 2.51716 -0.959976 -0.970082 -0.542091 
60 1 6.54084 8.73356 0.351957 -0.0596485 0.132911 -0.616331 
61 1 6.73564 1.1867 0.396547 -0.806017 -0.114196 -0.149975 
62 1 2.16214 1.72698 3.2073 0.398914 1.63137 -2.17595 
63 1 0.222964 9.06988 9.36869 0.224681 -0.255534 -0.0330332 
64 1 1.31304 0.409533 8.30766 1.61492 -0.537128 -1.09475 
65 1 6.3699 4.86544 7.80376 0.0201455 -0.679054 0.257703 
66 1 4.65713 7.25289 9.39102 -1.17445 -0.597035 0.364569 
67 1 1.30423 8.77941 1.24662 0.311294 -0.758721 -0.371422 
68 1 4.8841 7.81159 4.36048 0.307203 0.943981 -0.197331 
69 1 6.77462 4.73403 6.89756 0.442311 -1.00851 0.930355 
70 1 6.28423 6.89862 6.92026 0.680137 -1.4519 -0.81027 
71 1 7.26133 4.97038 0.269359 0.341831 0.407714 0.453749 
72 1 5.00139 0.919873 4.28024 0.600435 -0.641052 -0.890649 
73 1 5.21032 0.19741 2.50425 0.895078 -0.43731 0.715297 
74 1 1.04155 7.58562 3.63454 -0.0198109 1.33191 -0.0532181 
75 1 0.939093 0.669749 2.90531 0.103597 0.144897 -0.604189 
76 1 7.35834 8.49854 6.70564 0.142228 0.972174 0.895282 
77 1 6.45061 4.07852 8.36296 0.378294 0.297834 -0.883308 
78 1 5.44641 6.81913 7.42908 1.18054 0.960188 -0.868073 
79 1 4.43898 6.23777 4.59218 -0.327928 0.545511 -1.36003 
80 1 8.25661 7.01092 3.31792 -1.10705 1.1322 1.20929 
81 1 3.28359 3.0859 8.7797 0.820198 -0.292901 0.249295 
82 1 5.51402 8.45966 6.40621 -1.15295 1.23931 0.870065 
83 1 7.28206 8.83909 1.04573 -0.673096 -0.691095 -0.664135 
84 1 1.70261 0.776255 5.82727 0.828217 -0.258338 1.83377 
85 1 1.61712 5.25394 3.65206 1.14786 1.56809 0.787641 
86 1 7.10236 0.110012 7.61355 0.162806 -0.553116 0.37966 
87 1 6.03819 9.22522 2.15638 -0.927501 0.257012 -0.234145 
88 1 1.6447 9.04924 4.57242 0.691346 -0.0729626 -0.40689 
89 1 0.818076 9.0868 2.89244 -0.596121 -0.185951 -1.03427 
90 1 7.64957 7.18015 2.55576 -1.42957 0.90659 0.152805 
91 1 4.53488 7.45507 5.2199 -1.51685 1.123 0.925392 
92 1 1.0822 0.358853 1.19561 -0.112688 1.16556 0.0834699 
93 1 3.51834 9.3059 0.789368 -0.58294 0.504454 0.843536 
94 1 4.65342 9.12821 8.00905 -0.191602 0.616957 -0.417879 
95 1 2.66224 2.52699 9.3349 -0.477865 0.249076 -1.0633 
96 1 8.56584 6.14638 3.56744 0.13929 1.05224 -0.121216 
97 1 2.99345 7.35757 9.35603 0.533136 0.673799 -0.525993 
98 1 0.64433 7.82073 4.49769 0.83479 1.10978 0.0177239 
99 1 2.35949 8.41253 4.4632 -0.600214 -0.00126078 0.063519 
100 1 4.07273 8.14041 4.72828 0.639139 0.181903 -1.01788 
101 1 2.89818 1.44954 9.23923 0.656897 0.449737 -0.333627 
102 1 1.88185 6.44765 4.86205 0.111845 -0.650844 0.41332 
103 1 2.08252 5.3911 2.72493 1.31449 0.542475 0.918245 
104 1 7.72453 4.5039 5.34661 -0.343747 0.509729 -0.0237509 
105 1 7.55591 3.21751 3.52344 1.5072 -0.627163 -0.882288 
106 1 0.423244 4.83544 3.50412 -0.402356 0.229913 0.369982 
107 1 3.44168 5.28739 8.10028 0.729054 0.59938 0.242928 
108 1 0.870438 6.70714 3.21654 -1.00524 -0.866986 -0.809446 
109 1 3.35559 0.102432 7.25628 0.456201 0.902795 1.26909 
110 1 1.73498 3.01134 2.40803 2.019 0.959087 0.125089 
111 1 0.0780521 1.45906 4.34352 -0.234685 0.138324 0.246578 
112 1 3.71459 6.94765 6.08415 0.302369 -1.13456 -0.543592 
113 1 2.55294 5.01849 3.66894 -1.2023 -1.26912 0.0550595 
114 1 4.82223 8.62439 1.19516 1.22606 -1.06045 -0.187575 
115 1 8.92386 6.8306 4.15323 -0.825047 -0.241156 0.000832068 
116 1 1.62124 0.113737 6.53377 0.0798333 -1.26064 1.1471 
117 1 8.50676 3.08409 0.722488 1.3503 -0.75808 -1.4691 
118 1 1.09737 3.3502 7.48437 0.845363 -0.295306 0.655525 
119 1 6.54772 0.965473 3.29077 1.1862 -1.21022 1.42862 
120 1 4.98581 5.91513 8.59653 1.19275 0.572897 -0.607232 
121 1 4.4632 5.41847 9.19235 0.809782 0.145177 -0.822604 
122 1 2.66923 3.08643 0.725613 -0.580608 -0.651886 0.483376 
123 1 4.67152 6.45403 1.67923 -0.0692972 0.287699 -0.724177 
124 1 3.95831 1.62459 6.3827 0.0818094 -0.0967961 -0.485091 
125 1 2.93127 1.97553 2.66674 -0.244622 -0.488744 0.465208 
126 1 4.60181 7.75605 8.58438 -0.0715592 0.0418625 0.757929 
127 1 8.35553 3.8146 5.86081 -0.783548 -0.43609 0.832663 
128 1 5.51095 0.195524 4.71416 -0.0157085 -0.506732 -1.22959 
129 1 8.77552 6.79689 5.13933 1.28442 -1.51875 -0.821286 
130 1 7.02428 8.00571 8.02546 0.0618967 -0.448317 0.330935 
131 1 6.64442 3.38369 4.32769 -0.173534 -1.17443 0.312774 
132 1 7.26523 4.79603 2.46038 -1.22691 -0.269668 -0.781527 
133 1 9.17604 8.95138 3.2611 1.02307 0.681651 -0.426997 
134 1 1.50809 8.206 7.90827 -0.576244 -1.74984 0.363885 
135 1 7.81066 6.40586 1.89181 0.0493992 0.792193 -0.0786166 
136 1 3.04204 4.38095 3.15199 0.375502 0.727146 1.53854 
137 1 7.02783 7.22388 7.45098 -0.54868 0.938919 0.940362 
138 1 3.39096 0.762038 7.90713 1.21067 0.148679 0.025645 
139 1 3.8594 0.717124 1.73939 -0.861917 0.259774 -0.350634 
140 1 3.94 8.20864 3.39634 0.374384 -0.0621791 -0.185902 
141 1 3.80958 1.47687 0.20843 0.4227 -1.34755 1.42755 
142 1 7.28954 6.48238 1.06607 -0.804527 -1.30094 -0.217347 
143 1 0.308626 1.32904 3.33513 -0.660211 0.345841 -0.41816 
144 1 6.97792 5.5343 7.42703 -0.0595658 0.361541 -0.907426 
145 1 8.47641 7.65033 6.53019 -0.214772 0.601848 -0.997472 
146 1 2.778 8.95204 5.10121 -0.0356056 0.453445 -0.0635726 
147 1 6.43692 8.43071 6.51852 0.339158 0.0361473 0.649125 
148 1 2.82913 0.710148 4.6543 -0.945955 -1.03349 0.319082 
149 1 2.25874 3.38661 9.29731 0.0736857 0.604438 0.846635 
150 1 1.04954 3.41017 1.87038 0.81977 -0.177395 0.0332542 
151 1 6.71357 0.370633 2.55846 0.00491151 -0.593904 0.934292 
152 1 1.55622 2.13505 6.49319 0.135072 -0.0792649 1.47143 
153 1 8.45822 6.09584 4.58128 -0.40459 0.0557851 0.967487 
154 1 0.0357101 6.15765 4.60112 0.606444 1.68034 -0.260439 
155 1 4.75053 0.637394 8.34984 -0.119912 -0.494795 -1.48386 
156 1 5.25156 8.6677 4.55735 0.138142 -0.70317 0.491343 
157 1 3.2827 2.28032 6.12703 1.09764 1.2314 0.625037 
158 1 0.351153 4.12698 9.15534 -0.952221 0.554283 -0.213625 
159 1 5.69813 0.936198 2.86076 0.642511 0.884339 0.410486 
160 1 0.98241 8.58373 5.05758 1.55374 -0.525677 -0.55952 
161 1 0.95413 6.29661 4.80651 0.138754 0.758058 -1.47532 
162 1 2.39681 4.9675 1.33512 1.19172 -0.30281 -0.603347 
163 1 8.69825 7.24549 8.39585 -0.195158 -0.618499 0.353722 
164 1 8.45857 3.95202 9.10999 -1.09954 0.487242 0.868732 
165 1 5.6576 4.5374 2.41107 -1.18824 0.356641 -1.61447 
166 1 7.78988 7.27236 0.621445 0.483615 -0.609107 -0.67277 
167 1 4.50085 5.5659 1.35095 0.545937 0.842553 -0.0666985 
168 1 0.48443 0.513988 0.362035 -0.880046 0.300132 -1.49551 
169 1 9.15051 8.12651 8.35642 0.388511 1.30077 -0.593569 
170 1 3.54373 8.76236 4.18574 0.944127 0.914387 0.0776006 
171 1 3.50103 2.194 9.0667 0.642515 -0.0481238 -0.2823 
172 1 3.35643 6.78969 4.21306 -0.0190002 -0.444111 -0.251999 
173 1 9.19476 2.11666 6.04955 -0.572395 0.327144 -0.126491 
174 1 7.3994 8.90732 9.36764 -0.113997 -0.301744 0.690141 
175 1 5.0431 2.31097 8.8454 -1.74643 -0.210941 0.895957 
176 1 0.673905 9.1272 1.92039 -0.989368 -1.71979 1.29853 
177 1 0.42056 4.03434 4.07043 0.223826 1.99515 0.671748 
178 1 3.21309 2.96336 2.57474 0.928539 0.617205 -0.879342 
179 1 0.203002 2.77774 5.41287 -1.27529 -0.522052 1.52141 
180 1 8.67668 4.61006 5.46416 0.910757 0.74414 -1.19792 
181 1 6.04926 7.00503 2.51924 0.38882 -1.3293 -0.160128 
182 1 6.06806 1.81461 3.06346 -0.710324 0.0876286 -1.18864 
183 1 1.36397 1.96837 0.84518 0.0708098 -0.497596 -0.130028 
184 1 9.20941 8.16969 7.23871 1.12473 0.356583 0.949601 
185 1 7.10834 8.95669 5.07786 0.468623 -1.23574 0.6212 
186 1 0.204058 1.93705 0.609492 -0.483143 -0.0263715 0.868287 
187 1 5.09879 6.82183 0.818045 -0.462191 1.06659 -0.615559 
188 1 2.79375 4.24153 4.15124 -0.135301 -0.901971 -0.353512 
189 1 6.48332 0.324329 5.04086 0.393947 -0.902302 -0.663298 
190 1 2.37907 8.21116 6.79811 0.265556 -0.0584262 0.690204 
191 1 7.91312 3.1656 9.32575 -1.24562 1.58836 -0.0441274 
192 1 2.47938 2.33971 6.72837 -0.223592 -1.03787 -0.688722 
193 1 6.27026 7.5043 1.71843 0.627999 -0.569583 -0.443884 
194 1 8.90038 0.939077 7.5122 0.0972706 -1.17758 0.386983 
195 1 1.36942 9.31035 5.57153 0.949069 0.868318 -0.903862 
196 1 2.18555 1.56141 6.15124 -0.655091 -0.680887 -0.0824756 
197 1 3.47704 0.859442 6.12986 0.596192 0.618127 0.263514 
198 1 8.55619 8.40601 4.72322 -0.733146 -0.257268 -0.102721 
199 1 1.57362 8.35338 0.402546 0.0721787 1.04121 -0.630939 
200 1 4.0406 2.72668 5.5955 0.326485 -0.702936 -1.03673 
201 1 3.7091 6.04464 1.63643 -0.850729 0.158645 -0.189682 
202 1 1.07924 4.10948 3.3672 -0.110119 -1.43495 -0.305806 
203 1 8.71799 2.63873 6.75747 -0.0126542 -0.331025 -0.968857 
204 1 4.39725 0.916407 5.89275 -0.112557 0.620223 1.61944 
205 1 1.20202 1.60655 9.38002 -0.356855 1.14825 1.14411 
206 1 3.32335 2.78708 3.54379 -0.366977 -0.700543 0.939941 
207 1 7.07276 5.17676 4.97115 0.440973 -0.0559402 -0.572901 
208 1 8.34046 0.853288 8.52583 -0.336433 0.201098 -0.5977 
209 1 0.618272 0.792908 1.9318 1.27265 0.565173 1.60509 
210 1 2.70716 4.46103 5.12453 0.158383 -1.37207 1.42004 
211 1 0.36101 5.14015 2.4991 1.26551 0.393072 -0.625328 
212 1 7.37972 8.31745 2.58756 0.575578 0.930213 -0.263673 
213 1 2.56848 1.11517 8.17604 0.592885 0.51873 -0.858638 
214 1 3.37154 2.63776 7.06814 0.366136 -0.152467 -0.175956 
215 1 9.05877 5.4726 4.07777 1.68271 0.209365 -0.358252 
216 1 3.45056 3.63991 0.959624 1.71671 1.07515 1.06632 
217 1 4.61411 6.6559 6.86876 1.00465 0.308152 -0.920252 
218 1 1.44661 4.1203 1.3861 -0.16991 -0.754415 -0.568746 
219 1 8.36484 1.572 0.883055 -0.581843 0.462598 0.412856 
220 1 1.83472 3.75064 8.50502 -1.64795 0.178259 -0.59745 
221 1 4.73096 1.30212 0.159049 0.0380376 -0.064076 0.90409 
222 1 9.22738 2.13638 3.63119 0.327683 -0.786402 0.738476 
223 1 0.7605 0.36548 6.18229 0.824947 1.18205 0.484218 
224 1 4.44631 5.49528 7.00142 -0.721362 -0.673942 1.02079 
225 1 8.5283 2.34096 4.28437 -1.57443 -0.675275 -0.688243 
226 1 3.99812 7.97278 9.35102 0.735109 1.00187 -0.0130043 
227 1 3.03272 0.331583 5.50907 -0.422161 -0.311939 0.911523 
228 1 4.17809 5.89144 5.59167 -1.05346 -0.387025 0.734924 
229 1 3.6718 9.23237 9.18897 0.489407 0.0615122 -0.306091 
230 1 4.82748 3.75102 7.5381 -0.0113673 -0.111888 0.702875 
231 1 1.13546 4.68124 4.24576 -1.47879 1.20156 0.666022 
232 1 4.49023 8.65879 4.00723 -0.588216 -0.0967005 -1.26411 
233 1 3.085 3.80158 0.0940254 0.896498 0.492657 -0.545115 
234 1 0.696629 8.23061 6.83902 -0.16497 -0.553167 -0.54952 
235 1 5.82539 5.87104 6.28516 0.624493 -1.11318 0.891551 
236 1 2.40398 2.69997 3.05421 -1.16571 -0.502305 -1.96366 
237 1 7.4801 3.60196 5.44795 -0.648207 0.70302 0.691943 
238 1 5.98852 7.54512 6.29565 -1.46607 0.773278 0.287165 
239 1 7.84851 2.0063 4.91897 -0.42893 0.993682 -0.472995 
240 1 3.09988 2.00721 0.607717 -0.598627 -0.0876878 1.066 
241 1 0.775247 1.61236 2.3795 -0.94672 -0.783553 0.298628 
242 1 8.3993 2.70175 3.35372 -0.534494 1.05449 -0.0655387 
243 1 0.789729 0.9526 5.46558 1.3176 -0.659388 1.90617 
244 1 5.26593 2.95914 7.27687 -0.291713 0.167863 0.559508 
245 1 5.17631 1.4635 1.25503 -1.01465 -0.494944 0.528829 
246 1 9.16783 5.46847 3.14288 -0.163731 0.263037 0.677265 
247 1 5.05565 6.16624 5.32886 -0.764906 -0.546248 1.32387 
248 1 5.58582 4.01565 8.84557 1.08928 -0.188799 -0.438794 
249 1 4.32499 7.51351 6.49143 -1.02458 -0.0873961 0.138123 
250 1 5.9106 5.59025 3.87951 -1.65984 0.515982 0.570588 
251 1 1.81896 3.63677 5.76147 -0.208802 0.731358 0.403276 
252 1 1.38364 0.587952 9.28538 0.344445 0.403197 0.303037 
253 1 3.17242 8.05585 2.83618 -0.88902 -1.39966 0.445444 
254 1 8.20538 7.48293 4.82892 -0.559947 -0.832616 -0.304693 
255 1 4.86474 5.94354 6.25154 -0.439602 -1.47193 1.02738 
256 1 8.73724 6.06197 2.53305 1.10204 -0.103151 -0.598549 
257 1 4.31888 1.68415 8.79229 -1.12402 1.71696 0.72554 
258 1 1.93993 6.09613 1.93528 0.24631 -0.331198 -0.496955 
259 1 2.81449 3.74495 5.75996 0.707599 2.12574 -0.882985 
260 1 2.00784 0.688776 1.53829 0.255076 0.269655 -1.19488 
261 1 0.849137 2.57745 2.22778 -0.805598 0.982324 0.874951 
262 1 2.70515 9.26152 4.21367 0.734855 0.643015 -0.684907 
263 1 5.23181 7.57617 6.92499 -0.456654 -0.0485827 -0.150088 
264 1 1.1552 5.63305 2.26209 0.112993 1.08262 0.449507 
265 1 2.25032 1.65316 1.93947 0.177677 1.80422 1.11618 
266 1 4.42736 5.06103 6.07322 2.29009 1.07812 0.263624 
267 1 1.55494 3.96729 2.43049 0.0714452 0.18052 0.181605 
268 1 7.37716 0.655865 9.26291 1.53784 0.0183701 0.851786 
269 1 1.79051 3.4658 3.28566 0.194085 -0.948284 1.17041 
270 1 4.7045 4.02541 8.43977 -2.8543 -1.3831 -1.51558 
271 1 4.70139 5.34247 4.96796 2.36021 0.104858 -0.877915 
272 1 1.22903 1.57297 3.2339 -0.000331449 -0.484682 -0.505341 
273 1 7.18688 8.01934 1.72572 -1.03095 -1.67712 -0.605385 
274 1 5.32034 1.37564 8.77819 0.826485 -0.677084 -0.966442 
275 1 9.08673 8.5224 0.820918 0.235103 1.13503 -1.02524 
276 1 8.5422 4.55673 6.44431 0.722734 1.12626 0.57741 
277 1 4.41031 0.0952476 1.17655 -0.273018 -0.256186 0.122131 
278 1 6.28607 9.15828 1.21536 0.351829 -1.06932 0.490999 
279 1 6.12622 8.65201 3.60793 -0.159222 1.51941 0.285039 
280 1 8.61378 4.7193 4.51893 -0.745404 -0.111107 -1.426 
281 1 5.86023 8.26673 9.11055 -0.00479121 -0.728463 0.234256 
282 1 2.879 6.86796 7.48426 0.711642 -0.849806 1.20365 
283 1 7.55099 9.28708 2.66636 2.91797 -0.128549 -0.090209 
284 1 8.53319 5.48732 6.79046 1.01571 0.619094 -0.653104 
285 1 5.04897 1.2476 5.23737 -0.651508 0.242753 -0.397319 
286 1 8.79724 2.19679 5.18084 -1.08345 -0.480405 -0.546805 
287 1 7.57809 0.971965 0.81992 -0.897542 -0.0731867 -0.13735 
288 1 8.03685 8.35937 6.00344 -1.83772 -0.619923 1.70826 
289 1 3.47687 4.24758 8.03266 -0.630281 1.08183 -0.183166 
290 1 3.40468 1.0659 3.26682 0.224469 -0.26846 -1.72875 
291 1 5.12448 4.37472 5.96496 0.39017 0.555269 -0.0626179 
292 1 0.0961021 2.38683 4.52516 -0.129842 0.480832 0.548545 
293 1 0.388648 9.12451 0.985042 -0.22578 -0.0240893 -0.404755 
294 1 1.45088 2.89083 8.22551 0.816689 -0.947407 1.11012 
295 1 2.21368 3.01217 5.07847 -0.574628 0.306912 -1.58987 
296 1 6.36747 5.27561 0.0615199 0.169273 1.49595 -1.5024 
297 1 2.69883 3.28924 6.87257 -0.194836 -0.197376 1.93789 
298 1 1.42929 1.67162 5.56035 0.154698 -0.0980263 1.09715 
299 1 7.63045 5.14408 6.82494 -0.633179 -0.0345182 0.78579 
300 1 0.742378 3.53964 0.436098 -0.632215 0.321701 -0.00961845 
301 1 4.9418 5.88799 0.540274 0.866291 1.07945 -0.171916 
302 1 4.57183 8.22828 7.7441 -0.527143 -0.389408 0.635968 
303 1 0.0590982 8.54738 4.96306 -1.08018 -0.526449 -1.39971 
304 1 3.99935 3.44151 8.10286 0.474885 -0.167151 0.444448 
305 1 7.84679 1.6032 9.38229 -0.313874 1.91219 -0.0461304 
306 1 4.68642 6.83275 8.5214 -1.1816 -0.298131 -1.0798 
307 1 9.3362 8.00935 6.27684 -1.04352 -0.624923 -1.44263 
308 1 1.6115 7.11394 4.23248 0.374412 -0.460916 0.461299 
309 1 5.22679 1.48532 3.50132 0.51159 -0.822938 -0.417102 
310 1 6.76514 6.19647 0.0383535 0.149266 0.944037 0.10159 
311 1 3.10503 5.07498 4.49085 0.237868 -0.267464 -0.993219 
312 1 6.0217 7.09719 0.895227 -3.47262 0.335546 0.158169 
313 1 8.93883 0.164257 8.14533 0.60306 -0.469117 1.90331 
314 1 8.41589 8.5819 3.72439 0.432034 0.806406 -1.43242 
315 1 7.45636 0.421603 5.29519 -0.304064 -0.352757 0.509797 
316 1 1.58697 2.37895 1.65982 0.200755 -0.881937 0.39032 
317 1 4.04661 8.56857 2.53641 0.343933 -1.73686 -0.0262281 
318 1 1.17675 8.46382 3.97388 0.730192 -0.682282 -0.370273 
319 1 3.52933 2.88958 0.315057 -0.118319 0.893796 0.0189939 
320 1 5.71919 5.28658 0.807659 1.23232 -0.768649 0.660893 
321 1 7.37858 3.98728 3.00001 -1.14097 0.682414 0.898156 
322 1 0.483861 8.29807 3.30075 -0.959134 0.346413 -0.0575335 
323 1 5.26117 6.53721 9.27916 0.133348 -0.958113 0.303017 
324 1 1.61436 6.18914 2.90579 -0.0515878 -0.755767 0.774399 
325 1 0.0698705 7.4886 3.73343 -0.76221 -0.511788 0.450704 
326 1 3.98275 0.784436 8.87499 0.300982 1.06436 -0.269173 
327 1 6.4794 8.23268 1.15313 -1.42819 -0.291268 -0.578741 
328 1 7.31116 0.0107492 8.53004 0.0180822 -0.384552 0.0632242 
329 1 0.0703091 9.03381 7.50455 -0.459129 0.981112 1.46424 
330 1 5.92089 6.50682 4.15461 1.15209 -0.213553 0.311278 
331 1 6.52607 5.84857 4.56344 0.0486551 -0.548597 -1.09574 
332 1 4.62656 7.8896 0.666857 0.000744336 1.53342 -0.659801 
333 1 5.9517 8.09034 4.34243 0.181954 0.443436 -0.15947 
334 1 4.27949 2.8844 7.39695 -0.305577 0.524239 0.241043 
335 1 4.46803 4.59255 4.42352 -0.857978 0.761839 -0.0633242 
336 1 2.19283 7.88167 5.952 0.357127 -0.286814 0.754654 
337 1 5.06151 1.44189 7.85725 1.68279 1.01423 0.230049 
338 1 4.6238 9.23144 8.95304 -0.438181 -0.949392 1.19201 
339 1 5.79521 4.48298 7.02725 1.22521 0.396697 0.831926 
340 1 4.36881 3.66503 4.66462 0.301171 -0.286631 -1.10535 
341 1 6.01386 4.2517 3.62946 -0.420721 0.297139 -0.346791 
342 1 3.59966 4.2981 4.74514 0.91888 0.601046 0.703308 
343 1 6.79981 7.53789 2.60208 1.3527 0.342775 -0.903613 
344 1 8.94668 9.29729 4.11982 0.30875 -0.491407 0.55739 
345 1 5.7903 0.713858 1.90099 1.42136 -1.03222 -0.8371 
346 1 6.89122 8.06269 3.37101 -0.15791 -0.92674 -1.07011 
347 1 0.389276 1.89109 6.78744 0.0457746 -0.537205 1.70332 
348 1 3.36851 0.672885 0.241965 -1.62417 -1.41746 0.795319 
349 1 8.72048 3.47434 7.57094 1.17455 -0.762388 -0.30651 
350 1 3.25022 8.10299 8.7854 -0.687031 0.221341 -2.13286 
351 1 8.5966 7.75332 0.496905 -0.330774 0.392976 1.04253 
352 1 2.05046 6.96864 2.34555 -1.40396 1.77751 -0.916332 
353 1 8.08425 9.04632 5.30482 1.17519 -1.77568 0.537249 
354 1 5.45122 6.73695 6.45742 0.813802 0.555587 -0.533925 
355 1 3.43862 7.42286 4.94146 0.242206 -0.0577494 -0.883483 
356 1 4.35559 4.41196 5.35434 -0.384345 -1.11636 -1.09876 
357 1 5.6824 9.35175 6.13232 0.490956 0.559761 -0.237996 
358 1 9.1316 9.23498 1.70726 0.0926324 -0.446191 -0.79895 
359 1 8.61155 1.72006 8.13885 0.0188258 1.84536 -0.894061 
360 1 2.42744 2.93041 6.0283 0.432408 -2.05685 0.595592 
361 1 3.66674 3.60437 3.12466 -0.024452 0.302366 -1.57102 
362 1 5.54116 7.79467 2.25104 -0.732882 -2.12794 -1.993 
363 1 5.8694 1.09564 4.74912 -0.649684 -0.107397 -0.726027 
364 1 6.85284 6.52487 5.17258 0.919386 -1.20022 1.5131 
365 1 9.20721 7.68682 2.17248 0.187782 -0.114197 -0.340784 
366 1 5.25645 4.54009 5.00102 0.318734 -0.649424 0.324724 
367 1 8.35482 9.04254 1.1635 -1.26335 -0.998272 0.293552 
368 1 0.869143 4.46781 0.656844 -0.988289 -0.213728 0.3456 
369 1 7.53409 4.83749 3.40913 -1.07357 -0.845008 -0.810444 
370 1 4.83424 0.708805 1.76314 -0.0253062 0.912251 -0.670227 
371 1 4.38284 6.68364 2.89105 0.267978 0.21049 0.781871 
372 1 5.20894 8.46483 8.41306 -1.91565 -0.36864 0.419648 
373 1 0.754853 2.21627 5.9697 -0.242778 1.03064 1.71996 
374 1 4.38224 5.83944 2.33094 -0.0249109 -0.174472 -0.719943 
375 1 6.12724 4.96325 6.21323 -0.975066 1.48758 0.793923 
376 1 5.79657 0.753811 3.82724 -0.400074 -0.554001 -1.3702 
377 1 1.51794 5.57757 4.57791 -0.619249 -0.2939 -0.34745 
378 1 3.26436 9.33267 6.32394 -0.0679114 0.230868 1.28418 
379 1 7.90508 4.73648 8.81988 0.941279 -0.417119 0.200897 
380 1 0.3101 6.16441 2.61152 0.676385 -0.187956 -0.0722317 
381 1 2.78475 8.92528 8.67215 0.812533 -1.17979 0.459509 
382 1 6.37173 8.28784 2.22676 0.036213 -0.665158 1.34534 
383 1 1.29065 3.25898 5.06505 -0.222214 -1.32888 0.240184 
384 1 4.09095 4.76825 8.60805 -0.422141 -0.527555 -0.235164 
385 1 2.36614 2.29168 1.14234 -0.609682 -0.976983 -1.67847 
386 1 1.94207 8.55236 5.32953 0.942943 -0.0842055 -0.436414 
387 1 6.07654 1.67772 4.0028 -0.579365 -0.346313 0.156925 
388 1 0.723672 7.44033 1.88223 0.818957 -0.0980564 -1.19784 
389 1 5.17204 6.92039 4.67751 0.727798 0.170021 0.967096 
390 1 8.03161 2.63987 1.44251 0.893222 0.212692 -0.258206 
391 1 4.09178 8.55125 8.5767 -0.793324 -1.00341 -1.10292 
392 1 7.44494 2.6883 4.32041 -1.03979 -0.100838 0.752331 
393 1 7.90867 8.68435 8.55667 -0.583761 -0.30511 0.213928 
394 1 7.80119 8.86452 4.39182 -0.408179 0.61201 -0.0576823 
395 1 2.5455 6.24049 2.65363 0.062306 -0.483891 -0.921486 
396 1 4.74539 4.40557 6.85065 -0.400201 -0.138528 0.797839 
397 1 3.87577 6.87918 2.05671 0.54052 -0.939773 -0.38517 
398 1 7.87689 5.95623 7.3668 0.577443 0.793839 -0.647235 
399 1 8.58689 8.68647 7.84426 -1.26242 1.49498 -0.127468 
400 1 5.27399 7.16719 3.00615 -1.68641 1.36309 -0.941848 
401 1 0.929545 3.30339 2.82942 -0.818379 2.32394 -0.0601782 
402 1 4.50025 8.34886 5.58524 0.516568 -0.419892 -0.378571 
403 1 6.51365 4.51948 1.85015 -0.0808776 0.386978 -0.955882 
404 1 0.536947 0.452304 8.82047 -0.176559 0.42978 0.774955 
405 1 5.28677 7.69032 1.31222 -1.07776 0.802234 0.677235 
406 1 8.74446 2.96668 5.79695 -0.591923 -1.0273 0.938617 
407 1 1.09146 2.91338 1.0556 0.475654 -0.372481 -0.288677 
408 1 4.85091 5.83972 3.17013 -1.59358 1.19219 -0.144686 
409 1 7.60306 7.93611 4.12807 -0.150988 -0.274111 0.0458252 
410 1 5.56095 5.15001 3.13886 0.152257 1.75125 0.168563 
411 1 6.20278 7.82317 7.21006 0.344488 0.488829 0.768955 
412 1 6.96304 0.112868 3.48024 -1.50762 0.324065 -0.497463 
413 1 1.02226 1.45691 4.70331 -1.06165 -0.195178 0.272505 
414 1 5.20097 6.38335 2.45102 1.3438 1.61713 0.134573 
415 1 1.38008 4.83068 5.19332 0.503155 -0.0216615 -1.64185 
416 1 0.099292 2.99506 7.27636 -0.397863 0.511477 0.0638772 
417 1 1.84125 2.11513 4.80923 -0.999245 0.668027 0.278839 
418 1 1.54228 7.78415 6.66797 0.608711 -0.656758 0.452689 
419 1 1.04725 1.29183 6.35343 1.46432 -0.265083 -1.42444 
420 1 3.7901 0.0142674 8.27141 -0.47471 1.11464 -0.89688 
421 1 6.17253 4.77895 5.27306 -1.45741 -0.377072 -0.841123 
422 1 7.93564 7.89244 3.21092 -0.505421 0.676387 -0.439944 
423 1 5.50512 2.4162 3.61738 0.909414 0.314069 1.70954 
424 1 7.67451 8.19755 5.08742 -0.379616 0.533581 -0.372473 
425 1 3.95509 1.96265 1.06118 0.269722 -0.283449 -0.135213 
426 1 2.43542 8.74978 2.87901 0.915951 1.07992 -0.26788 
427 1 7.91133 6.84609 4.22111 -0.423368 -0.431537 0.365567 
428 1 9.28624 8.36324 4.04688 -0.675273 1.32448 -0.997581 
429 1 8.74486 2.95336 2.04206 0.23108 0.00146385 0.446488 
430 1 0.31104 0.296369 3.54267 -0.136006 -0.409542 -0.385326 
431 1 2.30258 5.91503 3.51734 -0.659262 -1.66842 -0.429769 
432 1 3.2761 6.36862 0.823072 0.730432 0.0233593 0.154892 
433 1 5.04264 4.95172 8.47172 -1.11905 0.233176 1.1882 
434 1 2.60415 7.5023 4.41535 0.763477 0.571206 0.169662 
435 1 4.31718 4.5373 7.69254 0.8469 -0.00997892 0.696408 
436 1 5.13567 4.27317 3.22651 -0.976224 0.307506 -1.36951 
437 1 2.72818 1.2223 5.47369 -0.634269 -1.01835 -0.0856753 
438 1 4.17784 2.78338 2.9923 -1.11532 -0.948319 0.515733 
439 1 7.86782 8.73224 1.89901 0.957573 -0.192363 -0.883647 
440 1 6.60376 4.29689 9.33447 0.592114 -0.604089 1.10005 
441 1 6.22684 5.41968 1.60576 0.663689 1.0045 -0.496647 
442 1 8.68866 7.47394 1.40687 -0.912125 0.194898 0.637692 
443 1 0.83703 4.76479 1.73441 -0.319702 0.431604 -0.725477 
444 1 8.46882 0.62892 1.13861 0.775191 0.502695 -0.130798 
445 1 8.62542 3.62839 3.16682 0.482199 -2.11017 0.676583 
446 1 5.35138 9.22768 3.81402 1.46813 1.0288 0.571164 
447 1 2.40133 8.05801 8.32966 -0.275208 -0.530265 0.721346 
448 1 3.38571 1.16681 1.0421 0.481401 0.863273 -0.350292 
449 1 4.32819 3.99662 3.68099 0.330672 2.55112 0.787213 
450 1 7.9879 7.84621 8.11687 1.47641 0.00986125 0.346833 
451 1 4.26074 0.0596289 2.27166 0.500239 -1.03953 -0.0121831 
452 1 8.51352 1.29183 4.8399 0.695673 0.130855 1.37628 
453 1 6.00541 1.35828 7.92348 -1.04307 -0.102495 0.790752 
454 1 6.64575 0.715756 8.41573 1.41314 0.219256 -0.613814 
455 1 1.49288 8.37458 3.06285 0.254655 -1.30974 0.953667 
456 1 5.37042 9.3787 1.42432 -0.886626 -0.89568 0.660307 
457 1 7.61706 4.28214 6.28858 -0.0325738 0.49763 0.0195146 
458 1 6.14781 7.23343 4.81332 -0.410464 -0.975077 0.226318 
459 1 6.48725 2.56752 3.81787 0.223385 0.0841577 -0.387961 
460 1 7.31511 7.16929 8.40298 0.0409589 1.53198 0.281084 
461 1 0.945989 4.14747 5.9043 0.092044 -0.0672802 0.798925 
462 1 7.27518 3.93308 2.04152 -0.322267 1.04638 -0.790213 
463 1 2.45545 8.65828 7.61843 -1.47134 -0.255952 -0.612072 
464 1 8.66507 0.722475 6.5031 -1.11577 -1.38354 1.13007 
465 1 0.125972 3.50199 2.24769 -1.36019 0.249843 1.34159 
466 1 3.47456 1.26041 4.21473 -0.685528 0.698393 0.902662 
467 1 6.72001 8.07786 4.93106 -0.489122 0.566619 -0.199345 
468 1 4.59809 4.97032 3.5723 -0.291929 0.633034 0.234338 
469 1 3.71893 2.1866 4.17894 0.814384 0.642136 -0.664275 
470 1 7.73884 9.33174 6.93959 -1.20204 0.153993 -0.0343763 
471 1 3.93616 6.70717 5.20272 0.524241 -0.560115 -0.658595 
472 1 3.59037 0.102424 4.78303 0.563626 0.094881 1.0373 
473 1 6.6882 7.39997 5.61492 -1.51312 0.794913 -1.23603 
474 1 6.42418 9.19316 8.21903 -0.075884 -1.57525 -0.362041 
475 1 1.97213 0.478196 4.20558 -0.979097 -0.300533 0.729067 
476 1 4.78294 7.23612 2.19073 -2.10319 0.48096 0.00296865 
477 1 1.84321 0.983431 6.81944 0.315112 -0.208821 0.633939 
478 1 0.255214 9.00875 8.41346 -0.474668 1.50814 -0.720611 
479 1 4.28858 1.19979 3.62915 0.498933 0.404445 0.956901 
480 1 6.88233 8.64451 4.18114 0.731864 -0.248449 -1.11692 
481 1 1.90955 4.2507 3.84951 -0.344825 -1.32869 0.754577 
482 1 1.82977 4.61216 0.63209 0.725333 -0.238396 -0.267734 
483 1 9.26151 1.474 1.43313 0.530205 0.241732 -0.768713 
484 1 7.29029 8.08499 0.480238 -1.30621 -1.0019 0.620421 
485 1 8.37474 9.24742 6.24095 0.436105 0.803704 -0.482648 
486 1 5.99392 0.0903963 3.14751 -0.291703 0.351645 0.631919 
487 1 3.19521 8.85287 2.31385 0.769431 0.565724 0.693398 
488 1 7.63289 0.211639 1.5057 0.297011 1.71041 -0.781 
489 1 5.0781 2.95277 4.31066 0.489539 -0.429814 0.233606 
490 1 9.25185 2.8627 2.90825 -0.583971 0.553912 0.0791103 
491 1 4.58272 7.50944 3.5229 0.693672 -0.708814 -0.568197 
492 1 1.58342 7.94833 4.6752 -0.00105727 0.268315 -0.589042 
493 1 8.66092 0.0362439 7.1871 -0.418347 0.0674423 -0.126589 
494 1 0.821764 4.0898 4.95076 -0.25227 -0.477659 1.79543 
495 1 5.98503 4.8965 8.6794 -0.440584 -1.46946 -1.04775 
496 1 1.40189 0.286442 2.11647 0.595657 0.100617 0.435886 
497 1 8.53319 6.96979 2.27091 -0.510387 0.282906 -0.217627 
498 1 6.28948 0.0215513 4.14783 -0.750289 -0.099493 0.817013 
499 1 6.80556 5.67703 6.4429 -0.913932 0.0279338 0.00147439 
500 1 9.05337 5.30583 6.00133 -0.826334 0.542208 -1.02849 
501 1 2.8193 5.6272 1.98294 -0.540854 0.993498 0.220143 
502 1 7.73998 3.47872 7.66639 -0.521623 0.47321 -0.00220014 
503 1 1.61867 8.77829 2.19312 -1.2811 -0.0577086 1.79752 
504 1 6.65757 8.6668 7.4286 2.50371 -1.39177 0.752005 
505 1 0.204939 4.83027 4.52043 -0.0688656 1.1066 -0.020937 
506 1 9.16621 3.06256 3.8771 -0.538314 -0.272274 -0.419056 
507 1 3.80518 7.16998 0.445945 0.227499 -0.350973 -0.558474 