ITEM: TIMESTEP
2470
ITEM: NUMBER OF ATOMS
1000
ITEM: BOX BOUNDS pp pp pp
0.0000000000000000e+00 9.4000000000000004e+00
0.0000000000000000e+00 9.4000000000000004e+00
0.0000000000000000e+00 9.4000000000000004e+00
ITEM: ATOMS id type x y z vx vy vz 
1 1 8.22878 1.19786 8.08418 0.711337 -0.684316 1.33593 
2 1 7.242 3.60433 4.45908 0.153803 1.26126 0.0518526 
3 1 6.28534 5.12872 7.72183 -0.106531 0.187415 0.0672797 
4 1 6.43377 5.95084 8.21576 -0.120219 1.30896 -0.0856759 
5 1 6.08186 3.93833 7.93919 0.954882 -0.340578 0.345519 
6 1 0.429637 6.88335 1.89788 -1.11449 0.584406 -1.17644 
7 1 7.65179 7.02444 3.23629 1.10774 0.240144 -1.21621 
8 1 3.22368 9.19998 2.68149 -0.755341 1.44298 -0.0913774 
9 1 8.50989 2.89974 8.3666 0.385119 -0.563905 0.750824 
10 1 3.27957 0.384424 5.59205 0.467128 -0.723879 0.612139 
11 1 1.67436 3.14674 2.91711 0.576316 0.968567 0.471801 
12 1 8.34358 3.05891 6.45849 -0.24424 -0.531143 -1.63937 
13 1 5.66606 0.357792 7.58997 0.812961 0.442151 0.795005 
14 1 0.156697 1.20346 0.323277 -1.2244 -0.0407808 0.901259 
15 1 5.08588 4.23054 8.90745 0.24168 -0.514197 1.35813 
16 1 0.247441 4.34866 4.01204 -0.790871 -0.099317 0.731138 
17 1 9.08848 0.443263 0.067369 0.102379 -0.651971 -0.865949 
18 1 3.49138 8.14427 8.53659 0.518269 1.12744 1.17213 
19 1 2.54675 1.27773 1.73275 1.45465 -0.443862 -1.42199 
20 1 0.21202 4.28207 7.18351 -0.758217 0.0985105 -0.111579 
21 1 4.21375 4.74446 5.68846 0.255301 -0.299956 0.266735 
22 1 8.10484 5.70588 0.0352745 0.361044 0.594839 -0.510019 
23 1 3.9204 5.77407 4.0634 0.229486 -0.140869 1.59017 
24 1 7.17557 5.39826 7.99321 0.588214 0.11808 1.00131 
25 1 1.00189 6.45069 6.93203 1.00883 -0.764514 -0.827036 
26 1 7.54229 8.44843 3.97639 0.63448 -0.233439 0.545932 
27 1 5.89299 8.06774 4.71939 -0.599203 0.152944 0.528368 
28 1 3.61572 8.09485 5.74567 0.239258 0.716052 -1.36754 
29 1 7.47822 6.68289 2.26529 1.0763 0.595781 -0.275173 
30 1 4.85948 1.68351 6.91624 -0.126821 0.993622 0.624199 
31 1 5.84446 0.313921 1.26605 1.42812 -0.829792 -0.131477 
32 1 2.13057 5.82607 4.90247 -0.620985 -0.279635 -0.457598 
33 1 0.864129 1.88873 2.37309 0.485152 -0.0696663 0.735651 
34 1 3.11199 4.18457 2.07282 1.73559 0.682035 0.162438 
35 1 4.98434 0.609584 2.91225 -0.206277 1.75584 0.09269 
36 1 9.39399 8.84047 4.62997 1.73828 -0.983728 -0.317321 
37 1 1.09308 4.52574 4.87936 -0.352539 0.720133 1.82632 
38 1 0.0750927 7.5039 3.17543 -1.16456 -0.460118 -0.469759 
39 1 1.73475 1.60413 2.10758 -0.570965 0.377061 0.174418 
40 1 9.3372 5.66243 0.771046 -0.945405 -1.2259 -0.557097 
41 1 1.8401 4.99694 7.92864 -0.751635 0.368842 1.61983 
42 1 5.48959 1.47937 2.71322 1.25202 -0.558322 -1.04338 
43 1 7.45463 6.82624 6.17412 -0.684089 -0.40814 0.851617 
44 1 1.42551 5.65126 7.41701 -0.0297145 0.0269259 -0.565916 
45 1 5.12251 5.60035 8.21038 -0.450763 -0.0300718 0.0483516 
46 1 7.25307 6.35161 7.69561 0.191436 -0.420641 0.663981 
47 1 4.97269 1.47208 1.86658 -0.0492271 -1.5393 -0.505781 
48 1 8.9813 0.0612523 1.42056 0.210919 1.08421 0.466071 
49 1 0.345978 8.92156 8.08369 -1.12282 -0.0505583 0.183495 
50 1 6.7812 0.255035 9.08294 -0.672385 0.596342 0.657468 
51 1 4.34007 2.1716 7.702 -0.351575 1.44727 -0.529807 
52 1 0.355445 2.03454 9.37544 -0.749467 0.162728 -0.508623 
53 1 4.49282 6.24795 6.11943 0.623782 0.147061 0.102943 
54 1 9.1098 3.57447 7.61758 -0.101958 0.929804 0.212988 
55 1 4.63477 1.14662 6.14277 -0.935631 1.73249 -0.0309375 
56 1 7.69616 5.09406 1.4261 1.96895 0.256854 -0.0128525 
57 1 3.40415 8.20542 2.78428 -1.1408 -0.601125 1.72911 
58 1 1.4461 8.21267 4.82612 0.603717 0.677264 -1.05278 
59 1 0.0795955 6.59524 7.56534 -1.19468 -0.6654 0.959609 
60 1 7.94003 9.36707 8.17759 0.370006 -0.368078 0.0114896 
61 1 5.56838 9.26611 2.40506 -0.575379 1.00151 0.0558601 
62 1 1.33945 0.294155 2.42488 0.650518 -1.80085 0.891123 
63 1 2.5147 6.28949 4.13967 0.746428 0.837339 0.73306 
64 1 6.74373 6.21186 0.741595 0.987765 0.208304 0.224486 
65 1 4.92406 0.647164 1.31567 -0.16056 0.482083 -1.04177 
66 1 5.85931 8.35162 5.62737 0.0603902 -0.227177 -0.412922 
67 1 0.245561 7.34324 4.20759 -0.366906 -0.0641958 0.719673 
68 1 0.233871 2.9471 0.130361 -0.584515 0.852815 -0.575709 
69 1 8.32439 3.45269 2.06088 -0.73312 1.22359 -0.330426 
70 1 7.0547 1.05904 6.96602 0.379765 0.860398 -0.640352 
71 1 3.57808 3.69189 8.45941 0.640722 -0.844689 -0.975891 
72 1 8.06369 4.7773 3.78514 -0.492911 0.679045 1.63306 
73 1 2.88941 3.00868 8.26769 -0.0328791 0.532165 0.331412 
74 1 5.11841 1.6758 0.626392 0.285513 0.142962 -0.412376 
75 1 8.4438 5.38831 3.14749 0.0975954 -0.87092 0.495315 
76 1 7.50854 2.56092 8.61574 0.0717623 -0.593078 1.0978 
77 1 4.62026 8.32917 1.59913 -0.297568 0.0064464 0.39084 
78 1 3.39206 5.13904 8.98911 -0.792229 0.43935 0.993532 
79 1 8.25579 8.59794 8.66302 -0.79106 0.287303 -2.30203 
80 1 8.42552 5.3031 0.847434 0.46544 -0.850209 0.433454 
81 1 1.22715 2.98613 1.31626 -1.73682 1.17978 -1.08443 
82 1 3.81158 2.64986 6.94237 -0.0156362 -1.2587 -1.06361 
83 1 1.39799 8.89953 4.17192 -0.0725197 -1.00011 -0.862501 
84 1 5.84846 1.94309 9.38827 -0.844037 0.931029 0.100674 
85 1 6.88207 5.27743 0.947442 -1.37619 -0.505153 0.232297 
86 1 6.51818 8.0388 8.20428 -1.44012 0.659057 0.0852565 
87 1 4.33199 7.78155 8.30273 0.81537 -0.269674 0.382999 
88 1 2.88589 0.782085 9.34814 -0.227029 0.234748 -0.092095 
89 1 7.77568 2.60568 2.22149 -0.982043 -0.35856 0.938791 
90 1 1.09699 1.3653 8.09708 -0.0780916 -0.80286 0.110496 
91 1 8.14172 2.8294 1.37211 -0.790786 -0.0928064 -1.41532 
92 1 2.58958 4.82326 8.47485 -0.0454072 0.545991 0.727989 
93 1 5.55923 3.45579 8.59232 0.443315 0.0155624 0.804753 
94 1 6.07836 9.09757 4.55173 0.858112 -0.893848 0.282019 
95 1 2.46707 3.22402 7.48562 1.479 0.690792 -0.912782 
96 1 8.80207 0.502048 8.37109 0.371702 -0.653511 -0.0157163 
97 1 2.57432 0.965569 0.828244 0.251708 0.278059 -0.866954 
98 1 0.852176 8.89967 5.05552 -1.24683 0.513511 0.122535 
99 1 7.11535 8.60005 7.7012 0.0931073 -0.679304 -1.64814 
100 1 6.17176 3.05003 0.727602 -0.872468 -0.257417 1.15211 
101 1 0.548799 7.4724 0.836827 -1.62992 0.3462 -1.22529 
102 1 7.45415 1.54953 8.53993 0.618606 0.543991 1.02466 
103 1 8.09233 1.19846 0.939685 -1.68501 1.45527 1.12259 
104 1 5.71878 5.8734 7.55883 -1.08304 0.100054 -1.76597 
105 1 8.90007 8.71848 6.15454 -0.882085 0.127422 -0.859832 
106 1 3.39086 2.32651 7.72032 0.0451304 0.465803 -0.579475 
107 1 4.21296 0.656228 6.88007 0.647019 -0.382889 -0.263347 
108 1 6.49892 7.10849 1.04421 0.571575 -0.356815 0.936059 
109 1 7.29143 5.18128 4.18705 -2.49797 -1.49686 0.423947 
110 1 0.0880846 4.33834 5.42389 0.411459 -0.584096 -0.592615 
111 1 0.845755 7.50772 2.53687 -0.694509 0.16058 -1.11396 
112 1 0.945759 6.19707 8.83259 0.0550501 0.540313 -0.825664 
113 1 6.72231 2.27822 0.518195 0.447419 -1.10645 0.796711 
114 1 4.35784 1.05944 8.6522 -1.44725 -0.157906 -0.058095 
115 1 9.07598 7.38776 0.401288 -0.355889 -0.868819 0.214513 
116 1 5.8561 1.83014 6.86784 0.240214 -0.775771 1.17523 
117 1 0.31244 3.6587 6.38622 1.64387 0.175579 -0.121888 
118 1 7.1744 4.36134 1.06121 0.671637 0.968499 0.226123 
119 1 6.15891 8.9303 7.89191 -0.141611 0.394173 -0.570577 
120 1 5.60902 4.54642 7.40107 -0.52958 0.160072 -0.13397 
121 1 1.82137 7.80397 6.26247 -0.200025 0.109732 0.223173 
122 1 3.11976 4.63535 1.17295 -0.626909 0.494713 -0.55443 
123 1 2.5516 9.36 4.10309 -1.69846 -0.690322 -0.96686 
124 1 3.87584 5.53985 4.99817 -1.44868 -0.999877 -0.570291 
125 1 9.18748 1.23184 3.71207 1.23094 -0.281091 0.663811 
126 1 6.88094 7.95426 9.13611 -0.150877 -0.171955 0.942455 
127 1 8.89133 0.430691 2.41708 0.0746753 -0.693186 -0.409094 
128 1 6.2001 2.93116 3.3142 -0.771034 1.20645 0.202247 
129 1 9.153 8.13465 1.01043 0.816116 0.247356 1.066 
130 1 9.13355 9.00184 7.02849 0.189354 -2.04069 0.216598 
131 1 4.79268 9.28675 6.70263 0.878711 -0.391116 -0.555026 
132 1 4.25671 7.07687 8.93322 1.05851 0.753014 1.43158 
133 1 0.967428 3.63044 8.21795 0.753671 -0.526948 -0.143175 
134 1 8.45893 7.83588 1.6496 -0.229215 1.2514 0.150012 
135 1 4.13291 1.94463 1.87051 0.261329 0.811735 -0.728172 
136 1 4.21519 6.10028 9.39213 -0.45282 -1.3365 -0.0229011 
137 1 6.73556 0.945201 8.389 -0.608379 0.0675612 -0.496206 
138 1 9.15143 7.59317 2.27632 0.259329 -0.340605 -0.0293657 
139 1 1.89987 0.962107 0.15007 -0.90666 -0.295865 1.25022 
140 1 8.43583 8.44776 4.3665 0.07719 0.455274 -1.01956 
141 1 0.956381 5.3203 9.24732 -0.0436424 0.161834 0.711241 
142 1 5.14629 7.25607 8.54176 0.268579 -0.866385 0.152341 
143 1 2.12071 0.129126 0.806547 0.621972 -0.0683883 0.962351 
144 1 3.4594 0.201969 3.5965 0.269154 0.103879 -1.03293 
145 1 3.52947 2.17233 0.1355 0.190172 -0.262562 0.614134 
146 1 2.4595 0.127218 3.15986 0.25347 0.376439 -1.71056 
147 1 7.57113 3.18893 6.9985 0.884298 -0.712977 0.136272 
148 1 8.92177 5.39053 1.62677 0.0766571 -0.225576 0.835303 
149 1 7.82087 6.96897 7.0808 1.27546 -0.581946 1.11749 
150 1 2.26147 4.37322 0.784197 -0.473768 -0.0647359 0.539291 
151 1 4.53874 3.15008 7.63937 -0.074069 1.22229 0.514828 
152 1 0.467252 8.33235 0.452627 0.024236 -1.0839 -1.42436 
153 1 7.12284 6.72526 4.07759 0.690316 0.102368 0.232137 
154 1 7.50895 5.10803 5.10138 -0.00136536 0.583142 -0.526139 
155 1 3.60168 2.99256 0.575215 0.887875 -0.345202 0.662573 
156 1 5.39639 5.89166 6.04707 0.103768 -0.836004 0.888111 
157 1 4.2099 2.80274 9.21199 0.921707 -0.175593 -0.298433 
158 1 0.346857 8.8606 1.25395 -0.844789 0.132922 0.144778 
159 1 4.71854 0.23082 7.6432 -0.979668 0.215912 0.378433 
160 1 0.815545 5.24094 0.848819 -0.708681 0.744996 0.893231 
161 1 8.63007 3.84665 8.37415 -0.708548 -0.148796 0.315332 
162 1 5.1446 1.7152 4.58649 -0.954192 0.596452 0.0276566 
163 1 4.67985 4.38886 7.11197 0.138453 -0.219756 -0.14869 
164 1 2.79805 0.341954 1.50039 -2.08442 -0.502364 -1.8244 
165 1 2.20437 8.72489 6.44172 0.734514 -1.3577 -0.247398 
166 1 4.71342 5.57014 5.47673 0.540891 0.69363 -0.922846 
167 1 7.38548 8.79449 8.97608 -0.589378 0.496004 -0.350099 
168 1 4.3561 8.91258 4.51271 -0.467307 1.2697 -0.960817 
169 1 0.0262086 3.8157 0.550313 0.243373 -1.10061 0.569398 
170 1 2.41853 2.66366 2.47587 -0.747978 0.9004 1.02825 
171 1 0.509597 8.72065 6.37336 -0.209933 0.177304 -0.31435 
172 1 7.91119 3.94229 6.47496 -0.483565 -0.728235 -0.648287 
173 1 8.37303 6.30213 4.80363 0.6186 1.01702 -0.598352 
174 1 2.78902 9.28384 8.33813 0.243651 0.216464 0.0515101 
175 1 3.80868 8.23187 7.59693 -0.671281 0.132094 -0.36627 
176 1 7.37517 6.72982 1.26684 2.32104 0.19754 -0.220771 
177 1 6.8477 7.4741 1.85449 1.59648 -0.893526 -0.302296 
178 1 9.17011 5.13569 2.52536 0.57946 -0.344747 -0.488983 
179 1 0.982293 6.33289 7.90588 -0.292017 -0.142556 -0.135946 
180 1 0.98309 5.3338 8.25305 0.443607 0.388742 1.78226 
181 1 5.26329 9.21336 8.33477 -0.16001 -0.0486391 -0.0555956 
182 1 2.38734 5.5243 2.76368 -0.471994 0.0139165 0.0800722 
183 1 1.82912 5.00619 4.45148 0.430246 -1.16681 0.0903355 
184 1 4.84337 6.32623 8.73997 -1.11338 0.488164 0.878645 
185 1 4.97888 5.16298 9.02296 -1.03516 0.399367 1.24856 
186 1 5.01674 1.75253 8.32538 0.296298 -0.50678 -0.301387 
187 1 8.45158 4.52518 1.4446 -0.107386 -0.613022 -0.216322 
188 1 4.4972 0.106276 3.64815 0.15231 0.0426923 1.02545 
189 1 3.02607 4.1908 8.9814 0.525196 1.22683 0.653628 
190 1 5.42807 7.60732 4.03019 0.808584 0.705202 -0.184219 
191 1 3.94407 3.67684 1.92212 0.0260675 -1.15704 -0.93105 
192 1 1.62379 4.15665 2.77009 -0.279191 0.423845 -0.00106654 
193 1 1.68869 7.98582 3.93096 0.645433 0.338287 0.739119 
194 1 3.00344 4.72685 6.63247 -0.956141 0.671519 0.51074 
195 1 1.8482 4.11887 8.3039 0.193848 0.310677 0.0854447 
196 1 1.17428 6.77038 0.946856 -1.27185 0.217511 -1.88982 
197 1 1.67804 0.129849 6.82932 2.31465 -1.2626 -0.66286 
198 1 1.28211 1.1638 2.89154 0.451709 0.183628 0.8931 
199 1 6.71995 4.90859 5.56033 -0.261926 -0.0663699 0.680912 
200 1 7.52983 0.0896329 0.199883 0.736723 -0.567948 -1.74468 
201 1 8.84223 4.62396 6.13203 2.0029 -0.602511 -0.694038 
202 1 1.14584 5.51712 1.80522 0.688228 0.391938 0.191931 
203 1 7.48199 1.57829 6.29362 0.149409 -0.897506 -1.28397 
204 1 2.25075 0.914526 7.02713 0.0242764 2.81729 0.662195 
205 1 7.35772 9.20073 5.92159 -0.995018 0.215323 0.157639 
206 1 4.34507 6.59676 7.0589 -0.775891 0.0694236 -0.51905 
207 1 6.59542 8.345 4.15949 0.623691 0.433507 -0.429201 
208 1 5.60128 6.67415 4.17994 -0.0436555 0.622611 0.72279 
209 1 5.09965 5.03219 0.576992 -0.977649 0.273893 0.760599 
210 1 7.06705 3.38823 0.918489 -0.959763 0.314038 0.67406 
211 1 4.42426 8.40146 5.34571 -0.988848 -0.0838303 0.713402 
212 1 6.35854 1.39298 0.587078 1.02347 0.342711 0.554354 
213 1 5.19986 9.34733 0.642326 -0.346135 0.677868 0.0146873 
214 1 6.65474 8.59128 5.08668 -0.5988 0.189052 1.05797 
215 1 6.16257 5.85873 5.49862 -0.771777 -0.30695 0.505129 
216 1 7.95227 1.48428 3.78024 -0.542259 0.497745 -0.241241 
217 1 4.36641 0.115331 8.61359 0.640382 0.0559343 -0.178671 
218 1 5.76667 5.70443 8.87167 0.545508 -0.0962137 0.21142 
219 1 7.32684 1.67922 7.63104 1.5987 -0.559077 1.18716 
220 1 1.82096 3.11845 8.24965 0.57078 -1.5137 0.91689 
221 1 3.96198 0.370357 4.48241 0.174207 -0.227886 -0.857847 
222 1 0.132052 5.83428 9.24919 -1.98625 0.952911 1.49732 
223 1 9.08384 1.26783 8.90321 -0.969669 0.912388 2.03016 
224 1 7.07691 5.7906 5.56312 1.13393 0.831836 -0.189078 
225 1 5.2825 8.01506 3.12946 -0.382837 -0.240392 -1.59088 
226 1 7.88575 1.4604 2.55999 -0.638893 0.0787283 0.528486 
227 1 4.63263 4.05095 6.22492 -0.204093 0.195275 -0.0306145 
228 1 0.915087 7.81638 6.67275 -0.077417 1.03192 0.272957 
229 1 4.62181 4.8721 4.81568 0.276033 0.886638 0.595717 
230 1 5.91953 2.1854 3.90096 -0.750854 0.0336639 -0.0605713 
231 1 3.28895 5.48429 7.16007 -0.984771 0.584656 0.099372 
232 1 0.864291 6.08038 0.398304 0.791511 0.760896 -1.34811 
233 1 0.19141 9.29174 2.12358 0.651716 0.148423 -0.554603 
234 1 3.07005 5.91576 3.42549 1.10869 -0.376412 0.214259 
235 1 1.81952 3.99361 6.33043 1.01178 -1.09846 1.35888 
236 1 0.522604 9.17151 3.87014 -0.348741 0.0288629 0.842319 
237 1 1.73828 8.17505 2.00686 0.00611872 0.858968 1.00951 
238 1 8.83694 3.35031 9.23388 -1.69329 0.485224 -1.06519 
239 1 1.89974 1.92191 0.242707 0.414641 -1.48888 0.477473 
240 1 8.50394 4.1999 0.539159 -0.583681 0.236651 -0.0120112 
241 1 6.59573 0.396113 7.5244 0.323616 0.228238 -0.665823 
242 1 6.43894 8.79266 8.79286 1.66579 -0.729332 0.349671 
243 1 7.74301 5.84873 3.67289 -0.777724 -0.291679 -0.422143 
244 1 6.63207 2.93966 6.8725 -0.371243 1.0216 -1.10054 
245 1 0.163962 4.17226 8.23986 -0.74131 0.0302666 0.248442 
246 1 6.42124 3.05364 8.21289 0.761438 -0.861636 -0.796036 
247 1 4.35221 9.24 0.206199 -0.304335 -0.0669937 -0.0401457 
248 1 5.27129 2.26508 7.56539 -0.478926 -0.329109 -0.561179 
249 1 5.62465 6.48451 8.2426 -0.792968 0.169918 -0.289375 
250 1 2.91209 2.76286 1.16134 -1.10216 0.302571 0.00549515 
251 1 4.26248 1.00628 3.539 0.0830693 -0.676161 -0.306919 
252 1 2.85771 8.18614 5.18216 0.573927 0.293346 0.826001 
253 1 8.81232 9.02634 7.96979 -0.0910695 -0.676205 0.551741 
254 1 4.74949 3.13277 1.75131 0.182207 -0.402584 -0.668023 
255 1 3.86991 1.56585 7.10768 1.36565 0.0812019 0.700311 
256 1 0.402721 7.51057 5.92047 -0.40039 0.169813 -0.0869988 
257 1 5.22173 1.29741 3.63599 0.558331 -0.26815 -0.0912073 
258 1 8.51445 1.12598 1.85659 1.61609 0.946384 0.226347 
259 1 9.28832 6.49351 4.46447 0.707003 -0.977197 -0.419997 
260 1 8.06552 2.16958 7.9302 0.299742 0.0276907 -1.03804 
261 1 5.3953 6.2548 5.06269 -0.344921 -0.347174 -0.747894 
262 1 7.37441 2.89695 0.153473 -1.18758 -0.0973241 -0.375006 
263 1 1.23825 3.23405 6.59092 -0.99977 -1.21947 0.0992392 
264 1 5.26259 2.19042 6.16951 0.460564 -1.41309 0.483631 
265 1 0.0601805 8.43206 3.524 -0.950474 1.25261 -1.33445 
266 1 6.97598 8.30622 2.347 0.0953151 -0.327037 -0.507247 
267 1 3.28643 6.09531 9.18847 -0.191671 -0.368148 1.14365 
268 1 5.4306 9.26217 3.33614 0.0209273 -0.616608 -0.599514 
269 1 2.75969 3.95862 8.01457 -0.440162 -0.969559 1.13752 
270 1 1.36825 8.62487 6.85157 0.569899 -0.346255 -0.139624 
271 1 8.29762 0.0872651 9.06212 -0.332773 0.700514 -0.539584 
272 1 5.81416 5.73234 4.26309 -0.101228 0.148775 1.49984 
273 1 7.72166 3.27098 7.993 -0.75135 1.30986 -0.350347 
274 1 8.17699 8.7612 0.253897 0.132359 -0.158573 0.661002 
275 1 7.06682 3.64404 8.57223 0.437333 1.07243 -1.12353 
276 1 1.51574 2.57694 2.12302 0.625051 1.03473 1.06468 
277 1 8.35915 0.356428 7.41992 0.630861 -1.26385 1.1932 
278 1 0.850927 2.65012 2.94371 -0.0944079 0.0538805 0.0712314 
279 1 0.860109 4.37689 3.25434 1.43532 -0.685333 -0.874605 
280 1 5.9318 9.32803 0.0164974 0.156908 -0.60734 0.0351426 
281 1 6.49207 4.59677 6.93552 0.273727 -0.918689 0.384589 
282 1 2.26846 4.86785 6.08313 -1.17941 -0.712552 -0.474259 
283 1 0.18177 5.02084 8.74352 0.196911 -0.0721454 0.105348 
284 1 7.84572 5.23216 8.66732 0.245709 -0.241294 0.59267 
285 1 2.16142 4.25836 1.79048 0.403252 0.525968 0.993926 
286 1 8.43956 6.8978 2.12823 -0.0866917 -0.48726 -0.60339 
287 1 6.50762 2.95906 4.29417 0.0899487 -0.559613 -0.417012 
288 1 2.00399 1.38553 7.80774 0.281607 2.37917 -0.733756 
289 1 8.56689 6.24929 0.680178 -0.324479 -0.0818604 0.362768 
290 1 4.19824 5.44585 8.57798 0.654915 -0.936562 -0.606014 
291 1 0.288172 3.01976 1.07383 0.0288325 -0.0401396 0.396955 
292 1 0.788789 3.56228 2.64627 0.683576 -0.385562 0.949526 
293 1 8.26807 9.37904 5.73315 -1.08658 0.741641 -0.310909 
294 1 7.66311 7.84668 7.37607 0.355401 -0.490391 -0.755548 
295 1 8.75212 7.33756 7.0776 0.0308609 0.280459 0.166206 
296 1 8.37028 8.51976 3.42537 -0.214993 0.00285181 -1.71168 
297 1 7.00478 9.36508 8.23652 0.590234 0.398489 0.596677 
298 1 8.95502 5.0525 4.034 -0.590757 1.08652 -0.786074 
299 1 9.12636 7.37086 7.97255 -1.06074 0.320879 -0.359776 
300 1 5.14654 7.80599 5.29042 -1.30893 0.786897 1.28255 
301 1 0.238487 5.06957 3.36467 0.862577 0.376303 1.13894 
302 1 0.986278 7.7087 9.30339 -0.0349866 0.20018 0.68126 
303 1 5.17123 8.3648 0.719129 -0.561211 0.706459 0.0947045 
304 1 6.2232 8.75792 1.93518 0.0592355 0.239169 1.00663 
305 1 0.678184 8.22814 4.23359 -1.24431 0.795909 1.09893 
306 1 4.50174 3.56552 8.57126 0.592106 1.28848 -0.099065 
307 1 4.21887 7.4394 5.33686 -1.38231 -0.901503 0.0199796 
308 1 1.69719 9.06694 1.56435 -0.208561 -1.37679 -0.635679 
309 1 0.428559 7.93313 1.69546 0.501105 -0.131466 -1.05758 
310 1 3.58541 6.30484 6.50791 0.708308 -1.06559 -0.357879 
311 1 1.89371 7.35623 7.90663 0.225806 0.66342 -0.0150347 
312 1 6.54043 2.05947 4.66472 -0.566469 -0.0749484 0.393946 
313 1 0.086651 7.56258 8.95316 0.581228 0.722352 0.00613442 
314 1 7.22683 2.52438 1.31677 -0.485431 0.127078 -0.706306 
315 1 5.30393 8.99657 1.53057 -0.589865 -0.0924005 0.634627 
316 1 2.74066 7.63642 8.2461 -0.461827 0.185344 -0.408823 
317 1 0.892198 0.204728 1.58558 0.0945472 -0.171968 -0.594134 
318 1 5.77464 2.88266 9.28624 -0.27278 -0.324117 0.377035 
319 1 4.81645 0.144813 5.12008 -0.569613 -0.259297 0.677953 
320 1 1.59427 5.86195 4.03361 -0.446063 0.968564 1.09786 
321 1 5.92053 1.45723 8.44129 0.68492 -0.0372927 -1.08788 
322 1 3.4418 1.20837 1.52531 0.268509 0.06333 -0.711785 
323 1 4.65143 0.769487 0.42373 -0.2176 -0.428332 1.02244 
324 1 6.86226 2.29858 3.65279 0.092427 -1.16829 -0.697575 
325 1 6.08185 0.894829 9.17201 -0.759257 1.49945 1.51277 
326 1 1.57796 5.87219 1.01412 -0.390479 -0.6856 -0.648282 
327 1 5.14611 0.76197 6.89398 0.666727 0.500236 0.200777 
328 1 7.99557 2.19169 0.718198 0.153067 -0.281064 1.5477 
329 1 8.17382 5.67849 7.08196 0.0751177 -0.612521 -1.31005 
330 1 1.66218 6.93733 2.72909 0.666436 1.2435 -0.639274 
331 1 5.72008 7.46882 0.449288 -1.80492 1.1621 0.919722 
332 1 6.73603 7.84033 7.26161 -1.34841 -1.19315 -0.94112 
333 1 1.73695 5.1507 0.408521 -0.300461 0.935757 -0.707847 
334 1 8.70718 5.9507 2.36702 -0.991314 -0.825549 0.697475 
335 1 5.91576 8.35419 0.0523748 -0.354505 -0.50809 0.172729 
336 1 3.95564 4.79508 6.62307 -0.564238 0.794938 -1.30881 
337 1 6.55577 1.84091 1.47215 0.0646608 0.591524 -0.822525 
338 1 2.76331 9.13643 5.0494 0.0717935 -0.425298 0.390202 
339 1 9.30364 2.64135 7.76661 -0.484079 0.343941 1.22612 
340 1 7.45626 1.04973 1.78716 -0.882324 -0.498003 1.02396 
341 1 9.11339 9.05734 8.89242 -0.148634 1.67313 1.51084 
342 1 8.28992 7.88215 0.689963 -0.527885 -0.47024 1.07913 
343 1 8.16353 7.84801 5.02713 -0.810761 -2.32097 -0.0432078 
344 1 7.60477 0.256539 5.06408 0.338142 0.30619 0.360002 
345 1 3.30211 3.05031 9.09191 0.457184 0.00194495 -1.35358 
346 1 3.3834 0.575563 8.55153 0.235596 -0.226759 -0.0253535 
347 1 0.0826531 0.800504 1.78752 0.87337 0.357259 -0.397104 
348 1 3.85937 6.3403 8.46773 -0.278857 1.847 -1.01227 
349 1 3.51908 7.08196 6.99415 0.935754 1.25649 0.519294 
350 1 1.27847 0.913839 7.2503 0.29748 1.38522 -1.86417 
351 1 0.119734 1.81201 1.79013 0.384734 0.342986 0.998669 
352 1 2.03418 8.41964 5.55244 0.49014 0.921754 1.13621 
353 1 3.85299 5.57736 5.95254 0.103572 1.00069 -0.0265496 
354 1 6.89415 8.44066 3.27124 0.142732 -0.133835 0.835181 
355 1 8.569 7.35666 8.78484 -0.735986 -0.73386 1.0285 
356 1 4.41069 9.19162 1.21186 0.508012 -0.0113284 0.745237 
357 1 1.63056 0.0730677 9.38524 -0.0540484 -0.883099 1.09283 
358 1 1.74834 6.64328 4.64884 0.346915 -0.351602 0.379896 
359 1 0.350759 6.0267 5.18193 -0.235944 -0.437691 0.0665433 
360 1 6.49828 0.46413 0.547048 -0.518673 0.259273 0.399454 
361 1 4.93989 3.37343 9.37641 0.175286 -0.401275 0.506617 
362 1 8.70869 4.2867 2.33256 -0.659326 -0.0138066 0.265674 
363 1 2.90608 1.5739 7.43813 -0.0798363 0.722573 0.234409 
364 1 7.65774 3.47124 2.76246 -0.356168 1.13621 0.714832 
365 1 7.90198 7.8971 9.21439 0.636804 -0.549945 0.886343 
366 1 1.30818 6.46828 1.88618 -0.528656 -1.43841 0.136086 
367 1 1.89508 6.46885 7.52757 -1.00265 -0.0133185 -0.0949363 
368 1 8.90155 9.13967 3.8903 0.673405 -0.995788 -0.283044 
369 1 5.08494 7.92952 7.79185 0.893121 0.89063 -0.567432 
370 1 2.7515 0.718687 7.82561 0.531537 -0.120093 -0.307091 
371 1 2.23706 5.46706 6.86884 1.42626 0.864533 0.449249 
372 1 1.57123 4.84381 1.29514 0.128642 1.54945 -0.0422585 
373 1 2.94395 8.51477 7.83658 -0.219884 -0.00855895 -1.99285 
374 1 0.634427 7.7373 5.04493 0.260893 -0.230586 0.153975 
375 1 5.8755 7.40903 7.94282 0.282054 -1.55548 -1.21021 
376 1 3.92777 3.69079 0.000741602 -0.918882 -0.314719 0.00772918 
377 1 1.48896 6.87539 -0.00588508 -0.372822 0.0726823 0.631108 
378 1 9.25777 0.362018 3.29569 -1.32005 0.134928 -0.62852 
379 1 5.52036 5.29436 5.05298 0.0532743 -0.824395 0.0686289 
380 1 1.89876 1.4851 8.7561 -1.45254 0.647573 0.652775 
381 1 2.70321 4.82333 7.53405 0.955952 -0.614267 -0.293336 
382 1 7.41712 6.45498 0.12343 0.0659977 -0.0130274 -0.146315 
383 1 0.590658 6.08789 1.33145 -1.36298 0.620293 -0.743411 
384 1 8.71196 4.7132 4.94301 -0.978484 -1.03004 0.740672 
385 1 7.58559 9.05756 1.05327 1.54795 0.5746 1.05745 
386 1 3.5711 1.45952 2.48294 -0.7258 0.055572 -0.0481011 
387 1 5.17249 1.06395 5.31636 -0.652262 -0.430546 0.701373 
388 1 4.99541 8.89922 5.85475 0.360806 0.564931 1.01915 
389 1 2.17932 3.13873 1.6204 -0.888038 0.043631 -0.181655 
390 1 1.83915 0.383587 7.83171 0.420719 -1.27358 0.530608 
391 1 5.22296 8.68167 4.91494 -0.247632 0.492515 0.500835 
392 1 5.88607 8.16696 7.35534 -0.323884 1.52136 -0.450174 
393 1 6.41012 8.98584 6.05646 -0.633945 -0.138196 0.193669 
394 1 6.532 7.66557 5.30245 -0.490518 -1.26643 -0.769184 
395 1 7.14552 2.61551 7.644 -1.0768 -0.259161 0.240013 
396 1 4.84186 0.797452 4.38169 -0.620507 0.0405013 0.455856 
397 1 4.64986 8.00933 4.48843 -0.412706 -1.19994 -0.215254 
398 1 4.74686 2.65075 6.84746 0.232156 -1.65559 0.0401829 
399 1 5.77902 7.14009 5.03268 0.24155 -0.40933 0.908872 
400 1 0.879203 5.79568 3.35688 0.100145 1.16178 -0.499001 
401 1 7.15859 4.34716 3.78924 0.308778 -0.0501627 -0.384087 
402 1 2.75462 6.51093 6.00189 1.50955 -0.248756 0.0215469 
403 1 0.969512 5.0269 3.98839 1.18839 -0.115606 0.0985569 
404 1 3.36812 5.42452 0.567919 -0.17658 -0.0474894 0.00502584 
405 1 3.52615 6.32802 7.55233 0.184986 1.18032 -0.000911225 
406 1 2.11973 4.27065 9.23484 1.63824 -0.0352298 0.109923 
407 1 3.25114 0.824056 6.99879 -0.479222 0.374144 0.313047 
408 1 9.27015 3.4276 2.32015 0.966622 0.0201463 0.0721162 
409 1 9.33307 7.04162 5.24028 -1.09217 -1.05394 -0.323364 
410 1 6.66709 1.62995 9.09323 0.0961897 -1.25968 -0.498914 
411 1 5.69813 0.532331 4.78784 -0.108014 -0.109858 0.831133 
412 1 1.26972 8.27138 8.51454 0.147454 0.31348 -0.0122977 
413 1 5.72171 2.88824 2.45906 0.448134 0.767133 2.53625 
414 1 7.33575 5.12752 3.21643 0.668664 0.0365015 0.416935 
415 1 5.60743 8.33499 8.47564 -0.0942566 -0.3784 -0.0152273 
416 1 7.24085 7.85619 4.68517 -0.838883 0.764519 0.120956 
417 1 0.663264 2.55356 6.9679 0.965713 -0.659554 0.0567013 
418 1 6.68521 4.65865 0.241436 0.882987 -0.194987 -2.2421 
419 1 1.33947 0.710109 0.907074 1.11274 0.640261 -0.544106 
420 1 3.54169 0.093149 6.48113 -0.726835 -0.393968 1.00175 
421 1 6.92421 1.41514 4.0442 -1.14029 0.628722 -0.707468 
422 1 0.931284 8.71545 2.01716 -0.169885 -0.3133 -0.632066 
423 1 0.371829 4.62994 6.28804 -0.0423923 -1.15026 -1.12657 
424 1 6.66454 0.130912 5.26413 0.578501 0.874037 0.362486 
425 1 2.23456 7.57103 4.69853 0.651822 -0.0534876 0.0271339 
426 1 6.29835 4.02751 0.829052 0.121875 0.00821218 -0.601429 
427 1 8.56356 3.66552 3.02587 1.02363 0.562504 0.767131 
428 1 8.79601 4.52749 7.53708 0.389069 -0.654551 -0.068506 
429 1 6.59262 5.43378 4.77871 0.730942 -0.52221 -0.90868 
430 1 9.20308 6.21979 6.72012 -0.438231 -1.29806 0.720262 
431 1 5.57153 1.28322 6.15584 0.0527284 0.453075 -0.0871813 
432 1 0.166935 8.41655 5.52598 0.0943927 -0.0532726 -0.438031 
433 1 0.62 3.44698 7.33066 -0.27334 0.212507 -0.185805 
434 1 8.88761 4.5242 3.24486 0.0125472 0.663618 1.24129 
435 1 8.20243 7.03396 0.219969 0.615276 0.74844 1.54477 
436 1 4.17128 1.98904 6.30182 -0.733951 -0.408669 0.192348 
437 1 6.11385 5.54841 0.386023 -1.1469 -0.611015 -0.0430952 
438 1 0.876588 2.89224 8.83413 -0.517699 0.307276 0.164427 
439 1 8.70267 4.12381 4.12343 -0.157126 -0.94908 1.02915 
440 1 2.59514 1.71773 2.57101 0.51293 -0.35088 0.343958 
441 1 8.52208 0.982551 3.07442 0.077177 0.19751 -0.126117 
442 1 6.87846 4.47875 4.70872 0.143966 -1.45647 -0.192887 
443 1 1.77219 5.07644 8.86279 0.331473 0.820798 1.60797 
444 1 7.49904 1.94325 9.38898 0.391218 0.993879 -1.99727 
445 1 0.779791 6.54877 2.73444 -0.51304 0.389456 0.535642 
446 1 6.65697 5.38673 6.37056 0.932723 0.689887 0.599913 
447 1 8.04609 5.94774 8.04086 0.0238634 1.12415 -0.277666 
448 1 8.31757 7.86114 8.02103 2.07454 1.31303 0.504704 
449 1 3.4713 7.54666 3.51268 0.943753 0.67101 0.289113 
450 1 7.25459 4.63218 6.31309 -0.973265 0.18986 -0.0641306 
451 1 6.92452 6.7403 5.37057 0.0963201 -0.200712 -0.265267 
452 1 7.34566 7.35268 0.45647 -0.480559 0.596531 -1.02628 
453 1 1.50767 3.5503 2.06799 1.00781 0.452536 -0.095945 
454 1 7.86831 6.25075 5.58098 -1.91154 1.04662 -0.435045 
455 1 1.04082 8.47317 3.3753 -0.362814 -0.00425064 -0.530609 
456 1 3.04386 0.682531 2.36332 0.931958 0.605961 -0.68786 
457 1 3.74785 9.03276 5.27821 -0.0387286 -0.408509 1.02598 
458 1 7.39777 7.14327 8.84486 1.45436 -0.275563 -0.219098 
459 1 0.294041 0.407223 8.73204 -0.346076 -0.0147097 -0.624191 
460 1 0.426906 5.6038 6.32038 -0.166329 -2.06158 -0.480682 
461 1 4.21479 0.935955 5.26282 0.0165968 0.668418 -1.19208 
462 1 0.256308 4.33536 2.50836 -0.791062 -0.331584 0.887533 
463 1 3.79553 7.9376 6.65929 -0.0308844 0.81063 0.506816 
464 1 0.843429 6.42733 4.39347 -0.947039 0.109849 -0.438623 
465 1 5.18046 1.29795 9.14556 0.172296 -0.141125 -0.260593 
466 1 7.41688 6.12146 6.77378 0.755773 -1.28644 -0.777336 
467 1 8.1935 9.12436 6.67275 0.943716 1.91944 0.0408309 
468 1 1.90579 4.2543 5.40953 1.74409 1.04212 -0.463157 
469 1 3.29411 7.32851 5.12152 -0.989262 0.191953 -0.169346 
470 1 0.701777 0.706338 3.59187 -0.91694 -0.296665 1.07509 
471 1 6.01045 8.78693 0.916155 -0.999341 1.23375 -1.10534 
472 1 2.40074 3.39386 8.98429 0.857993 0.438722 -0.495691 
473 1 1.01021 1.06216 1.93888 0.204832 0.883126 -1.52853 
474 1 3.16448 0.161586 0.609091 0.470495 2.47104 1.47549 
475 1 2.96885 5.60219 6.27922 -0.998207 -0.460337 0.491963 
476 1 7.05742 4.22741 2.84232 -0.76405 -1.41475 1.10905 
477 1 1.3065 8.94062 7.78236 -0.154475 0.616033 -1.44759 
478 1 4.6116 4.2211 0.379049 -0.284815 0.679367 0.73952 
479 1 3.29299 7.09845 8.84824 -0.159025 -0.599304 0.805108 
480 1 0.896871 6.83306 5.24504 0.974721 -0.175673 -0.523622 
481 1 3.51794 4.49858 0.308061 0.646909 -0.663248 -0.121878 
482 1 4.58915 8.39267 7.02112 0.0822841 -0.856058 -0.152619 
483 1 7.31452 9.34276 1.98128 0.852643 0.14706 -0.59184 
484 1 4.18504 2.01542 8.66843 -0.543152 -0.431336 0.105059 
485 1 1.02123 4.48355 8.7376 -0.914337 1.29874 -0.48782 
486 1 6.50121 6.86309 8.53259 0.628681 -0.423737 -0.14741 
487 1 7.22192 1.01325 0.129395 -0.135423 -1.81674 1.01732 
488 1 3.01062 8.05114 4.22029 -0.144672 -1.23186 2.05075 
489 1 7.18389 4.06753 5.52525 0.787421 -0.63738 0.528892 
490 1 5.66654 4.78159 8.35879 1.07705 -0.022104 0.296409 
491 1 8.88004 5.0894 0.0408329 0.687537 1.25134 0.889081 
492 1 7.41692 4.32274 7.25509 0.399303 -0.684797 -0.0179003 
493 1 5.15269 6.83577 6.49433 0.828993 -0.203443 0.165599 
494 1 5.38362 8.32758 2.19953 0.299091 -0.454632 0.00618486 
495 1 0.8637 2.7326 7.88579 -0.269841 1.03596 1.10507 
496 1 5.14489 4.55641 5.58308 -0.224159 0.9608 -0.40768 
497 1 5.17095 7.66386 6.9072 0.225537 0.490004 -0.0208117 
498 1 0.307367 0.352506 0.846646 -0.986943 -0.490068 2.88799 
499 1 7.70955 4.8551 0.420388 0.462966 -0.443863 0.110992 
500 1 0.0450209 3.2378 8.48507 0.136948 -0.827998 -0.242979 
501 1 0.30556 7.09816 6.797 -0.0964807 0.715941 0.450084 
502 1 0.503075 7.89926 8.11615 0.885324 0.0389859 -0.185235 
503 1 2.67381 1.89398 0.845482 0.115338 0.884693 -0.0400307 
504 1 2.72415 1.70672 9.31557 0.102735 0.43671 -0.848184 
505 1 4.39455 6.38949 5.01555 -0.373622 0.613242 0.627566 
506 1 0.328714 8.30681 2.62238 -1.4996 -0.54814 0.15799 