ITEM: TIMESTEP
1995
ITEM: NUMBER OF ATOMS
1000
ITEM: BOX BOUNDS pp pp pp
0.0000000000000000e+00 9.4000000000000004e+00
0.0000000000000000e+00 9.4000000000000004e+00
0.0000000000000000e+00 9.4000000000000004e+00
ITEM: ATOMS id type x y z vx vy vz 
1 1 0.130475 8.5392 2.18582 -1.39465 -0.330739 1.09412 
2 1 4.17337 7.70297 9.18863 -0.298784 -0.241943 -0.674334 
3 1 3.60471 8.97923 4.89685 1.57585 0.373954 0.945549 
4 1 8.44045 0.602528 0.020723 1.07188 0.0188359 0.122239 
5 1 0.452371 3.31547 6.46711 -0.735034 -0.157038 -0.955605 
6 1 1.02509 4.73409 9.27908 -0.498007 -0.132676 0.0158837 
7 1 1.41851 4.13849 7.85757 0.0171034 -0.53706 0.238446 
8 1 3.15776 7.34649 6.60433 1.72904 0.824896 -0.793549 
9 1 7.6488 8.74823 3.75117 -0.247963 0.824338 0.217527 
10 1 1.13555 9.11629 1.02439 0.389059 -0.330247 0.187009 
11 1 5.10096 2.32306 5.41066 -0.500371 -0.232555 -1.08434 
12 1 6.58326 2.48318 7.25725 0.56875 -0.471946 1.58625 
13 1 4.47983 5.54846 3.84033 -0.0217551 0.271062 0.24894 
14 1 5.03376 9.23824 6.04805 -0.316337 1.89504 0.773976 
15 1 5.6474 1.58695 5.67136 0.0891428 -0.464236 0.399999 
16 1 8.98118 2.49534 3.55797 -0.56693 -0.495859 -0.381579 
17 1 4.85665 3.48691 6.83256 0.681134 -0.817868 -0.26151 
18 1 9.12955 5.18877 5.43387 -0.447362 -0.3565 0.133822 
19 1 2.82498 5.58827 5.03104 -0.738293 0.149158 0.756807 
20 1 4.0074 7.28317 2.6355 0.931265 0.177866 1.13931 
21 1 7.65779 8.16561 4.51857 0.433955 -0.0342348 0.990237 
22 1 6.10944 8.21419 5.51919 1.06238 -1.34912 -0.307389 
23 1 4.20318 8.13794 7.51581 -0.0469921 -1.26592 1.00729 
24 1 2.30816 1.84472 0.659116 -0.105713 0.986968 -0.853815 
25 1 8.21322 9.23271 1.56161 0.386117 -0.619521 -0.265405 
26 1 4.00544 1.62554 3.60292 0.52269 0.131927 1.16177 
27 1 3.43 8.77225 7.77909 -1.2887 -0.130595 0.0507392 
28 1 4.66427 4.21147 4.04346 -0.0113338 -0.358786 -0.455238 
29 1 5.4985 1.41676 9.39486 -0.140938 -0.0426972 1.02676 
30 1 5.34976 6.58484 3.17533 -0.223964 0.386914 2.14525 
31 1 2.49603 4.06438 6.18767 0.0242132 -1.74269 0.633112 
32 1 2.02154 8.73493 4.70799 -0.0318926 -0.302997 -0.841093 
33 1 5.80586 4.27307 5.62752 1.19663 -0.0634537 0.48432 
34 1 7.48211 4.59851 3.92839 -1.4153 1.64417 0.0672008 
35 1 1.11742 0.478845 2.42822 0.121746 0.0884853 0.350193 
36 1 8.70826 4.02287 6.84129 -1.64991 -0.185065 0.436815 
37 1 1.20478 1.41477 1.93413 -0.167289 -0.39969 -0.575583 
38 1 1.68214 2.49703 0.374268 -0.411572 0.698597 0.456496 
39 1 0.546786 7.38294 6.9321 1.27787 0.351438 1.5904 
40 1 0.518208 1.84249 2.50193 0.626152 1.11783 0.858029 
41 1 5.45509 3.3444 0.860709 0.277574 0.467005 -0.599041 
42 1 1.36741 5.73599 3.72966 -0.507013 -0.725961 -1.34297 
43 1 5.77897 7.22874 2.61796 0.618336 0.86775 0.265103 
44 1 1.59161 0.277273 8.92897 -1.2343 -0.091585 0.231251 
45 1 7.07106 9.09119 4.38243 -0.461435 0.358531 -1.04136 
46 1 2.5916 7.21092 3.76806 -0.115564 -0.623939 0.342951 
47 1 1.08045 8.54823 2.4319 -1.7495 -0.0168415 -1.37396 
48 1 8.10679 2.84374 8.02868 -0.420502 -0.88783 -1.10918 
49 1 2.09088 3.52524 8.25348 1.24351 0.61372 0.695093 
50 1 0.0318504 6.59595 6.72298 -0.210374 -0.199934 -0.292486 
51 1 4.18307 6.68477 6.61704 1.1355 0.0706262 -0.439173 
52 1 6.78574 1.20728 6.53334 -0.0357064 0.841875 1.72164 
53 1 5.10366 7.47059 5.37318 0.251868 0.478906 0.252128 
54 1 6.74169 0.580863 4.38601 -0.970107 1.01283 0.201441 
55 1 6.16602 3.40422 5.6168 -0.351942 -0.158395 0.364547 
56 1 9.35756 0.772819 0.288961 -1.83325 -0.351742 0.0726474 
57 1 -0.00373995 8.69912 3.92961 -0.883538 0.60515 0.598422 
58 1 1.70544 6.17645 6.37939 0.446326 0.936225 -1.81344 
59 1 8.07462 1.55779 3.53481 0.495445 0.0537236 0.0501899 
60 1 0.323316 5.2793 6.6327 -1.22552 0.133297 1.56228 
61 1 5.00741 3.9673 2.37874 0.956914 0.708218 0.00237379 
62 1 3.09359 8.56018 8.73773 0.462556 -0.504256 0.446361 
63 1 2.19382 0.765473 8.39331 0.487978 0.689819 0.0463159 
64 1 4.64294 7.7092 4.51972 -0.143938 -0.906409 0.359226 
65 1 1.31563 8.69113 4.05008 0.151688 0.137299 -0.616177 
66 1 4.67929 3.21616 3.80976 0.530946 -1.34785 -0.63879 
67 1 1.26025 7.31932 5.44575 0.206043 -0.54145 1.50658 
68 1 5.56047 3.8001 4.82973 -0.485344 -0.296196 0.797937 
69 1 3.94774 3.90651 1.19292 -0.038978 -2.79115 0.420533 
70 1 8.09855 0.410204 8.09858 0.363012 0.325003 0.349605 
71 1 0.744775 6.23642 6.19615 1.07347 1.12129 -0.261437 
72 1 1.60506 9.23505 5.85699 -1.07349 -0.0837674 0.302787 
73 1 5.8174 8.98086 7.23006 0.356244 0.101596 -0.304705 
74 1 3.56668 0.278998 5.62678 1.14614 -0.582336 -0.231084 
75 1 1.16822 3.0866 9.23074 0.765659 -0.523643 0.459754 
76 1 9.30338 2.85109 5.81738 -0.130793 0.287047 0.774451 
77 1 9.40213 1.74593 0.634091 -0.0100283 -0.135009 0.336991 
78 1 6.31638 5.94636 3.37143 -0.566702 0.596452 -0.0668662 
79 1 7.17035 3.21592 7.85792 -0.35413 1.46515 0.382031 
80 1 2.726 0.927277 2.56365 -0.123672 -0.628364 0.0766794 
81 1 3.66492 6.31012 4.99811 -1.40683 0.469507 -1.19901 
82 1 3.35919 6.46709 2.65807 0.808696 -2.25305 0.162242 
83 1 5.47571 8.99487 3.32056 -0.606601 -1.37499 0.0205665 
84 1 7.1467 7.8485 1.66742 0.162625 -0.507423 1.22477 
85 1 4.75947 0.399159 7.83543 0.494709 -0.388598 0.428598 
86 1 4.18304 1.22474 7.86288 0.36763 0.0386726 -0.768482 
87 1 4.91797 1.81086 6.23343 -0.544762 -0.691257 0.0578085 
88 1 6.70311 4.00905 9.35556 1.68794 1.27956 -0.71604 
89 1 4.48941 1.63185 7.04846 0.80244 0.578544 -0.0123928 
90 1 1.68808 1.18134 1.04706 -1.22489 -0.276617 1.27297 
91 1 2.33468 5.36769 8.15589 -0.734996 -0.289774 -0.25474 
92 1 3.01924 3.70062 8.26978 0.760224 -0.0766417 0.749195 
93 1 3.15211 4.43548 6.78963 -1.62421 -0.273797 0.276045 
94 1 3.63878 0.879806 2.99834 -0.0460037 0.237545 -1.16288 
95 1 1.00888 7.27523 3.06352 -0.926517 0.431013 -0.188036 
96 1 3.02405 8.22155 5.26018 -1.14048 0.0653074 -0.00356085 
97 1 5.32675 0.378096 0.818287 0.0713755 0.524348 -0.65955 
98 1 4.3048 8.03337 5.37062 0.488712 -0.15739 0.490686 
99 1 9.21587 0.873159 5.795 -0.928581 0.498758 -0.928693 
100 1 6.36393 7.87958 3.07901 -0.701677 0.828333 1.02843 
101 1 6.84372 8.23248 4.02658 1.9476 0.665951 -0.382605 
102 1 1.9373 0.793472 1.99343 1.51351 0.260168 0.116767 
103 1 4.17527 0.106716 6.36461 0.0784888 -1.15514 -0.0880178 
104 1 6.00217 8.97568 0.830642 -0.932229 0.220847 -0.256172 
105 1 9.08554 6.3525 3.51102 -0.524786 -0.728801 -0.369886 
106 1 2.74917 9.20389 5.20971 -0.175433 1.27309 -1.63574 
107 1 1.40941 4.86755 3.3742 0.643777 1.36713 0.687384 
108 1 3.35126 0.952049 3.92322 1.23857 0.955958 -0.239566 
109 1 9.37755 7.64506 1.74351 -0.389631 -0.566501 0.851066 
110 1 3.543 0.000973318 4.02785 -0.619052 0.441139 -1.32315 
111 1 7.87447 0.576027 3.16543 -0.690631 -1.16581 0.484081 
112 1 5.53486 8.43865 1.70726 0.9197 1.33756 1.26567 
113 1 4.16529 4.34918 5.43765 0.623289 -1.151 -0.895102 
114 1 0.766321 8.31897 1.52537 1.61564 1.51707 -0.0275927 
115 1 0.0489587 8.45643 6.39855 -0.143863 1.24464 -0.264294 
116 1 3.93118 4.87546 1.22492 0.584267 -0.497915 -1.00818 
117 1 3.58098 7.28494 5.19666 1.24993 -0.0507531 -1.15313 
118 1 8.62474 0.787117 3.75682 0.961533 0.590528 -1.38898 
119 1 7.94283 3.54258 7.32028 -0.553962 1.35037 -0.0912843 
120 1 7.56981 4.07025 8.01035 1.50541 0.289938 -0.469824 
121 1 6.61606 0.102563 0.257409 1.28665 -0.797429 0.553293 
122 1 0.954881 8.38882 9.02892 -0.126738 -1.40993 -0.30996 
123 1 5.70964 1.0041 1.41559 0.247711 1.43907 0.159361 
124 1 6.69954 4.26056 1.58575 -0.273544 -0.862153 0.911301 
125 1 8.06932 4.78627 2.32082 0.268404 -0.677948 0.120149 
126 1 4.44729 5.8201 4.88696 -0.617322 1.10587 0.624875 
127 1 3.08428 8.7729 3.41983 0.513072 0.244402 -1.24034 
128 1 8.81033 9.35893 4.27434 -0.813018 -0.628479 0.169637 
129 1 2.81423 0.575981 1.65913 0.612801 -0.353587 0.154838 
130 1 8.95689 6.78641 5.87852 -0.662211 0.918655 -0.334305 
131 1 8.23581 3.72076 1.28819 -0.0300082 0.224792 -1.0481 
132 1 7.58137 9.06706 2.87572 0.503477 0.192249 -0.0654028 
133 1 0.90788 0.422276 3.35725 1.02908 0.555902 0.0426878 
134 1 8.17825 5.11082 5.59249 0.782353 0.806751 -0.460711 
135 1 3.69819 6.83037 1.19605 1.26618 -1.0522 -0.353441 
136 1 1.7786 4.64589 5.90434 -1.07128 -0.374848 -0.631085 
137 1 4.99443 1.77127 7.83829 0.274264 -0.694287 0.136054 
138 1 6.08167 0.590916 7.27516 -0.952349 -1.5763 -1.28877 
139 1 0.216594 8.71098 7.91736 0.303578 0.394595 0.396228 
140 1 5.7672 6.02457 5.8724 0.130455 0.896179 -1.52765 
141 1 6.38691 0.891813 3.55974 -0.935378 0.863682 -1.32741 
142 1 2.38135 6.06163 7.07022 -0.0474345 0.157848 0.668295 
143 1 0.71903 1.15913 0.837547 -0.488564 -1.50333 0.609587 
144 1 5.39441 7.06672 4.56762 0.283181 -0.139845 0.888071 
145 1 0.115175 5.98933 8.5436 -0.293999 -0.760048 0.723419 
146 1 6.86868 5.49459 2.76671 -0.636526 -0.189826 -0.589449 
147 1 1.70891 7.94604 0.0100734 0.330778 1.17287 -0.286187 
148 1 1.87325 2.78549 1.33931 -0.761531 0.43257 0.469744 
149 1 0.326464 0.753655 1.95388 1.07726 -1.86437 -0.0210069 
150 1 0.420004 7.16858 5.97316 0.795578 1.08324 -0.484327 
151 1 7.77781 1.32941 0.041501 0.150348 -1.34251 -0.501131 
152 1 8.9487 3.77958 4.21892 -0.945976 -0.216266 0.811807 
153 1 1.35425 6.16226 5.45088 -0.964402 0.875256 -0.685637 
154 1 4.33998 3.22795 7.71362 -0.504829 0.143771 -0.0900688 
155 1 2.91555 0.640024 9.26331 0.0388468 -0.0093078 -0.733865 
156 1 5.46113 0.63998 5.57642 1.84879 0.094699 -1.23872 
157 1 5.69785 4.26014 0.95133 -0.377151 0.160043 -0.750697 
158 1 5.69211 0.189653 8.04709 1.04956 0.378527 -0.214371 
159 1 2.3929 7.97456 3.21764 1.32471 -0.868965 0.778693 
160 1 8.68356 7.13688 3.08945 -0.8724 1.26632 -0.646213 
161 1 3.39787 9.17303 6.84556 1.16381 -0.517071 -0.268661 
162 1 5.60351 7.99072 4.6535 -0.400661 -0.244097 1.25681 
163 1 7.51018 0.0336692 7.45248 -1.33232 -0.227306 -0.441068 
164 1 8.76869 3.11487 0.695983 0.648539 0.164721 -0.209777 
165 1 6.45893 3.59522 0.873179 1.50523 -0.720604 0.115781 
166 1 5.12616 2.73235 8.00017 -0.209901 0.136746 -0.231496 
167 1 6.51298 8.73625 1.61839 0.303344 -0.0152949 -0.217064 
168 1 8.96192 4.04628 0.802477 -0.643418 -0.354388 0.101649 
169 1 7.16967 1.15928 5.08745 0.292435 -0.116658 1.00961 
170 1 3.37997 6.59418 8.09278 -0.862978 -0.533766 -1.18132 
171 1 4.27845 6.25231 5.72845 0.0444737 0.610084 0.115952 
172 1 4.82974 0.738168 9.3906 0.142568 -0.857913 -1.14306 
173 1 6.629 2.5155 9.17974 -1.38685 -0.514677 -0.57951 
174 1 3.97872 3.20631 6.78155 0.127414 1.04089 0.728267 
175 1 0.301163 3.20729 0.303656 -0.463863 -0.447183 -0.796635 
176 1 1.93952 6.20287 0.0772612 0.490889 -0.17409 0.606663 
177 1 4.3098 6.52176 3.15577 -0.886718 -1.48035 -0.410911 
178 1 8.89972 0.855452 7.79042 -1.10404 -0.285892 0.291406 
179 1 9.04431 9.24981 0.154632 0.874874 0.679244 -0.0274501 
180 1 7.2687 3.47438 1.58689 -0.0585289 0.677643 -0.392337 
181 1 8.18653 1.25649 2.58636 0.516896 0.494209 -0.578492 
182 1 9.03861 3.35248 5.06656 0.299809 -0.983469 -0.106741 
183 1 7.95897 1.24562 7.62383 1.11096 0.881835 -1.13777 
184 1 3.6527 2.05561 1.74464 -0.89899 0.322462 1.60387 
185 1 6.17229 0.186161 2.98053 0.182589 -0.946787 0.0911017 
186 1 5.76492 2.31405 0.0925946 0.277936 0.327115 -0.6366 
187 1 3.98499 5.75266 6.53998 -0.523003 -0.940546 0.433917 
188 1 4.62484 4.99137 6.58414 1.70329 -0.0542312 -0.563811 
189 1 8.99567 3.18051 2.50644 -0.659456 0.373355 -0.789635 
190 1 0.581319 6.62586 5.20743 0.25161 0.15123 -0.204283 
191 1 1.306 7.5552 8.65129 0.615985 -0.11879 1.0336 
192 1 0.647148 0.516495 8.93259 -1.04424 0.845058 0.311822 
193 1 2.4292 4.0676 8.96668 0.0860386 0.430863 0.362418 
194 1 7.14601 1.78722 8.88951 0.681991 -0.656687 -0.0855895 
195 1 3.89975 3.70324 3.73891 -0.583274 -0.576072 -0.285801 
196 1 6.67064 8.76981 3.2423 -0.566484 0.316694 -0.961763 
197 1 0.0113738 5.12427 8.0751 0.0960425 0.286746 -0.729911 
198 1 0.50692 7.79627 5.22683 0.00104826 -1.45168 -0.671447 
199 1 5.81295 1.13703 6.4967 -0.3606 -0.0726543 0.341148 
200 1 6.56808 4.58551 0.695798 0.137315 0.672095 -0.183415 
201 1 4.66048 9.37362 1.65098 -0.340258 -0.664619 0.410461 
202 1 3.94953 3.93023 8.30824 0.088536 -1.14025 0.218557 
203 1 8.45913 2.94509 4.34179 -0.253766 0.994842 -0.67709 
204 1 5.02528 9.3446 5.06213 -0.542333 -0.969704 0.245375 
205 1 9.35306 0.720758 4.42299 -0.341975 0.555576 0.603164 
206 1 2.16034 7.98914 4.14547 0.711391 0.618379 0.0779414 
207 1 9.34631 1.97139 8.65541 1.28887 0.560707 -1.15701 
208 1 7.96335 2.3427 5.858 -0.456688 0.117324 0.644906 
209 1 0.135822 6.47136 4.34286 0.0860536 -0.853959 1.46335 
210 1 0.944016 5.95088 4.55837 1.34935 1.03297 -0.587959 
211 1 3.43246 8.21402 0.193425 0.258443 0.25587 -0.447128 
212 1 3.0611 4.38009 1.14217 -0.81074 0.66702 -0.950917 
213 1 8.28573 7.45068 5.75422 1.07318 0.375166 0.109529 
214 1 3.13057 1.48206 0.307123 -0.207003 0.260815 -1.63978 
215 1 8.48832 8.43314 4.05583 0.614162 -0.227163 1.68255 
216 1 5.04926 8.8701 7.85649 0.988089 -0.421026 0.633355 
217 1 7.13356 4.14632 7.11078 0.580289 -0.172502 -0.69437 
218 1 7.33401 8.00359 3.23983 0.869359 -0.572797 1.54293 
219 1 7.31226 3.08084 5.89922 -0.441669 -0.347602 -0.204123 
220 1 1.33423 0.509239 0.443565 -1.38962 0.990656 0.492687 
221 1 3.09661 5.37417 1.05506 -0.88902 0.0323364 1.16023 
222 1 3.81398 7.23099 4.28304 -0.117309 -0.832426 -0.256685 
223 1 9.28089 1.01353 8.65555 -0.0556424 0.388928 1.00624 
224 1 1.14986 4.60895 0.973164 0.698222 -0.679708 -0.810409 
225 1 1.18615 3.63287 2.4082 -0.450245 0.185983 0.322031 
226 1 6.67218 0.0892785 5.19409 0.908699 0.499054 -1.64533 
227 1 0.773058 7.52309 0.0369558 1.24243 0.136654 0.959424 
228 1 3.15196 6.27186 0.628385 1.31098 0.747892 0.621362 
229 1 2.06745 1.82305 1.62102 -0.787593 0.494341 -0.0803261 
230 1 3.42802 0.672806 0.744339 1.15879 -0.281293 0.18391 
231 1 6.59642 9.28545 7.68207 -0.382626 -0.191937 0.854417 
232 1 0.953965 6.59332 3.78513 0.304455 -0.638277 0.248191 
233 1 0.904595 7.95409 6.22938 -0.43529 -0.134578 0.951253 
234 1 3.97404 1.24526 1.26558 0.446464 -1.24815 0.973336 
235 1 0.932623 8.89649 6.46241 0.62065 -1.22062 -1.45283 
236 1 6.44661 3.88132 2.46718 -1.08217 -1.43189 1.21029 
237 1 5.95152 8.32161 3.80219 -1.34973 1.20931 -0.236159 
238 1 8.47505 8.27689 6.33596 -0.755319 0.0085338 -1.25288 
239 1 3.05926 5.44153 6.63449 0.358887 0.895301 0.611967 
240 1 5.67907 2.33211 4.06533 1.32073 -0.358495 -0.0880189 
241 1 1.04051 2.71576 6.94791 -0.619621 -1.17609 -0.245306 
242 1 9.24873 7.52976 9.39524 0.713634 1.01283 -1.1631 
243 1 8.12983 7.73663 1.67146 -0.618654 0.0569321 0.513746 
244 1 2.47428 6.26709 8.01097 0.96713 -0.0304644 0.0107211 
245 1 2.02337 6.18107 1.88452 0.484506 -0.570898 -0.837241 
246 1 5.12802 6.16967 4.36771 0.175491 0.495751 0.267842 
247 1 7.61893 7.36805 5.0549 0.623586 -0.406828 -1.24685 
248 1 2.69576 3.77802 0.428249 1.29836 1.07954 -0.272567 
249 1 7.0669 2.14909 5.09642 0.0876852 0.534235 1.14513 
250 1 2.77012 7.38497 5.71352 -0.492803 -0.132162 -1.19624 
251 1 4.72844 1.41315 5.38707 -0.960023 -0.754441 0.603504 
252 1 7.74289 5.71812 2.40285 1.21662 -0.166009 -0.101753 
253 1 4.4707 2.62124 8.74671 0.0360213 0.05556 1.3575 
254 1 3.58765 7.88342 5.96086 0.0564914 -0.314689 -0.629096 
255 1 0.677223 8.30796 7.16083 -0.630496 0.718445 -1.18714 
256 1 2.94299 3.12874 2.2513 0.192686 -1.03965 -1.31653 
257 1 1.75773 9.36393 6.912 -0.254813 0.201821 -0.191689 
258 1 3.50642 4.54246 2.83998 0.609761 -0.230023 -0.67416 
259 1 9.0784 1.4651 2.16402 -0.601456 -1.06496 0.232514 
260 1 0.637957 7.25629 4.44291 1.52807 0.700884 0.0522167 
261 1 2.41018 8.57811 0.0430394 0.591961 0.0170107 0.515224 
262 1 0.999932 9.13657 8.42458 0.759635 -0.0139857 0.296118 
263 1 7.0949 0.827899 1.8054 -0.611825 -0.264789 0.00623527 
264 1 0.867758 7.64179 2.18853 0.597643 -0.18767 1.0267 
265 1 0.149695 6.77589 7.67746 1.77907 1.95654 0.709156 
266 1 1.66732 0.185773 3.92424 0.132886 0.755708 0.0666951 
267 1 2.78443 2.47051 1.50886 -0.473139 0.636362 0.217794 
268 1 4.22578 5.1729 2.99633 -0.693152 0.226608 -0.318022 
269 1 4.43387 6.87274 4.90715 1.08129 -0.139894 1.17067 
270 1 4.37969 1.55334 2.11219 -0.89911 1.04141 -0.614982 
271 1 0.679231 9.22159 1.83167 -0.873268 1.8001 -0.227959 
272 1 9.09508 7.54957 6.5042 -0.0965245 0.250104 0.473572 
273 1 4.95717 5.88982 1.83814 -0.115072 -0.696162 0.281505 
274 1 7.21732 8.90751 9.16997 1.70846 1.30869 0.284245 
275 1 0.179515 4.70687 1.20924 0.198868 0.56533 0.811998 
276 1 5.00742 0.0628782 8.71004 0.898176 0.579851 0.0837129 
277 1 7.29049 0.536181 5.88662 -0.0333559 -0.14961 -0.976381 
278 1 4.58405 3.69973 4.84734 -1.00479 1.29538 0.438931 
279 1 8.14373 2.94726 9.36515 -1.43156 -0.569117 -0.741816 
280 1 0.078717 8.76586 1.05914 0.308039 -0.0688522 1.48778 
281 1 7.28503 3.89493 4.53584 1.01236 -0.770902 0.439829 
282 1 6.68033 9.01896 6.0316 1.17593 -0.853151 -0.53477 
283 1 2.56764 8.77654 7.09612 0.621052 1.41146 0.651434 
284 1 8.92128 5.90739 9.31863 0.491926 -0.408174 -0.0803948 
285 1 1.08214 3.94711 6.04457 0.539576 0.069092 0.411381 
286 1 0.283644 7.76415 0.863583 -0.500294 -0.266474 -0.326392 
287 1 0.489821 1.43824 9.26207 -0.037395 0.109658 -0.425716 
288 1 4.50389 3.06389 1.20007 -0.0274332 1.85628 1.37976 
289 1 4.18094 2.268 7.86714 -0.803712 2.30735 0.818378 
290 1 6.02299 5.01537 3.57875 0.00261795 -1.41531 0.467386 
291 1 7.02359 6.45157 2.57108 0.0734192 -0.852535 0.619846 
292 1 5.1718 8.46812 5.38575 -0.210193 -0.0667791 0.833964 
293 1 3.30675 4.90748 1.94973 -0.809293 0.663236 0.170049 
294 1 1.46466 7.73176 7.00039 0.67375 -0.811503 1.05443 
295 1 1.62868 2.72198 8.44103 0.65416 0.107231 0.827633 
296 1 2.53539 9.19728 6.23691 0.519762 -0.966283 0.26544 
297 1 5.0137 8.17011 3.78859 -0.0284357 0.879639 0.754373 
298 1 7.73825 8.48983 1.23577 0.062456 0.565425 0.804312 
299 1 1.04667 6.18142 0.47689 0.955238 -1.13395 0.444427 
300 1 2.11119 4.08902 1.14676 -0.116608 0.114762 1.54041 
301 1 1.6787 5.90078 8.60697 1.38683 0.644683 -0.149228 
302 1 7.51344 1.62423 0.925128 0.720395 0.151641 -1.21189 
303 1 1.99754 1.5853 2.56732 -0.392509 -1.7412 0.449722 
304 1 1.09501 8.2363 0.644691 0.553814 0.201905 0.760221 
305 1 6.73202 1.5598 8.04212 -1.16087 -1.09032 -0.696784 
306 1 0.257388 4.24589 6.73081 -0.532079 0.363926 -0.690258 
307 1 8.01267 3.74332 3.98072 -0.278934 0.667498 0.931588 
308 1 3.10331 3.18506 9.14414 -1.02633 0.191693 1.67389 
309 1 4.95439 8.53484 6.94484 -0.238731 -0.923695 0.423434 
310 1 1.96642 0.289151 4.89055 1.36297 -0.708522 1.36931 
311 1 4.19754 7.68882 3.55795 0.702895 -0.165881 -1.26578 
312 1 0.695789 8.86307 3.30262 -0.251792 0.524749 -0.907102 
313 1 4.9469 0.806598 6.35528 -1.57685 -0.572612 -0.951169 
314 1 4.50711 5.24323 5.64459 -0.224634 -0.261408 0.226803 
315 1 9.06406 4.85884 7.21678 -0.342911 1.49812 0.273899 
316 1 8.35858 6.03296 5.69265 -0.545017 0.492923 1.19728 
317 1 6.5983 1.34317 1.19421 -0.527363 -0.328313 -0.23647 
318 1 3.27955 7.59163 8.84863 -0.963443 -0.588843 1.3352 
319 1 2.0106 6.79726 5.63388 -0.53679 0.738779 0.37269 
320 1 6.49156 4.01305 4.98952 -1.23351 0.816622 0.770855 
321 1 4.00993 6.21449 7.44035 -0.933151 -0.244606 0.688552 
322 1 6.27004 8.7101 4.71589 0.30211 0.565058 -0.217439 
323 1 8.60432 2.9004 1.62115 -0.153734 0.208544 -0.527602 
324 1 5.04848 7.90088 1.06762 -0.167203 -0.858821 -0.707584 
325 1 6.78077 3.8508 6.22307 0.234572 0.835574 -0.86563 
326 1 6.35834 2.49471 5.62853 0.120245 0.799589 0.259309 
327 1 9.25638 5.8845 6.0669 -0.00709447 -0.00747787 -1.01684 
328 1 7.2701 4.32642 2.43839 -0.868174 -0.140748 -0.137337 
329 1 9.16016 6.51075 1.46931 -0.234109 0.729355 -0.446947 
330 1 8.46613 1.48351 5.99432 -0.53893 -0.416783 0.416747 
331 1 9.13402 6.16931 5.16021 0.14652 -0.598512 0.655088 
332 1 2.00223 7.78337 0.89328 -0.36967 1.1295 0.980319 
333 1 2.42819 7.81975 7.12041 -0.318396 -0.183644 -1.7091 
334 1 5.26184 2.02913 8.69186 -0.229368 -0.746871 -1.27471 
335 1 7.3803 5.04603 0.906808 -0.274027 0.674768 -0.0672589 
336 1 1.17007 9.14795 4.98279 -0.00607379 -0.653439 0.072902 
337 1 6.88629 3.11802 5.03465 -1.12435 -0.566156 -0.793858 
338 1 5.99214 6.34491 4.91234 -0.219452 -0.262073 1.36624 
339 1 6.82319 6.85898 4.84961 0.1199 -0.443803 -0.259742 
340 1 8.56192 2.43189 7.27978 -0.944002 1.06591 0.0060086 
341 1 2.52871 0.875408 0.772097 -1.15558 1.6047 0.201801 
342 1 6.16926 3.13313 7.85625 0.348395 1.91164 0.873818 
343 1 8.79157 1.3133 5.01075 -0.01455 0.305899 -0.671824 
344 1 7.59732 1.99569 8.1002 0.332721 1.36128 0.201954 
345 1 5.37152 0.383486 3.90823 -1.33276 -0.103883 -0.473134 
346 1 0.934277 6.51859 7.13366 -0.0634541 0.442349 -0.616911 
347 1 4.11862 4.17117 6.66934 0.432258 0.188968 0.476895 
348 1 8.50876 1.96587 4.30507 -0.0228898 0.935774 0.538636 
349 1 3.73555 4.89426 6.14221 -0.0891593 0.561785 0.724481 
350 1 7.03168 8.76874 6.94103 0.731169 -0.2692 -0.906111 
351 1 6.99427 0.791475 2.78793 0.315161 -1.00002 -0.495258 
352 1 2.81321 6.51137 5.25911 0.311534 -0.664536 0.680493 
353 1 4.94831 1.32182 0.774473 -1.10449 0.268565 -0.581835 
354 1 4.2183 0.592279 8.57693 -0.00863281 0.468194 -0.412596 
355 1 1.01905 8.22616 8.0605 0.8272 -1.67767 1.12377 
356 1 6.28973 5.46087 5.26798 0.905248 0.360465 -0.877991 
357 1 0.14787 3.3261 3.50061 -0.269952 -1.09364 -1.10895 
358 1 2.35513 6.85812 0.649811 -0.523838 0.416751 1.08648 
359 1 8.84389 0.180883 8.62546 -0.571888 1.38263 -0.514628 
360 1 3.9733 5.87567 1.20812 0.484096 0.259616 -0.809727 
361 1 9.12287 4.34637 8.56826 0.74847 1.66188 0.991194 
362 1 8.71011 7.80335 0.867414 -0.274404 0.036307 1.57009 
363 1 1.14535 0.624419 8.04936 1.27345 -0.458389 0.804742 
364 1 0.427972 3.76709 1.03424 0.00292028 -0.380873 -1.45226 
365 1 5.62194 7.43125 3.58338 -0.117582 -1.03022 1.4284 
366 1 8.02574 0.908163 5.42302 0.123519 -0.122469 -0.64824 
367 1 3.88269 2.26032 6.67486 0.419429 0.112472 -0.67239 
368 1 4.92279 1.2759 3.83576 0.221528 0.147155 0.92043 
369 1 2.23097 0.11278 0.2742 -0.231759 -0.683955 2.38169 
370 1 1.93363 4.3655 6.934 -0.461099 0.853548 -1.03315 
371 1 0.0219219 4.81395 2.37197 -0.793338 1.36794 -0.797837 
372 1 8.31925 0.439277 7.15658 0.316685 -0.614627 0.232658 
373 1 0.58174 2.29323 6.20989 -0.0328205 1.46068 0.403412 
374 1 7.24098 8.70804 5.24011 -0.485856 -0.36062 1.29466 
375 1 7.38447 3.95953 5.47607 -0.339628 0.124038 -0.702681 
376 1 8.30181 4.19463 5.73268 0.894977 -0.123746 -0.903824 
377 1 4.5784 2.1718 2.88424 0.0586055 -0.335576 -1.04905 
378 1 7.78009 0.351541 2.24078 -0.540257 -1.08361 0.815485 
379 1 0.769489 5.13258 1.85626 0.926877 -0.641049 0.185959 
380 1 5.02639 1.06144 8.50672 0.678135 -1.67996 0.771973 
381 1 5.85657 2.75596 8.65891 0.546712 0.501965 -0.219696 
382 1 6.97418 4.92539 4.76489 0.685374 -0.207315 -0.134631 
383 1 2.49078 8.53312 7.99983 -0.537614 0.0766857 -0.534478 
384 1 4.25996 0.522783 2.34009 0.818732 -0.111933 0.489527 
385 1 0.837824 0.41273 6.73001 -1.08722 -0.30593 0.0614892 
386 1 0.434408 5.78501 3.72029 -0.591472 0.246906 0.0928268 
387 1 5.95137 4.75139 4.77184 -0.100411 -1.74881 1.12962 
388 1 2.63617 7.9184 1.96286 0.325735 0.12753 -1.32134 
389 1 1.81699 8.50568 6.50374 0.778352 -0.158614 -0.0788849 
390 1 3.76374 0.305495 1.54384 0.569892 0.167644 -0.302436 
391 1 4.10037 2.05225 5.73005 1.11325 -0.281759 0.299702 
392 1 0.137391 7.74494 7.76675 -0.216322 0.494153 0.587358 
393 1 5.59787 3.30208 4.01331 0.715857 1.27521 -0.857294 
394 1 6.20314 0.657762 2.14174 2.22988 0.989759 -0.100653 
395 1 4.59998 3.17257 2.82179 -0.90577 -0.00505711 0.050919 
396 1 6.13773 4.50756 6.49743 -0.792575 0.480826 -0.049161 
397 1 9.27658 2.59525 7.92448 -0.0343269 0.778715 0.210826 
398 1 5.21998 5.1218 4.28908 -0.369672 -0.847638 -0.824359 
399 1 1.44132 6.85292 2.28515 1.00681 2.89033 1.45888 
400 1 0.88044 5.7031 9.08645 -0.969154 0.634981 -1.27827 
401 1 4.11401 6.45387 0.429712 1.42431 -0.710587 -1.3255 
402 1 6.92523 5.37327 3.85744 0.287124 0.933291 -0.0246946 
403 1 1.97338 5.98208 4.74713 0.795121 -0.0555504 -0.988407 
404 1 8.59479 0.682179 1.87239 -0.732953 0.669369 0.242192 
405 1 2.38759 0.0490193 2.47531 0.396259 0.462468 -0.955236 
406 1 3.40415 2.29938 0.77943 -0.319887 -1.16157 0.0214677 
407 1 5.60995 4.27903 4.01061 0.597654 -1.10069 0.512586 
408 1 6.43033 6.92296 3.22665 -0.400586 -0.669987 -1.03449 
409 1 3.39289 0.078265 8.61034 -0.359035 0.739161 1.21172 
410 1 1.15338 7.47234 1.29896 -0.665768 0.789879 1.26496 
411 1 9.30301 1.8485 5.66305 0.750655 0.384593 1.21623 
412 1 1.33341 8.32229 5.47776 0.0901627 -0.0607616 -0.253794 
413 1 1.81102 7.6858 2.4524 0.409553 -0.0434863 -0.585884 
414 1 1.53444 5.36495 0.422344 0.728872 -0.9392 0.830137 
415 1 6.04518 1.97397 4.89449 -0.772839 -0.771233 1.46822 
416 1 7.96522 9.26365 5.64216 -0.178656 0.831982 -0.184414 
417 1 7.95193 1.7992 5.09908 0.615053 -1.1652 0.172143 
418 1 7.3347 3.98248 0.785934 -0.327901 1.05806 -1.486 
419 1 1.81793 3.40935 0.589258 0.969502 -0.719866 1.2027 
420 1 0.431644 3.86904 5.31334 -0.468912 -0.43597 -0.504414 
421 1 9.23016 7.16292 5.03101 -0.212934 0.635998 0.0153589 
422 1 0.200952 7.16129 3.57109 0.641697 0.237776 -0.251359 
423 1 8.9603 3.57187 9.24253 -0.587925 -0.821693 -0.607941 
424 1 2.60454 0.0313158 4.20933 0.110448 0.0665864 0.430556 
425 1 3.7058 7.9356 1.07972 -0.565599 -0.386432 -1.2543 
426 1 5.79938 3.70678 8.5818 1.54141 -0.316928 -0.197398 
427 1 3.78291 1.17968 5.31234 -0.184494 0.435218 0.514803 
428 1 1.29592 7.02801 6.37562 0.180947 -0.0507739 -2.13126 
429 1 7.56066 3.70432 8.93328 -0.608915 0.141545 0.844549 
430 1 2.20538 5.2647 9.15882 -0.0126943 0.889591 1.10576 
431 1 7.88257 8.47568 2.1867 -0.0818683 -0.181729 0.0181841 
432 1 3.86296 9.31808 3.14745 -0.35406 0.406875 0.210133 
433 1 8.43269 1.25199 0.758559 -0.356522 0.67479 0.120014 
434 1 1.46692 3.95234 8.86699 -0.790793 -0.131566 -1.36345 
435 1 4.28912 7.42201 1.7016 -0.00732709 -0.210626 0.452492 
436 1 6.84916 9.35885 2.31624 0.91736 -0.868955 -1.06139 
437 1 3.26403 7.87742 3.72255 -0.0935689 1.25791 0.62493 
438 1 8.51969 9.11831 2.45298 0.455389 0.249494 0.235203 
439 1 7.80682 2.97085 0.879961 0.473615 0.0696167 -0.100712 
440 1 7.98565 3.69486 2.22073 -0.242086 -0.890742 0.824974 
441 1 9.3228 7.8537 4.37771 0.488546 -0.182226 0.451159 
442 1 8.38035 6.76887 5.03614 -0.333888 1.37759 1.03865 
443 1 1.92828 5.13931 4.22853 0.640199 -0.722222 0.456212 
444 1 4.48444 0.529504 5.56245 -0.232471 0.348478 -0.952244 
445 1 0.097161 7.18085 2.58745 0.189317 0.923965 -0.194713 
446 1 1.11966 4.70289 6.62843 -0.839736 0.837394 -0.41213 
447 1 8.44066 9.24129 3.40958 -2.09825 -0.374416 -0.302337 
448 1 9.06968 7.97696 5.60586 0.21155 -0.817172 -0.255329 
449 1 3.14001 9.15834 0.0995069 -0.435566 -0.47184 0.281806 
450 1 8.11063 5.3242 1.50065 0.206885 0.838507 -0.666601 
451 1 3.6721 3.52971 5.19256 -0.625712 -0.747379 -0.110647 
452 1 6.68352 3.32646 8.68544 -0.318571 0.785438 0.0992306 
453 1 3.40945 5.49942 2.69879 1.15432 1.11995 -0.744492 
454 1 5.6855 9.37142 1.64524 0.239082 -0.622112 -0.0297247 
455 1 5.20979 7.57473 1.96689 -1.05969 -1.0463 0.523259 
456 1 2.9367 7.57763 4.57368 -0.847964 -1.2153 -0.261499 
457 1 3.36726 8.81321 5.92184 0.0409811 -0.512781 -1.80431 
458 1 1.79248 6.88049 7.30593 -0.324705 0.371545 0.905596 
459 1 7.13432 0.803227 0.607443 0.736264 0.0875125 0.875318 
460 1 4.73246 1.97567 0.0844254 0.473244 -1.7149 0.140648 
461 1 5.30884 1.40336 2.34814 -0.20367 -0.227298 0.310283 
462 1 5.13862 1.7919 4.62259 -0.287537 0.288073 1.02916 
463 1 7.49275 4.67065 6.15334 0.115122 0.203017 0.69872 
464 1 6.07189 5.62371 4.30917 -0.464684 0.559564 0.151272 
465 1 7.25626 7.37221 4.15054 0.719931 -0.791284 -0.743367 
466 1 4.34366 2.88349 5.30629 -1.14746 0.641085 -0.778509 
467 1 6.29686 7.40742 4.23499 -0.766814 -0.641936 0.547986 
468 1 8.41985 0.534253 6.19396 0.155034 0.91838 0.224235 
469 1 0.410884 7.13911 8.56678 -1.69012 -0.836132 0.312916 
470 1 3.25041 0.526207 4.77005 -0.514145 -0.639748 -0.0315419 
471 1 3.44673 2.78897 7.45374 -0.330725 -0.966236 0.695315 
472 1 0.537518 5.66602 5.40029 -0.279144 -0.670352 -0.80602 
473 1 8.80405 9.2252 7.68559 -0.64343 -0.383771 -0.139335 
474 1 8.63565 1.34481 6.95839 1.17286 1.46999 -1.60861 
475 1 3.75083 2.11745 9.27955 -0.941294 0.262801 0.48664 
476 1 4.57541 8.6649 3.13094 -0.773104 -1.06331 0.01742 
477 1 4.61212 9.20953 3.91496 -0.332351 0.53507 0.911418 
478 1 1.72912 6.80309 8.2455 0.0659466 1.2658 0.650072 
479 1 4.1869 4.45375 2.1032 0.590707 -0.473749 -0.252794 
480 1 2.30877 4.43446 8.08473 -0.401711 -0.335691 1.72034 
481 1 3.90143 8.22016 8.42079 -0.167479 -0.475247 -0.0500049 
482 1 6.80431 0.275711 6.71854 0.733567 0.0869251 0.923698 
483 1 4.21962 1.22143 4.47639 -0.114747 1.45892 0.0880771 
484 1 4.71077 2.24058 3.86302 0.0616892 -0.300116 1.08271 
485 1 5.08018 0.830304 4.70503 1.11578 0.173109 -0.511949 
486 1 8.06501 8.70625 7.14389 -0.353539 -1.12457 -0.222001 
487 1 4.83706 4.95466 1.52534 -0.00997646 0.0649996 -0.0531933 
488 1 8.92088 6.76302 8.8761 -0.543896 1.34154 -1.40033 
489 1 8.65602 4.90875 3.04819 -0.363318 -0.497307 -0.711911 
490 1 5.65305 3.63497 6.36406 0.798424 -0.47194 0.427238 
491 1 2.07937 5.5755 5.64794 1.16494 -0.690408 -0.208585 
492 1 4.13755 7.6365 6.68879 0.193324 0.0213077 -0.0317581 
493 1 6.44753 5.40606 6.20927 0.445282 -0.887605 -0.294653 
494 1 7.6821 7.597 0.840839 -0.835809 0.426815 -0.753559 
495 1 2.76274 3.9337 2.78955 -1.31563 0.230369 -0.248947 
496 1 8.02036 2.89455 6.60379 -0.327169 0.177531 0.711906 
497 1 6.48189 6.96313 1.91448 0.560595 0.039899 -0.130574 
498 1 3.38473 4.09541 9.1463 -0.255326 0.368203 0.981125 
499 1 8.33931 2.17988 0.542823 -0.59692 1.28745 0.249117 
500 1 1.34567 1.60482 0.256968 -0.907401 0.495478 -0.572231 
501 1 4.10612 1.2071 6.2246 0.641593 -0.286495 -0.461042 
502 1 3.27087 6.38467 6.84186 -0.471649 0.573141 1.6585 
503 1 1.16949 1.29026 2.94152 0.735766 -0.609791 0.163666 
504 1 1.33553 1.20216 8.78979 -1.61308 -1.11296 -1.32143 
505 1 4.36478 7.35741 0.694533 -0.583075 0.750259 -0.373815 
506 1 8.01755 2.5513 3.5785 -1.06628 -0.422977 0.0716016 