ITEM: TIMESTEP
1802
ITEM: NUMBER OF ATOMS
1000
ITEM: BOX BOUNDS pp pp pp
0.0000000000000000e+00 9.4000000000000004e+00
0.0000000000000000e+00 9.4000000000000004e+00
0.0000000000000000e+00 9.4000000000000004e+00
ITEM: ATOMS id type x y z vx vy vz 
1 1 1.38362 2.7982 2.31326 -0.758585 -0.38235 1.51207 
2 1 5.40915 6.33288 3.18412 0.740868 0.495352 -0.0750761 
3 1 2.64724 3.14222 8.92149 -0.268396 0.788003 0.0982806 
4 1 2.88843 8.09322 6.21402 -0.351981 -0.660522 0.380336 
5 1 6.48623 6.09988 3.04305 -0.134729 -0.405828 -0.75606 
6 1 2.64869 4.71865 3.8759 0.874785 -0.787537 -0.0706958 
7 1 8.13533 1.11784 6.10083 -0.193144 0.783852 0.345781 
8 1 5.65612 5.42877 3.15541 -0.0339585 -1.24412 0.605178 
9 1 7.41204 1.458 5.58979 0.562374 0.460622 0.180536 
10 1 7.09716 0.15984 2.06892 0.631452 -1.18551 1.00833 
11 1 7.17928 2.49912 0.838081 1.21688 -0.125392 -0.206179 
12 1 7.47811 0.723243 6.84315 0.437368 -0.243867 0.134846 
13 1 4.17904 6.66447 0.779449 0.683132 0.803826 -0.477162 
14 1 8.9604 2.29362 1.85468 -1.36053 -1.19987 -0.0118872 
15 1 2.79067 3.68994 8.11842 -0.0101307 -0.312222 0.878424 
16 1 0.156534 1.61091 5.05718 -0.179998 -0.510989 2.2127 
17 1 2.34142 2.26743 6.31555 -0.0863934 0.82724 0.91554 
18 1 5.25377 6.73483 2.20554 -1.04377 0.346356 -1.88067 
19 1 3.35957 5.29693 7.40275 -0.101629 0.529374 1.76135 
20 1 6.69551 0.897542 5.31856 1.30094 0.762979 0.639109 
21 1 3.92911 3.55777 4.36122 -0.860368 -0.221792 0.724793 
22 1 7.02715 5.31453 1.32658 -0.777162 0.505847 -1.2043 
23 1 3.67189 8.925 1.59856 -0.160196 -0.367251 -0.629501 
24 1 7.83148 3.01958 6.1568 -0.596258 -0.527686 -0.724789 
25 1 8.50043 6.61943 1.12301 -0.00882429 -0.597042 0.556298 
26 1 1.24832 6.22967 8.22961 -1.25871 0.659011 -1.10666 
27 1 4.74468 8.9702 8.40234 1.56971 -1.09152 0.363328 
28 1 6.91986 4.05259 3.85963 0.591638 0.765856 0.889025 
29 1 0.911045 5.2946 0.252919 0.223248 0.40255 0.305177 
30 1 2.3038 0.224974 6.18318 -0.116899 0.570921 -0.408651 
31 1 2.80432 1.16034 8.30285 0.858228 -0.671295 -0.592665 
32 1 5.07766 0.374243 6.3133 -1.08483 -0.221792 0.866191 
33 1 6.82531 6.96969 3.32261 -0.757222 1.3 -1.45401 
34 1 4.51843 1.59172 1.71882 0.925843 0.470455 -0.13469 
35 1 2.28794 3.15138 4.95641 0.0919833 1.44901 0.755905 
36 1 7.50271 7.78386 1.12685 -0.621622 -0.102782 0.170481 
37 1 6.38933 7.88147 7.33107 0.685603 -0.894745 1.21591 
38 1 0.0806615 4.93755 9.13944 0.60541 0.212773 0.325436 
39 1 2.13567 3.82996 2.63255 -0.303949 -1.01265 -0.672027 
40 1 2.02797 7.97122 5.71832 -0.293953 0.168689 0.621479 
41 1 6.65245 9.37657 5.4421 -1.04208 0.326657 -0.997063 
42 1 5.31329 4.55708 5.85369 0.383671 0.1188 -0.81446 
43 1 3.57128 7.59679 5.62718 -1.25193 0.544951 -0.0586272 
44 1 8.77042 9.13273 3.91223 -0.149142 0.456484 -1.10142 
45 1 1.77549 9.1662 5.53758 -0.221635 -1.28108 0.203692 
46 1 0.436547 4.47195 5.02697 0.255066 -0.974592 -0.313787 
47 1 7.74317 8.08522 8.10366 -1.64413 -0.956257 -0.0771153 
48 1 7.28154 2.16854 2.13881 -0.651996 0.768095 -0.430318 
49 1 5.10082 6.98807 8.91074 0.634592 -0.952523 -0.347034 
50 1 2.95639 5.53701 0.614134 0.332377 0.0836647 0.520096 
51 1 2.64284 2.52216 7.34538 -0.0696033 -0.375286 -0.639816 
52 1 6.95316 8.71124 4.88377 0.704191 -0.41256 1.2376 
53 1 3.22108 1.50787 1.54358 0.361558 -0.466585 -0.0550417 
54 1 7.01795 7.31438 5.70208 0.251613 0.370611 -1.25744 
55 1 1.27081 7.03935 8.72502 0.481512 0.331367 1.33612 
56 1 0.385044 3.52389 4.91386 -0.0338717 0.768721 0.281186 
57 1 6.18846 6.08246 4.69894 1.02101 -0.203312 0.233304 
58 1 3.82181 1.00467 8.19286 0.393066 1.09372 -0.220672 
59 1 9.27805 0.590079 3.93651 -0.547748 0.240306 -0.468736 
60 1 9.25308 5.86947 3.28102 -0.12326 -1.34822 0.186415 
61 1 2.54003 3.45574 7.23279 0.459182 1.12702 -0.863003 
62 1 7.74918 0.340783 0.498827 -0.395916 0.35109 -0.378259 
63 1 4.88604 1.88483 0.830314 -1.19774 -0.368582 0.810546 
64 1 1.60373 3.88516 0.153137 -1.06762 1.08793 0.603087 
65 1 5.5502 8.45875 2.21258 0.0815329 0.378868 -0.848388 
66 1 0.985607 5.48581 6.91134 2.22144 0.316471 0.29793 
67 1 5.05749 1.2268 3.60284 -0.887152 -0.580794 -0.335755 
68 1 8.30352 1.70712 5.20526 -0.394451 -0.323848 -0.155535 
69 1 6.13977 6.65052 1.77881 1.35347 0.0897332 0.071204 
70 1 7.19128 8.9357 3.94488 -0.46593 0.637435 -0.835424 
71 1 9.16168 8.07777 2.70791 -0.87218 1.5445 -0.056172 
72 1 4.26698 7.68006 0.980096 -1.88935 0.28771 0.507174 
73 1 7.75936 1.66017 2.76546 0.410521 0.275696 0.923611 
74 1 1.93252 3.3878 1.77016 -1.26989 -0.456594 -0.36742 
75 1 0.441327 2.71167 6.51497 -0.389111 0.414049 1.16575 
76 1 2.40193 5.2528 7.65832 -0.896946 -0.109391 -0.886239 
77 1 2.54417 6.53465 3.6441 0.355908 0.972521 -0.239254 
78 1 7.43708 6.89102 1.57452 0.0973312 0.894175 0.204774 
79 1 2.39295 0.641798 4.25922 0.797925 0.315212 -0.434119 
80 1 9.3683 3.18684 1.39431 0.620606 -0.0729429 0.369363 
81 1 4.56479 7.38845 6.93497 -0.369781 0.293745 -0.673811 
82 1 9.25049 1.10394 3.04377 1.34804 -1.01635 -0.12935 
83 1 3.28004 1.89804 0.365168 -0.598908 -1.44903 0.362508 
84 1 5.75916 0.538066 2.00317 0.680665 0.362478 1.00813 
85 1 3.70835 2.4914 5.35933 0.819937 -0.832324 1.00851 
86 1 4.56148 3.16163 6.01954 0.0431369 -0.353057 0.466615 
87 1 6.13047 6.87629 8.69954 -0.0915596 -0.115871 1.24213 
88 1 2.77234 5.9871 7.16162 -0.0395465 -0.411057 0.00228387 
89 1 5.76294 5.24577 4.77936 0.860954 -0.41521 -1.04418 
90 1 1.18888 3.95358 4.66188 -0.1295 1.46623 1.20582 
91 1 7.3438 1.44897 3.6556 0.428127 0.108995 -0.338996 
92 1 7.93548 1.12844 1.08042 -0.208628 0.519181 -0.87929 
93 1 9.15116 4.38343 2.7022 0.0339785 -0.349584 -1.55842 
94 1 2.01722 6.32879 8.8882 -0.482578 0.116351 1.32381 
95 1 6.01267 9.19124 0.80041 0.950729 0.036854 -0.706083 
96 1 4.14068 2.74885 3.66837 0.127584 1.15474 -1.72869 
97 1 4.73467 8.31755 7.06021 0.691654 -0.369793 0.257887 
98 1 2.9949 8.37881 8.15374 0.638525 0.680496 -0.156477 
99 1 4.56636 6.30096 8.45757 0.111501 0.132568 0.443094 
100 1 8.71647 4.78178 1.1784 -0.97151 -0.932218 0.473411 
101 1 3.39042 7.91437 4.05456 -0.292756 -0.852714 0.254906 
102 1 6.48122 4.73893 1.84294 -0.617587 0.752284 0.404814 
103 1 1.77661 4.69082 8.17108 -0.717754 -0.22342 -0.0853261 
104 1 5.08428 9.32783 2.40423 1.10684 0.745542 1.32011 
105 1 5.03809 8.19003 1.27722 0.354732 0.183747 -0.118025 
106 1 7.16143 8.31968 8.76825 -0.793281 -1.40085 1.5094 
107 1 5.35538 0.792281 7.10093 0.654609 0.888444 -0.41575 
108 1 3.73872 6.5903 9.09269 -0.25865 0.420489 0.203653 
109 1 1.55728 6.01228 1.75686 -0.690582 -0.0165874 0.00845007 
110 1 8.8186 2.68872 3.64859 0.293754 -0.66551 -1.30241 
111 1 1.55786 3.21088 3.18043 -1.10867 -0.621684 0.908438 
112 1 2.58836 7.68856 8.71043 -0.398301 -0.50728 0.0132104 
113 1 7.98112 3.079 3.38093 0.380315 -0.879928 -1.20124 
114 1 2.13096 0.606887 7.89848 0.361052 0.29245 1.53209 
115 1 2.97015 4.07064 3.0518 0.543671 0.513315 -0.0117753 
116 1 6.08035 5.60566 1.56398 1.53007 -0.481532 1.43373 
117 1 7.77861 0.519446 7.92885 -0.439803 -0.487829 -0.464639 
118 1 4.65222 2.37475 5.39705 -1.38677 -0.520437 -1.02529 
119 1 2.41424 6.50288 6.46648 1.14934 -0.220086 0.409099 
120 1 5.94506 1.53764 7.36058 -0.439199 -0.436172 0.601587 
121 1 7.34173 1.25794 4.63176 -0.0428727 1.07716 0.283519 
122 1 5.80503 5.97113 2.39205 0.450233 -0.752783 0.201123 
123 1 2.8445 3.68224 2.02719 -0.677926 0.0329964 -0.502202 
124 1 7.95314 2.50515 0.233759 1.15241 -0.729864 0.104274 
125 1 6.76089 1.98372 8.93077 1.13594 0.755704 0.385554 
126 1 4.91083 3.1705 2.26912 -1.56042 0.70052 1.09463 
127 1 4.77632 0.841069 7.88533 0.55814 -0.199341 -0.51025 
128 1 4.21944 1.60068 0.180135 0.09327 0.866634 0.255594 
129 1 3.03964 1.85233 6.75941 0.0262609 0.786529 0.248012 
130 1 9.07049 7.88385 1.77417 0.256306 -0.707544 0.209075 
131 1 0.39649 1.81052 1.64596 0.01607 1.03182 1.13434 
132 1 8.88123 0.884047 9.1364 -0.0619865 0.100341 -0.829712 
133 1 6.52938 2.4792 1.58 1.18483 -0.618871 -0.28108 
134 1 2.13736 3.19647 6.37287 0.345278 -1.41413 -0.265606 
135 1 0.14053 4.05381 4.12051 -0.230847 -0.418781 -2.29166 
136 1 9.13918 6.86672 1.77317 -0.574111 0.75666 0.438835 
137 1 3.78462 6.32267 2.28279 1.00924 -0.25577 0.694788 
138 1 2.72208 2.8449 4.16764 0.473306 1.19691 -1.17105 
139 1 0.834458 1.82571 0.768064 0.461291 -1.48906 0.873383 
140 1 3.31677 3.84969 6.67391 -1.07409 0.238288 -0.0538298 
141 1 0.396228 7.39635 2.22654 -0.58986 -0.900363 -0.507126 
142 1 7.70443 6.27382 0.792636 -0.808773 0.481943 0.351412 
143 1 1.67841 6.61257 1.01387 -0.686724 0.547543 -1.96245 
144 1 0.805542 3.82722 5.68761 -0.667581 0.717768 0.467151 
145 1 2.1713 5.38165 0.0991783 -0.413867 0.0278978 -0.972989 
146 1 3.59839 3.66026 1.39307 -1.90851 -1.3575 1.33816 
147 1 6.87248 1.10591 9.26807 1.53826 -0.151491 0.547234 
148 1 1.36545 1.71262 5.82797 0.7256 -0.567849 2.40067 
149 1 0.696477 2.8291 0.88278 -0.947868 -1.60154 0.758777 
150 1 5.29614 6.78602 7.16862 0.327708 -0.668862 0.299186 
151 1 8.00752 0.709725 4.19111 -0.619869 0.55173 -0.302691 
152 1 8.70239 5.01446 2.14596 -0.37281 0.691132 0.804362 
153 1 3.25697 0.391554 4.64569 -0.00662473 1.31659 0.447366 
154 1 9.33652 4.61281 6.64787 0.279372 -1.59129 -0.0482279 
155 1 8.32774 0.208073 5.83879 -0.836448 0.276628 -0.245785 
156 1 4.62071 4.09775 2.69185 -0.181406 0.096197 0.833337 
157 1 5.4615 4.96486 3.93332 0.30694 0.0576388 -0.346419 
158 1 3.16797 4.55818 5.95606 -1.15231 -0.281538 -2.13651 
159 1 4.83854 8.77274 3.82363 -0.998937 -0.551738 -0.0209284 
160 1 6.1668 2.80579 6.98635 0.520369 -0.401711 0.159287 
161 1 6.62862 1.85444 4.51269 0.686081 -1.28205 -0.390903 
162 1 4.06479 0.218493 7.73478 -0.0747645 0.922147 0.329507 
163 1 6.33234 5.54754 3.86454 0.445913 1.26946 0.980445 
164 1 4.55219 8.70021 1.89454 -0.694811 1.26373 0.154077 
165 1 7.52118 8.56145 6.88859 -0.113208 0.0351691 0.00095079 
166 1 5.19781 7.25889 5.33768 -1.21613 -0.0776025 -0.0139894 
167 1 4.28198 1.74735 7.83035 -0.978851 1.08465 -0.663365 
168 1 8.41541 1.5814 0.334325 0.37486 0.401056 0.731547 
169 1 8.72722 0.326114 3.15158 1.02986 0.189432 0.0803616 
170 1 9.04936 1.75966 3.71646 -0.018527 -0.530128 1.10906 
171 1 6.609 7.46408 1.51453 0.777943 0.292953 -1.10925 
172 1 3.63605 1.71869 4.74826 -0.0718794 -0.201376 -0.60411 
173 1 1.35749 1.78448 3.97717 -1.04826 -0.331541 -0.0268923 
174 1 4.49006 0.992997 0.954815 0.612017 0.203377 -0.0452571 
175 1 9.11101 6.20613 8.28474 0.919829 -1.13339 0.626435 
176 1 4.04267 3.13206 6.78828 0.0235799 -2.06413 1.10237 
177 1 0.935319 4.99358 3.03188 -0.932798 1.0169 -0.949847 
178 1 3.60699 4.9329 8.25909 -0.125491 -0.57686 0.244957 
179 1 6.82031 8.68648 2.31862 0.0818961 0.219809 -0.55583 
180 1 6.95168 3.08854 2.18895 -1.00925 0.478946 0.24109 
181 1 5.28271 7.28113 6.31762 0.348036 0.0129002 0.255144 
182 1 3.7071 0.27084 3.82454 -0.849484 -0.155832 0.82155 
183 1 5.08776 5.65157 1.8524 -0.459648 -0.625783 0.362596 
184 1 0.57388 1.58937 3.42409 -0.241142 -0.0784369 -0.494613 
185 1 5.7322 8.95251 4.03939 -0.159113 -0.299404 1.01694 
186 1 3.62858 1.95594 3.75761 -0.258043 0.308815 0.0811627 
187 1 2.16239 3.98343 0.965848 -0.389935 -0.935281 -0.101862 
188 1 7.98141 0.789875 5.15732 -0.392786 0.337832 -0.344581 
189 1 2.46959 5.96859 1.36956 0.395486 0.156125 -0.501131 
190 1 5.78894 2.34512 0.83615 0.255049 -0.950473 0.155254 
191 1 5.22537 -0.0134863 7.63465 1.26771 1.17256 0.0399512 
192 1 9.34158 3.47106 3.37509 0.694988 1.70645 -0.0362981 
193 1 3.91261 7.91998 1.92359 0.156159 -0.531363 0.83894 
194 1 0.07341 3.59565 2.27055 -0.605595 -0.73627 0.290576 
195 1 6.86765 3.33411 6.09385 -0.249015 0.748665 0.331289 
196 1 4.51203 8.76696 5.29241 -0.439084 -0.572365 -0.39723 
197 1 4.69956 2.29253 6.35175 0.551809 0.918677 0.797361 
198 1 6.80451 7.38993 9.21273 0.327701 -0.126662 0.671021 
199 1 4.11398 5.4852 2.0137 -0.576617 0.810688 -1.91214 
200 1 4.77968 8.51207 2.82781 0.661296 0.666627 -0.347814 
201 1 8.70238 0.676291 0.65654 2.50993 -0.0204142 0.714008 
202 1 8.40911 6.85795 8.64123 -0.697831 -0.499264 -1.38038 
203 1 6.2945 4.89965 0.89193 0.424497 -0.0850286 -0.491491 
204 1 3.84834 7.37247 4.7077 -0.0678923 -0.275796 0.187425 
205 1 4.58014 9.29317 6.98516 0.17128 0.574212 0.818653 
206 1 4.03546 2.54058 0.314509 -1.17204 1.42672 -0.211687 
207 1 8.46476 9.08624 0.230471 0.0483669 -0.5379 -0.395112 
208 1 1.72915 2.95636 7.25709 -1.21899 -0.729321 -0.304612 
209 1 4.44961 0.110127 0.421891 0.571898 -0.940744 0.239512 
210 1 1.7429 7.08909 6.03709 -0.259311 0.291576 0.0568214 
211 1 3.22375 4.99969 3.17584 2.01237 -1.16879 0.0327521 
212 1 1.6282 7.81969 7.50787 0.252024 0.504814 0.211158 
213 1 4.84385 5.59613 6.17518 0.916125 0.520229 0.373353 
214 1 2.69771 7.2171 5.90667 0.00571713 0.478581 -0.191389 
215 1 9.3356 3.21401 0.42525 0.193347 -0.0183624 -0.217285 
216 1 5.88322 8.07655 6.45886 0.957485 -0.139744 0.393417 
217 1 6.02054 3.45353 4.39418 0.436533 -0.41485 0.00349218 
218 1 0.767546 0.209595 4.27814 0.0177635 0.29045 0.167066 
219 1 0.568477 4.11054 3.06811 0.529339 -1.08463 -0.592957 
220 1 1.85052 0.46026 3.1488 -0.407113 0.89355 -0.787511 
221 1 0.500762 6.0921 7.60669 0.190833 0.716384 0.0321992 
222 1 7.90734 0.0226657 3.49486 1.12193 -0.443269 -1.24545 
223 1 1.52404 6.16069 6.25622 1.58977 0.961425 0.558833 
224 1 3.5999 2.75179 1.17381 -0.486544 -0.435837 -0.67771 
225 1 7.37373 7.72318 7.29485 0.266019 -1.14965 0.222267 
226 1 1.7538 9.34904 0.0188884 0.628949 -0.393022 -0.984008 
227 1 0.108236 4.02857 7.3863 1.34992 0.512294 0.327427 
228 1 3.28112 6.39766 0.483884 0.229349 1.3754 -0.285098 
229 1 7.89628 4.72871 1.66372 -0.0508606 0.074535 0.741048 
230 1 7.57974 6.6475 9.29977 -0.257009 -0.0506193 0.675846 
231 1 3.95773 4.93569 4.92257 0.165261 -0.386965 -0.606453 
232 1 1.49249 8.08883 1.36944 1.04543 -0.40324 0.138012 
233 1 0.503771 9.34567 8.01203 0.737819 1.07491 0.0669501 
234 1 1.12945 1.24208 1.51382 -0.67813 0.0430824 0.112267 
235 1 2.45643 1.99533 8.09383 -0.111833 0.755218 0.928457 
236 1 8.08464 1.71751 4.27829 0.108192 -0.540706 -0.835541 
237 1 3.28035 0.459324 8.71939 -0.345964 0.978303 1.11086 
238 1 0.409561 7.13734 7.38789 -0.375742 -0.835132 -0.0246981 
239 1 1.34303 4.14067 1.5035 0.43754 -1.2938 0.951121 
240 1 4.26849 0.746162 6.01508 -1.66588 -0.73299 0.871928 
241 1 4.86418 2.28485 8.37347 -0.449808 0.388162 -0.792387 
242 1 8.52435 3.62989 0.142936 0.238998 -0.604406 -0.985803 
243 1 9.0334 7.44406 6.93314 -1.82039 -0.501399 -0.385628 
244 1 0.932075 7.8037 9.17544 0.316963 0.350922 -0.362834 
245 1 4.147 0.0958958 2.25675 1.09513 0.83489 -0.371504 
246 1 5.48739 6.29971 6.38807 0.314324 -0.0649234 -0.911984 
247 1 1.69951 9.32023 8.465 0.299645 -0.311683 0.19122 
248 1 5.45917 6.38376 8.06025 0.457862 -0.722684 0.276698 
249 1 8.85958 1.22553 4.51126 -0.896736 -0.827343 0.630698 
250 1 4.98902 5.87412 7.21285 -0.446717 1.30634 2.33526 
251 1 7.88982 5.30347 0.894991 0.153176 -1.1645 0.564599 
252 1 4.39227 7.24568 5.99409 0.394256 0.502509 -0.0101016 
253 1 5.3908 2.90097 4.89998 0.448476 1.61862 0.342211 
254 1 3.2205 3.26137 4.96943 -0.366427 -0.745155 -0.532095 
255 1 6.64063 6.45159 0.0127254 1.867 1.25419 0.258393 
256 1 2.50723 5.63961 3.13328 -0.542216 0.698469 -0.0735924 
257 1 3.35261 4.32281 7.5456 -0.174163 -0.258991 -1.07825 
258 1 6.32941 7.37316 4.15334 0.136026 -0.306115 -0.0222319 
259 1 3.48235 7.29035 0.595195 0.119758 0.926302 -0.635135 
260 1 2.09 4.08655 4.96364 -0.0486483 0.590129 0.25784 
261 1 3.44164 8.06019 7.3784 1.12461 0.148888 0.853038 
262 1 6.94666 0.0116908 1.09153 0.339891 -0.0120792 1.20332 
263 1 0.594489 3.78677 0.836292 0.441418 0.0685612 -0.212287 
264 1 1.39658 5.56739 8.86688 0.378749 0.455295 -0.351437 
265 1 9.21129 8.83783 7.42168 0.490833 -0.355585 1.63749 
266 1 4.55867 3.66122 3.6591 -0.37522 0.966322 0.303857 
267 1 9.01541 8.353 9.19243 0.360597 0.693237 -0.47507 
268 1 6.80977 6.24587 1.20099 -0.678594 0.867511 -0.872754 
269 1 0.745947 5.96792 2.88845 -0.375079 -1.53948 -1.23057 
270 1 1.50799 4.66257 2.37364 -0.365827 0.862523 -1.58497 
271 1 4.01511 1.37967 2.52639 -0.0447232 -0.940006 -0.362538 
272 1 2.02321 0.834585 0.324678 -1.24513 0.879516 -0.935218 
273 1 1.08109 2.69078 3.96972 0.0245792 -0.993633 0.281915 
274 1 8.18489 5.954 8.55084 0.130089 0.366831 1.51809 
275 1 2.05957 7.4942 0.862408 -0.529424 -0.61615 -1.49204 
276 1 1.21505 3.76386 2.41494 -0.0323189 0.252005 -1.23261 
277 1 9.08324 2.78478 2.69805 -0.61339 -0.425352 -0.0741306 
278 1 8.71747 7.43986 9.3569 0.170954 -0.219327 -0.273061 
279 1 3.86634 6.70491 5.42289 0.739558 0.309757 1.71534 
280 1 5.98852 8.33682 1.37433 -0.552144 0.475558 -0.47242 
281 1 7.67105 8.80886 0.837432 -0.259723 0.464452 0.368437 
282 1 5.68538 7.51482 1.87736 -0.264517 -1.33721 -0.647755 
283 1 2.29536 4.74666 2.90064 -0.12406 2.1307 -0.949911 
284 1 5.1521 -0.0089464 9.21354 -1.00541 -0.427379 -1.30199 
285 1 0.920724 3.59864 3.79335 0.0813541 0.731645 -0.631732 
286 1 1.59573 0.394089 4.80366 0.747234 1.18706 0.28318 
287 1 7.10034 9.33874 2.99665 -1.24484 0.765365 0.345652 
288 1 7.98278 9.169 4.45781 -0.870821 0.363137 -0.309681 
289 1 4.76095 7.86916 8.77403 -1.46003 1.81641 0.110159 
290 1 7.97118 0.065519 2.49628 0.105003 -0.235739 1.38281 
291 1 5.00247 3.86722 6.4537 0.475765 -0.390844 0.0986466 
292 1 2.63726 4.969 6.76525 0.0276938 -0.1051 -0.154596 
293 1 7.5992 9.03121 8.27121 -0.765356 -0.123368 -1.14446 
294 1 9.28945 0.102669 5.62022 0.45397 -0.976331 0.0198513 
295 1 1.07026 2.35462 8.82634 -1.0019 1.62397 2.06077 
296 1 0.617303 1.16093 4.25738 -0.128253 0.0873053 -0.297945 
297 1 3.61728 0.978385 5.36436 0.131295 -0.314423 -0.208213 
298 1 0.839351 1.57212 8.26699 1.09715 1.1602 -0.514806 
299 1 6.26409 9.26211 7.63128 -0.451028 0.0775049 -0.128863 
300 1 2.99091 2.73458 1.946 -0.501558 -0.282913 0.0540358 
301 1 2.85163 2.29103 4.96202 -0.260547 0.189378 0.483906 
302 1 6.81724 0.581485 7.94359 -0.397945 -0.0122522 0.283927 
303 1 7.4484 8.13493 5.53437 0.433737 -0.319655 1.09441 
304 1 1.37558 6.28567 7.24645 0.228529 -0.43149 0.514083 
305 1 1.13534 8.59956 7.95758 -0.283515 -1.56717 -0.318766 
306 1 0.0762284 5.19347 1.64131 0.486272 0.31933 -1.01881 
307 1 6.07595 8.90701 6.02681 -2.02772 -0.901948 -0.786506 
308 1 2.74109 1.0182 5.86604 0.403893 -0.216158 0.436368 
309 1 3.71586 2.363 2.85641 0.986215 0.544847 -1.95653 
310 1 4.13911 3.29512 2.91398 -0.549969 0.0555272 0.769488 
311 1 8.12655 7.58261 4.09476 0.0383931 1.4421 1.01045 
312 1 6.08551 3.27514 2.56825 0.734101 -0.200994 -1.01116 
313 1 6.16521 6.50269 3.82918 -0.937009 -0.703109 0.212352 
314 1 2.91526 5.97626 9.11383 -0.292454 -0.932525 0.609078 
315 1 3.56549 1.09602 0.782634 0.402981 0.550066 0.187407 
316 1 0.0740731 4.47358 8.25064 0.0529518 -0.405546 -0.976785 
317 1 5.86203 2.72322 3.30817 0.444045 -0.449012 1.72309 
318 1 1.42967 2.56076 0.31492 -0.138903 1.20195 -0.943961 
319 1 2.50345 7.11632 2.66692 0.207742 0.528865 0.178486 
320 1 3.4377 7.23813 2.45167 -1.08834 0.463155 0.869083 
321 1 8.01447 4.48214 2.61195 0.459265 -0.41054 -0.128815 
322 1 3.29349 9.06034 3.22168 0.578571 -0.444295 1.28665 
323 1 2.2368 8.58798 8.81862 -1.20406 0.336386 0.652539 
324 1 4.46093 3.82156 1.76806 -0.515406 0.0904404 0.639227 
325 1 0.668518 3.13994 2.86898 -0.77259 0.393957 -0.198077 
326 1 2.65388 7.32881 4.24482 0.676377 0.55446 -0.647074 
327 1 3.93469 5.1353 3.82237 -0.558695 -0.1042 0.140919 
328 1 5.03934 1.49566 2.53551 0.219047 -0.203786 0.411213 
329 1 6.99 3.5732 3.0122 0.207322 -0.0329198 0.535455 
330 1 4.20722 9.14209 4.45136 0.197585 -0.743362 0.0380001 
331 1 2.081 7.02479 8.2181 0.474038 -1.39764 -0.24633 
332 1 6.77601 1.04732 6.28677 -0.461387 -0.141926 -0.742047 
333 1 3.09787 2.77474 8.14031 0.330047 -0.385195 1.08782 
334 1 7.49632 0.782359 2.96329 0.717545 -0.559176 0.665431 
335 1 4.14018 5.74216 7.78307 0.27359 0.53193 -0.16877 
336 1 0.591464 6.36171 1.95091 -0.874777 0.25083 1.11189 
337 1 1.1042 7.50214 0.69579 0.398185 -0.174254 -0.534441 
338 1 7.45177 3.31914 4.16765 0.0595614 -0.305975 0.127357 
339 1 6.75616 5.97281 2.13823 -0.556916 -0.471899 0.184341 
340 1 2.59654 8.38441 7.10522 -0.910803 0.784294 -0.811665 
341 1 0.884751 5.56757 3.78753 -0.952248 -1.19703 0.792786 
342 1 3.16422 5.2511 1.50753 -0.188572 0.651316 0.197399 
343 1 5.40699 8.50219 8.95337 -0.208185 0.128721 -2.0187 
344 1 1.61032 8.61888 7.06037 -1.24403 1.74321 1.55729 
345 1 8.47686 6.52385 0.140456 0.351835 -0.611462 -0.688566 
346 1 2.20209 4.36536 1.84047 -0.234149 0.916816 1.33609 
347 1 6.96215 8.51074 7.75917 -1.66226 0.613805 -0.02038 
348 1 6.00396 0.464579 5.9306 0.515806 -0.560857 0.399036 
349 1 2.66009 9.27076 8.26308 -1.12264 0.80003 -1.13409 
350 1 7.74523 7.35909 5.00381 0.0159287 -0.0163817 0.375659 
351 1 0.283252 2.48477 3.39934 1.39507 1.3345 -0.0985147 
352 1 0.163568 3.01289 4.17229 1.17653 0.587654 0.744631 
353 1 2.83461 7.51804 1.74644 0.235239 -0.656721 0.516416 
354 1 2.26462 6.18697 2.40988 -0.487951 -0.129112 -1.32086 
355 1 7.01471 0.925185 0.818526 1.05956 -0.250302 -1.18265 
356 1 0.88557 3.45371 7.32518 -0.588878 0.711744 0.138253 
357 1 0.584516 8.30843 1.03945 -0.376872 0.00220276 0.785692 
358 1 7.4419 1.68307 6.54904 0.448777 -0.440359 0.86445 
359 1 4.04966 5.3297 1.07654 -0.598615 1.00465 -0.188329 
360 1 8.612 0.686483 1.63195 0.0661535 -0.43138 2.43003 
361 1 0.280269 6.02289 0.369181 -0.950656 0.289018 -1.17998 
362 1 7.22242 7.03785 4.24259 -0.366443 1.4039 -1.02391 
363 1 6.74362 2.80556 4.65106 1.35733 0.13438 -0.639636 
364 1 0.791702 7.73829 8.17256 1.69198 0.679213 0.34336 
365 1 6.98473 1.39202 7.41201 0.523872 1.457 1.47322 
366 1 2.39397 9.30613 7.24251 -0.856155 -1.30475 0.344726 
367 1 3.60935 2.62114 4.42215 0.486088 0.407934 0.477875 
368 1 5.89461 3.48688 6.23978 0.240512 0.235969 -0.491377 
369 1 3.42874 4.71541 0.579546 1.38456 0.380222 1.61188 
370 1 8.70639 5.78825 0.651271 -1.0226 -0.140074 0.599959 
371 1 8.92874 3.07241 4.89853 1.84679 -0.787515 -0.0334076 
372 1 0.320968 3.66698 6.52329 0.782979 -2.15851 0.0380786 
373 1 3.99717 2.14947 8.81325 -1.44938 0.577667 0.523837 
374 1 8.78055 5.18001 8.4142 0.490972 0.060895 0.305372 
375 1 2.45801 8.26358 1.23615 -2.19514 -1.23965 -0.995219 
376 1 7.00152 3.34771 1.2694 -0.61694 0.690012 1.01073 
377 1 7.96429 5.71377 0.0316721 -0.318567 1.67722 -0.286589 
378 1 5.9096 1.35544 5.02402 1.14944 0.574602 -0.456421 
379 1 8.26738 8.15784 0.392875 -0.164024 -0.381933 -0.236561 
380 1 1.98372 2.46729 3.64912 -1.74001 0.108443 -0.96718 
381 1 8.30465 8.28901 1.33549 -1.40531 0.191752 -0.399956 
382 1 2.92429 0.632184 1.37661 -0.677083 -0.875922 -0.0534063 
383 1 1.82448 2.56619 5.54688 -0.747962 0.262197 -0.192901 
384 1 4.65498 0.689208 2.91834 -1.16885 0.205708 0.45955 
385 1 3.22084 8.07615 2.99097 -0.262723 0.142197 -0.68144 
386 1 4.47241 7.83589 5.22926 0.697091 0.565037 0.713123 
387 1 3.84263 4.20244 3.37941 -0.0640323 -0.187272 -1.87068 
388 1 5.95307 1.39244 9.06083 0.0730626 0.555877 -1.00808 
389 1 1.01082 5.17301 4.67164 1.23202 -0.321832 -0.510989 
390 1 5.21401 2.99421 6.77981 1.29073 -0.0130366 -1.28976 
391 1 6.13183 0.680048 1.08134 1.08537 0.382751 -0.551567 
392 1 4.27748 7.7582 7.76161 -1.94956 0.975366 0.683221 
393 1 5.82052 8.33545 0.42039 -0.850117 -0.162108 -0.199189 
394 1 2.51037 1.47256 9.17696 -0.189262 -0.453893 1.04995 
395 1 8.3755 6.38828 7.7008 -1.63978 -0.207291 -0.152388 
396 1 6.24281 7.72591 3.30947 -1.05565 0.0417865 0.0125394 
397 1 2.22399 3.209 0.358618 0.799225 -1.16663 0.81484 
398 1 1.54577 5.13941 6.23673 -0.0231797 -0.597741 0.829183 
399 1 2.29759 2.8915 2.59486 1.23817 0.324823 -0.222833 
400 1 5.40989 2.75745 5.84688 -0.543797 0.909768 0.837161 
401 1 5.44488 7.67579 2.80364 -0.177815 0.000194113 0.140395 
402 1 0.362031 8.53139 8.56501 -0.828786 -1.19707 1.07628 
403 1 6.30409 0.545185 8.7364 0.774582 -0.247552 -0.0879766 
404 1 3.77609 5.75466 8.67509 1.01476 0.784369 0.102911 
405 1 6.06345 2.3092 5.15535 -0.386916 0.883183 0.297152 
406 1 3.14578 1.85498 5.7788 0.677134 -1.64021 0.355807 
407 1 8.74528 4.33508 8.90161 -0.252786 0.15409 -0.895751 
408 1 2.03823 2.00732 2.83486 0.644406 -0.424311 -0.493367 
409 1 4.46526 1.89621 3.22899 0.926959 1.9196 -1.02145 
410 1 9.34239 6.08315 1.28119 -0.793319 -0.0947387 1.79478 
411 1 4.95813 7.94115 0.326528 -0.2963 -0.80622 0.0271657 
412 1 7.08255 7.01713 0.676262 1.64287 -0.0208861 -1.06817 
413 1 7.34157 3.1324 5.28926 1.5406 0.0258074 0.0540346 
414 1 7.16596 4.12647 2.16512 -0.138894 0.970458 -0.435853 
415 1 1.1601 7.14976 1.64845 -0.198478 -1.97975 -0.00919806 
416 1 3.13515 4.02992 8.97826 -1.21895 1.75439 0.551991 
417 1 2.02437 2.28406 8.86601 -0.869832 -0.459026 1.33022 
418 1 9.34778 2.28807 0.957128 -0.386844 -1.06573 -0.0564915 
419 1 5.66783 8.51367 3.19079 1.14372 0.378145 -0.00844337 
420 1 4.663 4.73811 6.61588 0.254196 0.329242 0.203595 
421 1 3.60975 0.168713 0.875692 -0.513286 0.589386 -0.249142 
422 1 0.0710214 5.5991 6.71045 -0.997417 -0.913214 0.577169 
423 1 7.59483 5.94535 1.70611 -0.653629 1.34083 -1.30166 
424 1 2.27492 0.586642 8.84626 0.421314 -0.389577 0.990028 
425 1 6.82488 3.78281 4.79575 -1.0879 0.825794 0.88373 
426 1 2.80921 1.25025 4.90309 0.243971 -0.982003 -0.384669 
427 1 5.354 2.08213 1.65635 0.703054 -0.896099 -0.925501 
428 1 1.76037 9.0526 1.10868 0.0632506 0.687319 0.0212777 
429 1 1.68262 3.50632 5.58574 0.267828 -0.0260843 -1.86185 
430 1 7.16446 1.68514 1.34807 0.713887 -0.114853 -0.969216 
431 1 9.33134 7.98394 7.83651 0.371605 -0.0894012 -0.740915 
432 1 2.30176 5.28769 2.05101 -1.37112 -1.67192 -0.187617 
433 1 2.20549 1.35259 3.62134 -0.0556418 -0.389502 -1.16509 
434 1 2.81286 7.9032 0.381888 -0.733799 -0.12921 0.114926 
435 1 6.66522 9.08904 8.50086 -1.66464 -0.56841 -0.393421 
436 1 7.32493 7.89944 2.03475 -0.142116 -0.725347 1.39208 
437 1 4.13898 7.74089 2.86208 0.547653 1.29431 -0.916842 
438 1 4.08342 0.86096 4.49456 -0.710321 -0.565767 -0.114147 
439 1 1.39845 9.34212 6.45985 0.389785 0.18881 -1.06641 
440 1 4.75752 4.71558 1.91146 -0.0233382 -1.86621 -1.28305 
441 1 6.4063 1.07773 3.47073 -0.474255 0.316924 0.669075 
442 1 6.8859 6.94686 7.56925 0.50889 0.0805498 0.507475 
443 1 6.53869 8.71367 6.88752 -1.11766 1.94588 0.809465 
444 1 8.01607 8.50449 3.75774 -0.088758 0.00796054 -0.977478 
445 1 9.22752 9.32046 9.03689 -0.711517 0.21212 0.289412 
446 1 5.35402 9.10996 1.51958 -0.196796 -0.578034 0.873585 
447 1 5.3085 3.55499 3.05618 -0.628291 -0.147941 -1.3633 
448 1 6.5402 7.7926 0.646024 -1.55447 0.377294 -0.815474 
449 1 1.32766 0.758354 9.08482 -0.741823 -0.490955 -0.830175 
450 1 8.53133 8.785 2.98731 0.273014 1.55759 0.0204697 
451 1 3.67644 0.548988 2.92787 -0.493473 -0.201438 0.876183 
452 1 5.6814 7.68123 8.51934 1.47537 0.69964 -1.33894 
453 1 5.17002 2.16618 3.80924 -1.4915 1.6098 0.723847 
454 1 7.2664 5.49062 3.13526 -0.465099 -0.773705 0.588429 
455 1 8.55852 9.20503 1.16997 -1.27223 0.304135 0.356212 
456 1 3.54178 6.10844 1.34935 0.836364 0.889214 0.410731 
457 1 0.837895 3.2818 0.0187488 0.382953 -0.503502 -0.421751 
458 1 1.68997 3.88364 7.04728 -0.19125 0.258433 0.796026 
459 1 9.35721 1.53066 0.356507 0.124562 0.0443998 -0.200641 
460 1 2.16152 2.91098 8.11804 -0.67292 1.53592 0.77736 
461 1 3.14388 0.936354 2.27146 0.0669244 1.03488 0.839191 
462 1 1.6163 5.54763 5.38925 -0.0721852 0.890995 -0.450474 
463 1 1.12425 2.04215 4.9415 0.732994 -0.690429 -0.570913 
464 1 3.01299 5.86208 8.11226 -0.398721 1.87625 -0.28963 
465 1 5.74494 1.75649 3.14543 -0.1822 0.324052 -0.11745 
466 1 2.79616 8.87203 5.59358 -1.18709 0.456172 -1.22444 
467 1 7.61473 8.57817 2.85536 -0.491583 0.0146213 1.41473 
468 1 6.02614 9.19061 2.62209 0.529894 0.271646 0.732878 
469 1 3.32914 5.38926 5.49501 1.27296 0.993313 0.775696 
470 1 2.31354 6.24904 0.425798 -1.51218 -0.183663 0.169403 
471 1 8.74757 4.27928 3.55074 0.450036 -0.26117 0.177068 
472 1 4.88994 2.73979 3.12823 -1.09724 -0.545878 -0.73256 
473 1 8.77894 7.15949 3.45865 0.167832 0.0516387 -0.370615 
474 1 1.68729 7.88409 8.44034 -1.83691 0.468216 0.4255 
475 1 0.46628 1.99345 5.88172 -0.244419 -0.434997 -0.733496 
476 1 7.97809 4.32622 0.736914 0.379894 -0.1496 -0.334911 
477 1 1.69285 6.07496 3.48976 0.503358 0.60639 0.574197 
478 1 4.33875 7.05328 2.20105 -0.858592 -0.334022 0.881136 
479 1 5.44991 3.98555 2.17645 1.2935 0.0271253 1.10228 
480 1 0.0755189 7.59301 8.7691 -1.63923 -0.837769 -0.380758 
481 1 9.29314 4.12634 5.78992 -1.10224 0.201804 0.639186 
482 1 3.05633 6.27961 5.76627 0.375652 1.01396 -0.409334 
483 1 0.318017 0.799709 8.6055 -1.25402 -0.348604 -0.869199 
484 1 4.53726 2.58329 1.44746 0.783558 0.009311 -0.729925 
485 1 4.83091 5.21964 2.69652 1.1081 -1.39631 -0.188811 
486 1 4.49159 8.67583 9.27811 1.2402 -0.16804 -0.171581 
487 1 4.12192 1.75021 6.85336 0.587741 0.315577 0.269879 
488 1 4.09862 5.01074 5.88947 1.25291 -0.489398 0.0783977 
489 1 5.00015 1.64416 7.24268 0.0289271 1.98775 -0.322524 
490 1 8.16949 2.67689 5.30742 -1.11831 0.531237 0.454055 
491 1 3.68881 9.1968 9.35157 0.235743 -0.70743 -0.697267 
492 1 3.52849 1.13839 6.39521 0.497827 0.0261144 0.316618 
493 1 2.96029 6.57593 1.94054 0.10104 0.53026 0.776906 
494 1 2.45657 3.3624 3.42182 -0.00226122 0.765013 1.48815 
495 1 6.45513 6.95765 4.99236 0.96397 0.013854 0.950948 
496 1 2.09611 2.23891 1.91133 0.473697 -0.37019 -0.106632 
497 1 2.86034 2.39862 3.27611 0.795274 -0.906659 -0.925836 
498 1 4.80012 6.43383 5.69722 1.45964 -0.633657 -0.467833 
499 1 1.1341 0.93948 0.612167 0.00169104 -0.312711 0.905216 
500 1 5.26476 3.09309 3.93735 -0.278308 0.74272 -0.379098 
501 1 4.28878 9.21446 6.08522 -0.664637 -0.262548 0.0301751 
502 1 0.452637 0.24671 6.41719 -0.219433 0.0592089 -0.230363 
503 1 2.24719 4.71786 5.70906 -0.322268 0.679009 0.624202 
504 1 7.77343 7.19456 2.4851 0.343579 -0.431557 0.854886 
505 1 9.06537 5.97115 2.23706 -0.157627 0.36232 -2.81001 
506 1 3.95435 1.89775 1.04287 0.873211 -0.170835 0.407784 
507 1 3.15384 8.78549 0.632302 0.484396 -1.06487 0.110258 