ITEM: TIMESTEP
2891
ITEM: NUMBER OF ATOMS
1000
ITEM: BOX BOUNDS pp pp pp
0.0000000000000000e+00 9.4000000000000004e+00
0.0000000000000000e+00 9.4000000000000004e+00
0.0000000000000000e+00 9.4000000000000004e+00
ITEM: ATOMS id type x y z vx vy vz 
1 1 2.45576 5.35506 5.14818 -0.109112 -0.234374 0.466204 
2 1 5.60222 2.77441 9.24154 0.605077 0.941274 -0.29253 
3 1 2.03783 0.499149 3.18757 1.02427 -0.693984 -1.57459 
4 1 6.84564 0.429457 5.53603 0.122516 0.743094 0.929778 
5 1 4.06979 5.85171 2.18885 -0.442943 -0.321573 0.623894 
6 1 7.19803 8.18319 0.497463 0.393 1.02613 -0.0741915 
7 1 6.44351 4.34069 2.53021 0.355337 0.6058 0.345164 
8 1 5.14515 5.77809 7.73486 -0.85698 0.0599625 0.524376 
9 1 9.22111 0.19072 4.803 0.811505 1.14566 1.93811 
10 1 1.54468 3.6417 8.80689 0.293755 -0.296537 0.72323 
11 1 0.607449 7.67181 2.96762 0.139754 0.971494 -0.438791 
12 1 3.38759 5.4736 1.60745 -0.583774 -0.790402 -0.350168 
13 1 8.85342 5.92335 6.12536 -0.448005 1.00908 0.216418 
14 1 7.51277 8.69004 1.24067 -0.267586 0.59209 0.660821 
15 1 3.70743 4.99796 6.27665 -0.785251 -0.873491 1.52514 
16 1 2.6022 5.52345 4.12988 0.116876 0.66251 -0.862284 
17 1 8.30224 8.41936 2.95755 -0.745785 -0.118808 -0.687043 
18 1 0.124342 1.26377 7.49497 0.4361 0.209679 1.29587 
19 1 3.71341 4.48082 7.51495 0.427531 -0.593309 -1.43878 
20 1 0.411375 1.5669 1.59405 1.63527 0.509205 0.430775 
21 1 0.207253 4.59631 3.96806 -0.904705 0.456277 -0.415681 
22 1 5.12214 2.69675 2.2965 0.569146 -0.710073 0.41083 
23 1 6.72016 9.02323 0.769445 -1.02433 0.150894 0.0495319 
24 1 3.43146 2.26724 7.61687 0.0291832 0.697185 -1.96544 
25 1 5.10592 9.29839 0.216015 2.57255 0.283034 -0.106217 
26 1 5.91325 5.53333 7.15705 -0.00440516 -0.274925 1.30395 
27 1 5.83286 1.14393 4.9189 -1.22921 1.12681 -0.769464 
28 1 9.37468 5.16101 6.39552 -0.226689 1.05484 0.0875015 
29 1 8.51961 5.87214 2.60415 -0.707852 -1.93307 0.105838 
30 1 5.08232 3.91858 6.81826 -0.407361 0.121032 -0.894065 
31 1 8.99195 9.14972 6.66917 0.833253 0.617156 -0.642254 
32 1 5.25584 3.5329 5.48176 1.36847 1.15305 -0.586549 
33 1 8.43085 3.40492 5.54047 -0.995984 -0.437409 1.17574 
34 1 3.55714 4.07054 5.0476 0.453226 -0.699339 -0.055143 
35 1 4.76833 8.33211 4.14306 -1.23021 0.448922 -0.0148491 
36 1 7.81528 6.87845 4.94271 -1.16419 0.0112439 -0.872308 
37 1 6.26972 2.75292 6.47857 0.759351 0.208663 0.116156 
38 1 1.52925 8.82527 2.01128 -0.627567 1.15067 -0.803304 
39 1 0.202826 4.06688 4.87756 -0.182532 0.534607 -0.321824 
40 1 2.08934 8.89721 3.81238 -0.562832 0.733289 -1.07343 
41 1 1.7961 5.23338 8.28385 -0.422235 0.252927 -0.205706 
42 1 9.04655 3.03501 1.03147 0.184795 -0.197721 -0.675178 
43 1 0.374896 0.83428 0.620368 0.208573 -0.113159 0.396972 
44 1 5.7056 2.84417 1.56494 -0.271681 -0.98535 0.164434 
45 1 5.27627 4.23156 8.35721 0.206409 -0.809072 -0.370349 
46 1 4.20225 1.35216 3.96673 -0.0962463 0.498627 -0.5108 
47 1 5.30357 6.53219 3.93402 -0.536741 0.120955 0.000447469 
48 1 2.03113 4.08894 0.185513 -0.76098 -0.678012 0.00281277 
49 1 6.64735 5.07507 8.81239 1.43334 -0.647264 -0.26911 
50 1 1.869 7.99055 4.19681 -1.53417 -0.29959 -0.867847 
51 1 2.61988 6.16377 1.432 -0.768576 0.942137 -0.465219 
52 1 1.99999 3.30968 5.02321 1.721 0.915435 0.924245 
53 1 7.12332 2.24837 4.57264 0.0876981 -1.26182 -0.548216 
54 1 9.33845 5.49605 3.92292 -0.597831 1.39309 1.14658 
55 1 7.12325 4.20458 4.27121 -0.623488 0.193146 0.596888 
56 1 1.74777 5.68101 0.686333 -1.31272 -0.714653 -0.610406 
57 1 6.58689 2.5027 1.72692 0.433211 -1.13583 0.189223 
58 1 4.95113 4.08416 0.520263 -0.728399 -0.470325 0.630446 
59 1 7.71795 1.0008 1.72941 0.748283 -1.40184 -0.391724 
60 1 8.57834 0.483005 7.12915 0.843666 -1.50214 0.342011 
61 1 7.49852 1.66049 8.78399 0.0829552 -0.600439 -0.452154 
62 1 6.48146 4.28826 3.49598 -0.0609471 -0.752068 0.936089 
63 1 0.0840611 8.76593 9.28203 0.181632 -0.543684 0.291976 
64 1 5.7182 4.86367 3.76291 -1.28468 0.196141 0.181959 
65 1 0.465142 3.55183 0.850745 -1.01712 -1.56173 1.11496 
66 1 3.21046 3.97756 2.25389 1.21119 -0.454824 1.2511 
67 1 1.87102 1.99766 4.04322 -0.671013 1.02851 -1.44169 
68 1 6.55012 8.69297 3.33539 -1.09858 0.715194 0.917347 
69 1 6.35412 2.50178 7.78794 -0.0165627 -0.281714 0.358198 
70 1 7.70092 2.61753 7.23582 0.487788 1.3751 -0.429324 
71 1 2.02295 3.09902 0.101195 0.0250424 -0.701647 0.885017 
72 1 4.72347 2.98072 0.114977 0.594813 1.30005 0.521057 
73 1 0.404725 0.576226 2.45126 0.208108 0.210211 -0.203624 
74 1 3.58515 2.64482 3.13576 1.33918 2.15543 0.134095 
75 1 2.44523 4.65439 8.70932 0.594496 -0.941628 -0.141544 
76 1 8.27959 8.46068 6.89585 -0.254441 -0.57111 0.0340933 
77 1 5.32344 1.02907 1.43491 0.116692 0.835167 -0.765802 
78 1 3.7293 9.24708 4.46809 0.197853 1.12161 -0.304728 
79 1 7.82109 0.00478347 1.89111 -0.666556 0.550472 -0.376816 
80 1 2.81803 8.31175 3.92589 0.383452 0.217057 1.78284 
81 1 7.71776 3.25131 2.12108 0.72709 0.0142841 -0.0397237 
82 1 2.70856 8.1698 5.48098 0.962244 -0.819077 -0.527486 
83 1 9.02807 8.29638 3.68552 -0.0315257 -0.695159 0.667668 
84 1 9.33869 4.99407 4.78085 -1.23255 0.469493 -0.101866 
85 1 6.18862 0.624984 9.09376 1.15294 -1.15079 -0.0435672 
86 1 6.4154 4.58258 1.20685 0.0956783 1.04197 0.26193 
87 1 4.38097 6.31988 6.98306 0.308396 0.769686 0.422667 
88 1 6.20892 8.28918 0.356444 0.663872 -0.603605 0.933722 
89 1 9.35784 6.02976 3.10633 -0.490346 0.759813 -0.576999 
90 1 7.85045 0.456036 5.76204 -0.489198 -0.296237 -0.260367 
91 1 4.66366 9.26922 4.51092 0.578501 0.468135 -0.798741 
92 1 5.70989 1.42515 0.443865 0.614425 -0.170125 0.667276 
93 1 8.35908 7.50689 5.42731 1.01667 1.78734 1.31609 
94 1 7.88278 2.78609 4.96527 1.67266 -0.0513662 0.574338 
95 1 5.66452 0.760111 7.302 -2.07981 0.242131 -1.45899 
96 1 1.05125 5.34645 2.27378 1.59391 1.16925 0.965446 
97 1 3.84255 8.45703 6.54869 -1.02014 -1.35684 -0.5116 
98 1 8.12555 1.89116 8.12114 -0.563603 -0.0520362 0.756911 
99 1 5.79613 6.29351 4.76893 0.204096 -0.0625692 1.06908 
100 1 5.10651 0.0491774 5.97599 1.35873 1.28988 -0.9345 
101 1 7.6525 0.901709 4.95927 -0.479393 -0.364244 0.180874 
102 1 5.12373 7.09846 5.59921 0.568094 -0.903339 0.120516 
103 1 2.19888 3.50941 0.951166 0.489533 0.338306 -0.235017 
104 1 8.53192 5.33016 4.38719 -1.19125 1.34405 -0.00220983 
105 1 8.35235 8.26156 1.46764 0.523666 0.2939 1.16542 
106 1 5.22992 8.94555 5.17815 0.586331 -0.0283056 -0.763893 
107 1 7.57899 5.5526 3.09538 -0.546233 -1.11388 0.126525 
108 1 0.0739137 0.557669 6.85703 0.066474 -0.657499 1.7002 
109 1 2.79887 6.67987 6.42644 -0.7229 0.451736 0.315422 
110 1 1.32891 1.81203 1.43209 0.264156 0.274948 0.348139 
111 1 4.03469 8.30748 1.80331 0.60739 -0.826622 1.349 
112 1 5.54539 0.0429235 8.65061 -0.185855 -0.417977 0.521706 
113 1 6.4274 2.37877 0.0292009 -0.378921 -1.54513 0.502557 
114 1 8.48933 2.46179 3.3904 -0.054383 0.377532 -0.455066 
115 1 0.783241 6.19658 5.40278 0.351078 0.245511 -0.843215 
116 1 5.35212 4.84557 7.56327 -0.0514082 -0.321307 0.541689 
117 1 8.59816 3.36966 4.57705 -0.994969 -0.507777 0.46617 
118 1 1.21656 1.68593 3.29019 -0.585693 0.0416874 -0.0868595 
119 1 5.23605 5.16866 8.4684 0.176261 -1.77558 -0.273039 
120 1 2.61231 6.60643 2.41181 0.484138 0.336351 -0.878205 
121 1 7.16581 2.96895 0.360175 -1.04271 -0.794809 -0.642356 
122 1 8.00501 3.92861 3.99616 1.37261 -2.08228 0.363386 
123 1 5.13957 5.77973 0.851152 0.676767 -0.674679 0.513514 
124 1 3.87723 3.42862 3.57974 -2.16022 0.0908423 -0.295659 
125 1 4.01421 3.63999 1.7569 -0.244088 0.758158 -0.151872 
126 1 4.16609 9.35556 5.33232 -0.0214124 0.909691 0.924329 
127 1 0.570079 6.77518 8.18602 -0.0848443 -1.44177 -0.120793 
128 1 8.03223 3.17465 6.4838 0.275233 1.01875 -1.52154 
129 1 8.67697 8.28818 9.07216 -1.60943 -1.22139 0.0585027 
130 1 0.170671 0.646586 1.52967 -0.0297066 1.8278 -1.47494 
131 1 2.05841 2.90558 8.47816 0.456083 -0.336795 0.354164 
132 1 3.84471 6.88248 3.58132 -0.777686 -0.711221 -1.75223 
133 1 9.11674 5.96891 4.75329 0.723412 0.517432 -0.974135 
134 1 7.00194 4.37559 6.00042 -1.30786 -1.39585 -0.0412916 
135 1 2.6964 5.56754 8.45374 0.325459 -1.29491 0.369359 
136 1 2.8844 0.0520435 2.87135 -0.352771 1.2946 -0.348142 
137 1 4.61091 2.95765 4.06039 -0.658606 0.346374 -0.277929 
138 1 7.68994 6.46967 2.64561 -0.418357 1.78381 -1.16951 
139 1 9.17187 4.44084 7.01863 1.59304 0.308491 -0.914841 
140 1 5.44529 4.95028 0.480011 -1.09584 0.868098 0.327042 
141 1 1.07975 3.86305 2.43226 0.834722 -0.773309 0.0200236 
142 1 1.52065 8.57811 5.43938 0.00313832 1.30588 0.478138 
143 1 9.06896 8.57716 0.791954 0.050543 -0.435152 -0.052851 
144 1 2.8966 1.41024 5.26387 -0.206118 -0.687249 -0.0672639 
145 1 5.70976 0.491196 0.658187 0.702804 -0.0583375 -0.700083 
146 1 4.54239 2.89577 3.0663 1.11079 0.737944 0.402556 
147 1 8.71025 3.58093 6.9743 -0.885192 -0.729849 -0.0758663 
148 1 5.84971 0.525849 6.39102 0.0599513 0.717111 0.663562 
149 1 6.17972 5.59787 5.48743 1.36334 -0.132598 0.547021 
150 1 8.30623 0.242905 8.01652 1.59579 -1.08127 0.0743026 
151 1 7.19285 2.72722 6.29213 -0.592028 1.24302 -0.520556 
152 1 8.53439 7.91095 7.63131 -0.3039 1.08903 0.182729 
153 1 3.4764 0.84325 6.46702 0.366699 -0.377578 1.86667 
154 1 7.66675 7.75059 4.60343 -0.256707 -0.807585 -0.456189 
155 1 4.60059 0.230256 8.82997 -1.25105 0.144113 0.354658 
156 1 8.84271 2.14942 0.735583 0.299854 0.660277 0.225209 
157 1 2.85716 7.32818 1.84899 1.07224 0.0370789 -1.15027 
158 1 5.79036 5.16539 4.72048 0.238221 -0.492699 1.06671 
159 1 5.40247 6.3422 0.122147 1.20842 -0.580141 -1.69375 
160 1 0.937949 0.159174 1.79741 0.224107 -0.763331 -0.292618 
161 1 5.16359 3.58908 4.52702 -0.577757 -0.739132 0.679306 
162 1 3.50804 2.14572 2.31776 -0.264508 0.376161 -0.482667 
163 1 3.04939 6.08741 4.74248 -0.938645 -0.248161 0.0992835 
164 1 7.00183 2.85238 2.74923 -0.701102 1.46575 0.171626 
165 1 7.85016 0.812215 8.60268 -0.529726 -0.602522 -0.19976 
166 1 4.97521 2.64806 5.73808 -0.680797 0.395605 -0.856664 
167 1 8.01651 8.35639 5.25765 0.140499 0.0586435 -0.0685211 
168 1 6.70091 4.25484 9.33386 -1.36716 -0.838146 -0.523839 
169 1 4.70067 7.10476 6.50434 -1.08112 1.32583 0.362321 
170 1 6.6288 5.15603 3.06212 0.217364 0.221393 -0.44107 
171 1 0.838903 3.0924 7.1915 -0.106824 -0.592016 -0.379379 
172 1 7.23748 2.1777 7.94623 -1.17131 0.616735 0.214639 
173 1 5.45794 3.29214 0.696622 0.962733 0.190462 -0.0680244 
174 1 7.63279 1.91343 6.42494 0.499262 -0.309453 -0.740805 
175 1 2.9028 8.50914 2.99133 0.315305 -0.677281 -0.718068 
176 1 9.12426 4.55397 0.00913207 -0.342025 -0.0049694 1.18787 
177 1 3.42094 7.47458 5.32637 0.213444 -0.595317 -0.648302 
178 1 2.85192 5.20538 3.14923 0.134491 -0.223613 0.190084 
179 1 2.25372 2.17953 5.22698 0.635932 0.614248 1.05728 
180 1 4.77331 3.76903 3.45882 -0.727615 -0.498886 0.562746 
181 1 7.48558 7.77785 1.59564 -0.00754171 -0.204172 -0.0302047 
182 1 3.33709 4.0044 4.12921 0.366265 0.207784 0.101484 
183 1 5.32557 2.33821 3.21298 -0.547164 0.0454964 0.605736 
184 1 3.01576 4.56765 0.0333324 -0.907401 0.441089 0.543186 
185 1 3.98072 1.31756 2.27997 0.350841 -0.112819 -0.39328 
186 1 3.90505 5.95799 6.21513 0.229606 -0.814007 0.473837 
187 1 7.01718 4.27579 8.4304 1.80008 0.625562 -1.29859 
188 1 9.146 2.03478 9.23779 0.296239 -0.675476 -0.590863 
189 1 8.3551 4.51005 8.61708 0.780745 -0.0781368 -0.236377 
190 1 6.34562 1.70014 4.28464 0.301901 -0.237029 0.952996 
191 1 2.21762 2.99743 3.44924 0.440086 1.50821 0.472257 
192 1 0.162538 4.57816 7.88201 -1.12817 -0.242964 -0.469539 
193 1 8.28876 0.253962 4.41603 -0.0257901 0.797619 0.375816 
194 1 7.61451 9.12196 0.339471 -1.04792 1.09588 -0.931165 
195 1 5.0046 0.134621 1.32409 -0.297903 -0.197397 0.195868 
196 1 3.34511 7.69846 3.40579 -0.313223 0.0270961 0.472145 
197 1 8.21497 0.857381 2.55841 0.664516 -0.169435 -1.16028 
198 1 1.12987 1.35132 0.33385 0.0222768 0.292146 -0.547395 
199 1 7.47925 3.35846 5.66366 -0.635384 -2.37978 1.52566 
200 1 5.21087 6.31279 2.68651 -0.108842 -0.981262 0.264418 
201 1 7.46645 0.991095 0.078308 0.287523 -0.982922 -0.684757 
202 1 4.80871 2.64034 1.29023 -0.0138613 -0.170648 0.744695 
203 1 0.263504 2.69257 0.393336 -0.703896 0.106053 -0.793778 
204 1 2.49004 4.53195 2.56765 0.32931 1.05389 -0.042751 
205 1 4.54767 2.11834 4.56673 -0.616297 0.0983755 0.443024 
206 1 3.19617 3.49052 7.29248 0.198667 0.880463 0.0669376 
207 1 2.29083 3.30713 7.57455 0.610979 0.190561 -0.252836 
208 1 0.0423753 4.86186 1.56669 -0.552626 -1.39393 -0.0442345 
209 1 8.60659 4.89903 7.74791 0.871541 -0.138458 1.82955 
210 1 6.54851 0.533536 4.60723 0.0137106 0.495481 0.671778 
211 1 9.22179 2.87363 2.90511 -0.693983 1.79235 -2.19293 
212 1 4.43948 0.469469 2.20399 0.274453 -0.663709 1.18482 
213 1 1.10256 3.5903 6.34551 0.765968 -0.990381 0.616186 
214 1 1.04665 8.23897 4.67895 2.67492 -0.819771 -1.14385 
215 1 6.84131 9.07666 4.22083 1.3799 -0.190209 -0.344595 
216 1 4.09048 0.486603 7.17459 1.38879 -0.529101 0.349624 
217 1 0.768989 1.85673 8.12704 1.15335 -0.0698103 0.723782 
218 1 0.106912 2.14694 4.5607 0.292215 -0.506904 -0.396006 
219 1 5.3559 3.68941 9.14629 0.423444 0.189105 -1.20012 
220 1 3.90659 6.8597 7.592 1.4464 1.75322 1.78211 
221 1 3.40902 2.32372 8.56066 -0.205463 -0.700427 0.116012 
222 1 3.24434 6.86797 1.06405 -0.0742911 -0.277379 -0.684935 
223 1 9.1581 8.35081 8.23928 -0.289876 -0.356131 -0.412261 
224 1 3.50269 4.47567 1.51423 -0.354377 0.343488 0.916587 
225 1 8.9099 4.45709 2.31036 0.610256 -0.944645 -0.540259 
226 1 6.36799 2.89835 8.63923 1.36008 0.832156 0.407021 
227 1 3.95716 5.58491 0.0994412 -0.193963 -0.594945 -0.223858 
228 1 4.84477 4.32688 5.99639 0.249694 0.755388 0.637045 
229 1 6.86465 2.14081 7.03118 0.308189 -1.07537 0.0810907 
230 1 8.38736 9.2303 5.24196 -1.34987 0.207856 0.687198 
231 1 4.75028 6.95112 3.23724 0.357357 -0.259627 0.197202 
232 1 0.385645 9.32778 8.52914 0.110202 0.434165 0.792767 
233 1 4.44821 9.19549 6.60981 0.244734 0.0136703 1.06797 
234 1 8.07327 7.43852 6.86826 1.26463 -0.287006 -0.196213 
235 1 4.13202 7.70461 5.97973 0.245588 0.556795 -0.866127 
236 1 4.42959 1.33095 5.30399 0.371549 0.325584 -0.676868 
237 1 1.45655 2.55832 4.76048 -1.0322 0.0297458 -1.25844 
238 1 2.86979 2.66039 6.91272 -1.67336 -1.62559 0.109835 
239 1 3.70561 7.57893 4.39728 -0.16106 -1.35402 0.241001 
240 1 0.228924 1.32017 6.26612 -1.24569 -0.367053 -0.801849 
241 1 9.10581 5.09891 8.61984 0.693006 -0.749457 -0.558487 
242 1 3.80819 8.4019 3.99524 0.0684947 -0.465861 0.00968667 
243 1 8.3811 5.2162 9.28406 0.920573 1.42018 -0.453699 
244 1 7.40097 1.4615 2.50083 0.406803 -0.684503 -0.0641091 
245 1 2.79401 6.42016 8.88643 1.19734 -1.22519 0.763578 
246 1 7.67565 5.61973 2.14154 0.782692 -0.0253573 -0.388907 
247 1 5.81116 1.87727 1.52814 0.512744 -0.086182 -1.36629 
248 1 4.62317 5.26835 6.00958 0.765354 0.832577 -0.526359 
249 1 6.05848 5.58105 8.1603 -0.616013 0.704499 1.08321 
250 1 7.69796 6.62732 5.9173 -0.100516 -0.197692 -0.0748375 
251 1 8.11462 2.48845 5.84308 0.426052 0.088728 0.323303 
252 1 4.88149 1.71401 0.879435 0.847697 0.109172 0.609374 
253 1 5.77772 5.73589 2.11802 0.994987 1.02063 -1.01581 
254 1 7.26307 6.31574 4.43319 -0.668727 -0.145118 0.0308834 
255 1 7.62283 4.89181 1.54364 0.926742 0.548005 -0.0750916 
256 1 0.840275 3.88388 4.18088 0.246021 0.718818 -0.0624951 
257 1 5.60989 1.55923 7.7944 -0.495375 0.267902 -0.268115 
258 1 3.19618 2.4444 5.04802 0.868051 0.0416784 -0.692266 
259 1 1.37617 5.83509 3.16487 2.36572 0.258853 -0.045807 
260 1 6.36276 3.49883 3.0104 -0.181779 -0.618231 0.398935 
261 1 8.03069 8.04409 3.76799 -0.973995 0.775882 1.20249 
262 1 5.89897 2.8173 5.59772 -1.64238 -0.228326 0.244468 
263 1 3.75531 3.02636 4.5246 0.455696 -0.838765 1.35384 
264 1 5.77925 1.4343 8.81636 -0.0579123 -0.439387 0.10135 
265 1 5.82363 5.51472 9.1508 -0.889033 0.177375 -0.220553 
266 1 2.34024 3.98254 3.32382 -0.980786 -0.154054 -0.374749 
267 1 5.92705 4.1297 0.490905 0.830139 -1.13654 -0.254731 
268 1 0.0789795 3.11543 4.83596 0.926479 -0.880272 0.852333 
269 1 4.41489 5.28267 3.85141 -0.802679 -0.746466 -1.06031 
270 1 7.02845 4.18885 1.78479 0.720208 -0.602562 0.0762506 
271 1 3.87624 8.48675 3.03009 0.0641117 1.25844 -0.420798 
272 1 8.20827 4.96816 2.68343 -0.0292149 -0.156395 -0.527088 
273 1 9.16852 9.20829 1.49651 0.519043 -0.675024 -1.47465 
274 1 4.06129 9.27602 1.57209 -0.861148 0.0361372 1.69533 
275 1 5.45483 3.257 3.04526 0.419636 -0.390801 0.438973 
276 1 7.468 1.03714 3.34403 0.489548 1.1879 -0.504505 
277 1 6.11053 4.62952 8.12515 1.66997 0.175701 -0.588682 
278 1 4.3211 3.79864 9.28082 -0.740354 -1.0489 -0.209347 
279 1 5.23898 5.80548 5.35965 0.767101 1.03684 -0.170996 
280 1 1.88458 5.53328 1.6514 -0.429557 -0.169014 -0.336574 
281 1 7.8354 3.72728 8.45679 0.149985 -0.867664 0.259158 
282 1 7.83309 3.85346 4.93976 0.681398 -0.0430749 -0.319593 
283 1 0.0466923 3.6008 9.38077 -0.529321 0.392668 0.568364 
284 1 8.12552 1.45276 5.70905 0.0214899 -0.982355 -0.280633 
285 1 6.67425 5.18858 1.96586 -0.425962 -0.173789 -1.01793 
286 1 7.34295 0.516879 2.52619 0.113186 -0.774746 0.502224 
287 1 2.23139 8.63726 1.35885 -0.114696 0.954788 0.0530168 
288 1 6.90605 0.22209 3.29779 0.787691 -0.230867 -0.236826 
289 1 1.60942 5.77087 4.10997 0.235424 0.250524 0.337894 
290 1 3.3648 7.95582 2.38557 0.682942 0.452249 -0.584916 
291 1 6.47962 1.944 0.855539 -0.973067 1.67647 -0.365269 
292 1 3.33814 9.09114 3.59753 0.623904 0.390415 0.199449 
293 1 4.38458 6.73763 2.33322 0.0281472 0.0412418 -0.330416 
294 1 7.31476 4.77877 2.51455 0.410572 -0.777591 -1.09572 
295 1 1.98153 1.13558 1.70125 -0.0232071 -0.656522 -0.198651 
296 1 7.3175 2.23294 1.14853 0.112897 0.67716 -0.739937 
297 1 7.38583 0.272283 1.09137 0.141565 0.569658 0.284994 
298 1 3.38821 6.43265 1.92795 0.252521 0.467424 0.317497 
299 1 3.45766 3.26461 6.39575 -0.168355 0.87297 -1.33407 
300 1 3.43486 5.4243 7.82022 0.0613042 1.1113 0.135618 
301 1 1.57746 3.28338 4.14707 -1.08092 1.02925 0.539544 
302 1 1.40279 6.76409 7.6698 -0.763936 0.447454 -0.191854 
303 1 3.25727 1.33175 3.85754 1.12747 -0.754878 -0.0908758 
304 1 3.85329 6.65182 4.77197 -1.07765 0.876358 0.587344 
305 1 0.53428 6.93474 7.19684 -0.170336 0.085059 0.61658 
306 1 8.52874 4.84308 6.12323 -1.0897 0.948115 0.337177 
307 1 8.59333 6.89372 6.09442 -0.746218 -0.498295 0.65228 
308 1 2.14101 5.28772 6.04066 -0.457401 -0.234588 -1.06862 
309 1 8.42259 5.87702 7.72594 1.29669 -0.388668 -0.71557 
310 1 7.95971 4.06552 6.10857 -0.149344 2.23532 1.15795 
311 1 7.04976 3.47786 8.9388 1.16643 0.354569 0.819073 
312 1 4.96084 1.2455 4.52542 0.0655135 0.42525 1.016 
313 1 5.42941 7.21901 4.63136 0.582694 -0.106779 0.199838 
314 1 6.25941 2.62983 4.47292 0.648148 -0.34097 0.81086 
315 1 4.05457 4.67781 4.49011 -0.570432 -0.587513 0.402979 
316 1 6.5831 6.03546 8.93092 0.32146 -0.547038 -1.15478 
317 1 8.85146 2.5767 5.26319 -0.202951 -1.34981 -0.838933 
318 1 0.0327441 6.67066 6.42632 0.181116 -0.17472 -0.216863 
319 1 1.05746 8.28709 6.43009 -0.300377 0.373678 -0.0416847 
320 1 2.28551 6.68172 7.26515 0.227289 -0.406048 -0.896955 
321 1 6.92053 5.45828 1.07666 0.973109 0.621518 1.55114 
322 1 1.32035 7.36785 6.85708 -0.864203 -0.169703 0.057339 
323 1 8.63693 8.83726 2.17819 0.581045 0.445073 0.389615 
324 1 3.13116 9.06703 1.3772 -0.0281413 -1.08121 1.13313 
325 1 1.04212 5.115 1.30845 -0.619351 0.339213 0.59246 
326 1 7.21266 1.27346 0.942346 0.882426 -0.341748 0.680224 
327 1 6.854 8.73635 9.19015 0.224466 1.13307 1.87912 
328 1 7.82058 5.27074 8.35365 0.162434 -0.429847 -0.56459 
329 1 5.27737 0.77904 9.24999 0.776327 -0.345221 0.5512 
330 1 6.79095 2.82054 5.28023 0.735647 -0.659343 -0.503673 
331 1 0.0490414 0.919431 5.40995 1.25285 -0.386729 0.165617 
332 1 3.73559 6.81275 8.5433 -0.630779 0.722262 0.0947306 
333 1 3.60379 8.46242 5.63517 -0.507333 0.400241 -0.226307 
334 1 6.04564 2.75921 2.47683 0.568716 -0.578586 -0.522229 
335 1 1.85408 1.30227 2.66156 -1.05654 0.437948 -0.369127 
336 1 5.74526 3.0518 7.25169 -0.382343 -0.0759127 0.878489 
337 1 3.71941 2.82732 1.24451 -1.37382 0.684127 0.953801 
338 1 6.63502 1.95301 6.1259 -0.276788 -0.701226 0.260395 
339 1 3.21583 2.40037 5.98692 1.47374 -0.213837 0.366323 
340 1 9.09904 0.949292 3.13121 -0.433411 0.792505 0.504512 
341 1 8.44509 5.75113 3.54327 0.512814 0.653693 -0.908827 
342 1 4.34351 0.643854 5.99528 1.30663 -0.232891 0.129127 
343 1 9.142 7.36704 3.96774 0.0250341 -0.375485 -0.951958 
344 1 0.766988 8.9639 5.81307 1.23261 -0.173066 0.463623 
345 1 9.04661 5.10957 3.09069 -0.527563 0.695267 -1.08811 
346 1 0.711911 7.97727 7.29338 -0.342151 -1.08867 0.491084 
347 1 3.89124 3.57343 7.90887 0.597489 0.652322 -1.25631 
348 1 2.42924 4.02166 1.70737 -0.0150924 -1.86979 0.568154 
349 1 1.44192 3.55228 3.24187 0.422823 -1.29473 0.104595 
350 1 6.4807 9.31418 8.46277 -0.10907 0.282421 -0.999818 
351 1 8.23677 6.2215 4.37901 1.76559 -0.442497 -0.119946 
352 1 3.12227 6.3754 7.95732 0.040079 0.420036 -0.0336347 
353 1 8.11623 7.53131 9.29048 -0.277263 -1.39827 -0.29334 
354 1 2.6121 5.76895 7.44668 -0.780566 0.813871 0.10261 
355 1 1.23709 6.32697 6.85294 -0.262427 -0.235986 0.715912 
356 1 6.03658 0.230455 1.51447 -0.989187 0.328001 1.06697 
357 1 0.351311 9.28813 0.689863 0.0642017 0.233981 -0.304332 
358 1 3.11012 1.38656 1.84624 -0.973083 0.174155 -0.781845 
359 1 5.23946 1.84305 5.2415 -0.912559 -0.176793 -0.0338919 
360 1 8.21475 3.3953 0.685577 -0.299258 -1.07496 0.769195 
361 1 8.59956 2.92971 7.627 -0.225603 -0.239403 -0.249245 
362 1 5.03217 3.55344 1.55449 -0.758053 0.927393 0.228822 
363 1 5.49116 3.24175 6.34204 0.313043 0.657006 -0.511797 
364 1 1.13272 0.885437 1.19489 -1.26557 -0.726355 0.728045 
365 1 1.06142 4.3111 8.17118 -0.848543 -0.369021 1.39696 
366 1 0.791065 7.15495 5.26215 -0.848244 -1.26419 -1.36553 
367 1 3.33998 4.92261 2.38113 0.260671 -0.828739 -0.463298 
368 1 3.79076 0.516391 3.77547 0.139036 -0.702482 -0.933467 
369 1 6.61125 1.06635 2.82624 -0.0282613 -0.370822 -0.070984 
370 1 1.2311 1.33313 8.79307 1.06935 -0.208731 1.23305 
371 1 3.15084 0.701894 4.59473 1.31251 -0.146692 1.00839 
372 1 4.09816 2.2939 5.36342 0.184882 -1.57673 0.601927 
373 1 0.585819 5.25466 3.15137 -0.672743 1.32198 0.278524 
374 1 5.97946 8.54955 8.78 -0.0536358 -0.0456535 0.317714 
375 1 5.55109 2.955 3.92857 -0.0596421 0.377766 -0.494909 
376 1 1.22122 8.52838 3.77365 0.708939 0.0230855 -0.280404 
377 1 0.314233 6.70656 4.57138 -0.129127 1.40644 -0.706669 
378 1 8.40684 6.26378 5.33941 0.274603 0.0296769 -1.31673 
379 1 8.84435 8.78703 4.50878 -1.09282 0.127996 0.875713 
380 1 6.0731 9.20427 0.075585 -0.110625 0.707298 1.11298 
381 1 0.587848 5.89474 6.28798 -0.317824 -0.778169 -0.689326 
382 1 4.49358 2.14926 3.61837 -0.735605 -1.03951 -0.0595411 
383 1 7.74527 4.44068 7.85724 -0.233346 -2.54138 -0.0927692 
384 1 3.39647 6.03756 3.81977 0.871625 -0.342403 0.218663 
385 1 1.63606 4.27053 3.85384 0.361268 -0.726899 -1.11805 
386 1 3.17255 9.28013 5.25762 -0.955284 -0.407942 -0.589305 
387 1 1.45456 5.54627 5.0979 0.541697 1.58785 1.01306 
388 1 7.64524 0.518955 7.28718 0.792225 0.561791 0.218511 
389 1 4.83635 6.22656 6.11613 0.343069 0.491818 0.73765 
390 1 0.511762 3.32777 3.40592 0.52028 -0.729005 0.0117674 
391 1 7.72294 5.62373 4.98126 -0.783538 -0.716398 0.693251 
392 1 7.71988 7.26901 3.2171 -1.05405 0.582786 -0.398551 
393 1 3.96744 4.88744 5.39021 0.579955 -0.531363 -1.24401 
394 1 4.55853 7.14384 4.19725 -1.14264 0.825172 1.45936 
395 1 6.19645 2.01401 5.22476 0.939448 -1.60917 -0.369808 
396 1 6.28308 3.37426 0.0760412 -2.20137 0.238562 -0.0302315 
397 1 3.72853 1.58201 5.87848 -0.696977 0.243599 -0.0788826 
398 1 1.77098 4.6925 5.44271 -0.77002 0.44561 0.178752 
399 1 3.72553 4.07524 0.634978 -0.257109 0.69835 0.412386 
400 1 0.453453 1.46983 2.74009 0.446197 0.253904 -0.0438255 
401 1 2.11166 2.06065 2.05452 0.461078 -0.541334 0.656367 
402 1 2.24567 2.27069 6.25456 -1.26514 -0.186375 -0.6614 
403 1 6.51733 3.49584 5.90093 0.115647 1.49626 -0.640027 
404 1 2.40468 7.35967 5.82827 0.472592 -1.02482 -0.315944 
405 1 7.09871 8.4625 4.98038 -1.26756 0.264311 0.727609 
406 1 0.835516 2.94238 2.63002 0.29354 0.335761 1.26263 
407 1 8.63558 7.56812 3.19851 0.53621 -0.865617 0.717786 
408 1 7.7484 8.50075 2.16859 1.19332 -1.23695 0.848935 
409 1 6.84322 5.89797 3.6424 0.558261 -0.521584 0.0271492 
410 1 7.38389 4.65224 3.46949 0.709452 0.47111 0.117382 
411 1 1.91741 3.7945 5.82885 -0.703592 1.19605 2.65352 
412 1 0.331512 8.8438 7.65289 0.226573 -0.875336 -0.24321 
413 1 6.00245 1.06417 2.10547 -1.72504 -2.04963 0.713433 
414 1 0.534681 9.06583 6.74118 0.459882 -0.670054 0.986626 
415 1 2.66676 5.3762 0.882734 -0.327646 0.697925 -0.284202 
416 1 1.95278 7.06289 4.48065 0.200154 -1.23052 -0.384982 
417 1 9.22624 8.23661 7.05932 -0.712771 1.17798 0.871552 
418 1 4.93534 0.625657 6.73073 1.07709 -0.397636 0.0474886 
419 1 6.23899 4.63322 7.16962 0.471382 -0.0674238 -1.05608 
420 1 4.87912 1.83876 1.82069 -0.349458 -0.193458 0.561762 
421 1 9.31754 6.51368 5.4984 1.16784 -1.00969 0.142509 
422 1 2.16141 5.05884 6.96479 1.23852 0.888979 -0.82743 
423 1 1.42613 4.77256 7.4425 -0.764237 -0.151489 0.995795 
424 1 8.85728 1.64816 5.05296 -0.47321 -0.192664 0.662082 
425 1 7.95092 5.65964 5.91205 0.421644 1.3455 0.352043 
426 1 5.35348 6.36635 6.94217 -0.82591 0.517706 -0.575405 
427 1 0.925175 1.95735 4.13303 0.806641 -0.341633 0.273549 
428 1 0.576126 4.43235 6.43264 -0.24912 -0.194426 -1.23813 
429 1 5.47741 4.96593 5.68926 -0.776099 0.7778 -0.733379 
430 1 7.93199 5.37012 0.773016 -0.221677 -0.0699974 -0.514382 
431 1 3.46987 5.07217 3.83185 -0.541348 0.55703 -1.09532 
432 1 5.71928 9.08537 2.94 0.832597 -1.40577 0.601232 
433 1 4.01136 1.70617 8.16292 -0.705563 0.733145 -0.520651 
434 1 8.09788 7.6427 2.39232 0.411191 -1.52234 0.751037 
435 1 6.57615 1.91008 8.5816 -1.0024 -0.0509662 -0.331637 
436 1 6.86339 6.71589 3.16474 -0.392828 -1.08188 -0.171745 
437 1 1.216 6.44218 4.63986 0.70917 0.34625 0.517809 
438 1 1.30198 2.63063 3.47071 0.403469 0.661812 -0.930609 
439 1 6.84494 9.12396 1.7429 0.558552 -0.674596 -0.590227 
440 1 1.85959 6.79796 6.3295 -0.997799 0.044457 -0.99329 
441 1 3.00627 5.52251 9.37371 0.33581 -0.803065 -0.546583 
442 1 1.43061 6.64445 3.76872 0.417916 -0.583433 0.912325 
443 1 8.4895 6.63946 3.19052 -1.01864 -0.987344 1.91925 
444 1 7.55342 4.69985 9.11555 -1.18658 -0.982519 -1.01169 
445 1 2.94456 3.35916 4.89198 -0.383323 -0.380114 -0.441328 
446 1 1.68925 6.7971 5.39524 1.23843 0.183545 -1.95398 
447 1 1.52931 4.58165 8.93449 -0.330057 0.0201729 -1.09433 
448 1 1.57732 4.49166 2.92231 -1.44592 -0.606836 1.86076 
449 1 7.27342 1.98956 0.241985 -0.741175 -0.370495 -1.34836 
450 1 2.01428 5.84802 9.06613 -0.125612 0.513999 0.690541 
451 1 1.68264 3.88389 7.07132 -1.40341 -0.490215 -0.233515 
452 1 2.45603 7.39562 3.74326 0.181659 -0.462263 0.246335 
453 1 6.24144 2.57153 3.39393 0.113657 -0.112976 -0.157023 
454 1 7.29878 0.241642 8.1176 -0.701565 0.652735 -0.600995 
455 1 5.34886 2.69278 4.82398 0.662716 -1.9239 0.11319 
456 1 8.93993 0.397059 0.776787 -0.914597 -0.710916 -0.221287 
457 1 3.95949 5.46634 7.04652 -1.2793 1.05469 -0.48961 
458 1 7.73019 8.38228 9.08892 0.184371 -0.144317 -1.94949 
459 1 1.76207 2.84018 2.59616 0.368458 -1.39232 0.577262 
460 1 8.20266 7.11619 4.03559 1.75673 -1.1717 -0.173811 
461 1 8.98045 3.95851 0.741139 -0.127072 1.67331 -0.359198 
462 1 9.25138 9.28561 5.70865 -1.67155 1.67675 0.182515 
463 1 1.25999 6.08352 8.34695 -0.289731 1.10806 0.284507 
464 1 0.5769 0.435119 6.08296 -0.932554 -0.0557903 1.50823 
465 1 4.13204 2.5662 6.26459 0.194529 1.31043 -1.07424 
466 1 0.159795 2.82092 8.85315 0.158896 0.484856 -0.811785 
467 1 5.70826 2.27298 8.4402 -0.305932 -0.129292 0.72274 
468 1 5.83969 6.94265 3.23305 0.0374112 0.688545 -2.17278 
469 1 2.6379 7.50137 2.78411 -1.08327 -0.616363 -1.16217 
470 1 7.63864 4.95775 6.45424 -0.721253 0.277746 -1.54386 
471 1 2.39664 3.71026 4.21516 -0.598995 -0.709431 -1.1316 
472 1 6.82592 1.34251 5.07513 0.206397 -0.564464 0.420023 
473 1 4.11192 3.78422 6.92595 2.15967 -0.920068 0.481873 
474 1 3.82123 7.3322 1.77637 0.24014 0.298091 0.824634 
475 1 0.465737 2.49386 1.30275 0.552717 -0.196277 -0.57178 
476 1 2.01917 2.1079 3.09455 0.698044 0.414795 0.216695 
477 1 2.33711 9.04151 5.68862 0.232284 -1.2301 -0.814068 
478 1 0.311894 8.7642 4.99151 1.20828 -0.805356 0.0516109 
479 1 2.70562 7.69494 4.6336 -0.0730135 -0.201623 0.207588 
480 1 0.23289 9.01561 2.30122 -0.236763 -0.469053 -0.275131 
481 1 1.2214 2.03321 2.4259 -0.0490232 0.730705 -0.2899 
482 1 2.34125 5.97639 3.11412 -0.342278 -0.46899 0.74806 
483 1 5.43335 4.37067 1.26397 1.45644 -1.01688 -0.21555 
484 1 2.01085 1.11499 5.51685 -1.24096 -0.101626 1.65314 
485 1 5.42874 4.78384 6.6265 -0.320768 0.12 -1.18611 
486 1 0.68795 0.241741 5.15585 -0.707075 -0.618953 0.485102 
487 1 5.58751 4.20688 2.92572 -0.330988 -0.161344 -0.870162 
488 1 4.31104 0.936008 3.08399 0.438734 -0.319445 0.454553 
489 1 8.39662 2.62467 2.42418 0.127724 0.0488184 1.75133 
490 1 0.0868884 4.59665 5.64147 1.57402 0.173455 -0.288232 
491 1 2.25426 1.15885 4.54515 -0.713361 1.1893 -1.08064 
492 1 1.62825 2.29402 9.13886 -0.500241 -0.238695 0.384135 
493 1 7.22945 3.83792 2.66339 -0.593959 0.618027 -0.929042 
494 1 1.65803 4.575 1.96343 0.078436 -1.04106 1.69344 
495 1 4.91362 6.08978 1.77336 0.332119 -0.623526 -0.94017 
496 1 2.4189 6.17256 5.71079 2.0082 -0.999976 -0.0210247 
497 1 7.32835 2.06925 5.50808 0.993644 0.212248 1.62951 
498 1 5.43488 1.99557 4.12593 -1.0981 0.418946 -0.856532 
499 1 8.97965 8.27935 5.3426 -0.780201 -2.05947 -0.655567 
500 1 6.9259 1.81556 3.46915 -0.897228 -0.89777 1.20015 
501 1 7.5834 8.10876 7.48305 0.521651 1.68745 1.28964 
502 1 5.39914 0.285746 2.21137 0.0673631 0.970757 0.193458 
503 1 4.54129 3.40839 6.13488 0.322852 0.959552 -0.00145821 
504 1 3.8474 5.60111 4.57155 0.778316 -0.888386 -0.19596 
505 1 5.63861 1.87963 2.45999 -0.461091 0.00396987 -0.370235 
506 1 4.86552 4.74555 3.18938 -1.0822 -0.812321 -0.543628 