ITEM: TIMESTEP
3090
ITEM: NUMBER OF ATOMS
1000
ITEM: BOX BOUNDS pp pp pp
0.0000000000000000e+00 9.4000000000000004e+00
0.0000000000000000e+00 9.4000000000000004e+00
0.0000000000000000e+00 9.4000000000000004e+00
ITEM: ATOMS id type x y z vx vy vz 
1 1 3.11953 9.16996 3.09251 0.342754 -2.45238 -0.847727 
2 1 8.78029 2.56304 0.835448 0.701024 -0.464335 1.29981 
3 1 0.715731 6.2938 2.11882 0.115593 0.666319 0.812011 
4 1 3.34289 3.10456 4.82024 0.616851 -0.474286 0.256587 
5 1 2.50525 2.55161 0.0634216 0.313384 -0.599846 1.42351 
6 1 4.28855 7.95106 3.76126 -0.631602 -0.993956 0.549179 
7 1 5.64311 8.8727 4.96674 0.878023 -0.36115 -0.788366 
8 1 5.54622 0.456573 6.3161 -0.477605 1.08859 0.0157734 
9 1 0.0453681 4.10198 0.0893991 -0.558814 1.24674 -0.0469416 
10 1 1.26486 1.70216 5.31353 -0.338786 -0.00502476 0.716316 
11 1 2.62247 2.60968 4.3984 1.3378 0.0728685 0.995206 
12 1 1.26381 3.01405 7.3719 0.823029 0.684 -0.387421 
13 1 7.07183 3.05791 5.07091 0.396422 0.477868 0.933008 
14 1 6.67967 3.37799 3.16914 0.244614 -0.414859 -0.575874 
15 1 0.87543 6.4369 7.29023 0.26615 0.603168 0.67019 
16 1 1.98352 5.05193 5.85817 -0.330303 -0.166982 1.33867 
17 1 4.05696 3.58943 6.14771 1.52891 0.34356 -0.494711 
18 1 8.57214 4.43598 9.38297 -1.41084 1.4886 0.569173 
19 1 0.441339 4.76866 3.30066 -0.0158561 1.3385 0.212293 
20 1 8.20462 1.96319 2.45398 -0.4025 0.718027 -0.10531 
21 1 7.0256 5.03974 2.6919 -0.5901 0.144212 0.967863 
22 1 4.986 1.51682 5.6201 -0.0672415 -0.465376 1.65857 
23 1 4.85581 2.93538 2.64499 1.03681 0.74761 0.147611 
24 1 3.74617 4.03531 2.56696 1.89802 -0.543838 0.473091 
25 1 8.80801 5.75666 5.68159 0.659039 0.526404 -1.73471 
26 1 2.08572 1.73864 8.22312 0.2876 0.553887 0.501727 
27 1 1.01185 2.52706 4.59133 0.879477 0.249666 1.71914 
28 1 4.45766 7.08637 5.39437 -0.412416 -0.325275 -0.353624 
29 1 3.65612 0.0896722 2.37634 -0.120603 -0.714793 0.968395 
30 1 7.79608 2.52057 1.00955 0.207585 -0.294686 0.418069 
31 1 1.60514 0.258151 2.20757 -0.37421 1.06517 0.347521 
32 1 0.371157 2.76572 2.20999 -0.953317 0.942174 0.0040283 
33 1 5.92929 8.54633 3.29253 -0.253246 1.06257 0.258427 
34 1 5.73282 1.87287 7.16841 -0.24303 0.511001 -0.605258 
35 1 3.6887 4.67198 7.43982 -0.641955 -0.516188 0.677381 
36 1 6.86972 2.23834 7.58798 -1.47435 0.37337 -0.669078 
37 1 3.28744 3.25058 2.94667 0.353151 -0.982072 1.23516 
38 1 3.98463 3.22753 9.38371 0.490108 -0.805098 1.02714 
39 1 7.46655 3.61149 9.33153 1.88952 -0.621742 0.0970256 
40 1 5.86131 6.87517 3.52849 -1.39421 -0.233893 -0.305199 
41 1 0.67416 2.29928 7.10124 0.575956 -0.150584 -0.0667911 
42 1 7.36751 2.15022 6.33965 0.0778447 0.0923857 0.434741 
43 1 1.31635 1.53821 9.05522 -0.310602 -0.192622 0.132902 
44 1 3.45288 8.66145 9.34653 -0.203064 -0.148929 -1.11392 
45 1 9.22491 7.63953 2.54685 0.489647 -0.298065 1.70501 
46 1 1.05785 1.95208 6.28525 -0.502487 1.1561 1.02341 
47 1 6.07189 7.97921 4.87106 -0.188108 -0.05494 -0.172997 
48 1 7.6579 6.95782 3.12636 0.325033 -0.790772 -0.705342 
49 1 4.06789 1.86833 7.28524 1.33205 -0.0915068 0.492999 
50 1 7.40131 5.524 1.93308 1.68294 0.586721 0.593661 
51 1 2.18937 4.50905 8.19767 -0.323295 0.384541 0.470457 
52 1 4.60886 3.66936 1.0578 -0.623136 0.0598185 -0.287054 
53 1 4.81129 0.584549 6.96022 -0.376952 -0.398466 -0.854205 
54 1 0.134119 3.0635 5.30086 -0.0993748 -1.45265 -0.758489 
55 1 8.08726 2.12517 5.71377 -0.346851 0.660813 0.131062 
56 1 9.07428 1.13378 0.494951 -0.436787 -0.848761 -1.07788 
57 1 3.75017 8.43889 7.5075 -0.788592 0.928931 0.584723 
58 1 1.07464 0.928439 6.27233 1.43907 0.284036 -1.30738 
59 1 7.3649 1.17699 5.41625 -1.72423 0.784179 -0.885036 
60 1 7.69786 2.05338 3.99038 -0.84857 0.401826 -0.350216 
61 1 4.64007 1.78526 4.73162 -0.547316 -0.808954 0.0305426 
62 1 9.31389 0.850751 3.97243 -1.15428 -0.627751 0.423474 
63 1 4.64991 1.45871 9.27442 -1.33841 -2.12586 -0.390105 
64 1 4.76942 5.39464 2.77491 -0.390499 -0.0262697 -0.589213 
65 1 3.2489 5.04477 6.59852 -1.69689 -0.585975 -0.0555735 
66 1 8.67207 7.0336 3.12729 -0.127185 -0.701111 0.330352 
67 1 4.49786 2.76651 0.658339 -0.523986 -1.36148 1.28722 
68 1 4.235 5.98288 0.964705 -0.454938 -0.360086 -0.317006 
69 1 3.73196 1.86785 3.05821 0.115647 1.53842 -0.301784 
70 1 4.7486 7.31486 4.31617 -0.316272 -0.61566 0.661758 
71 1 3.26784 4.68209 2.06174 1.29528 2.07551 0.364621 
72 1 7.83733 4.06313 0.70513 0.945369 -0.638064 -0.292015 
73 1 7.09469 7.50858 2.53737 0.450175 -0.586128 -0.550184 
74 1 4.72497 8.58261 5.03577 -0.852976 -0.855945 -2.18043 
75 1 0.390859 1.38252 1.71668 1.94344 0.343237 0.217318 
76 1 2.18694 0.313313 4.43402 -0.880355 0.574803 0.991048 
77 1 0.261126 7.11351 4.06998 0.861999 -0.372806 0.799014 
78 1 9.3765 3.71062 3.81323 -0.241106 0.459419 -0.434361 
79 1 4.07185 3.69019 3.3987 0.0175747 -0.405645 0.0247854 
80 1 8.15546 2.83494 2.88498 -0.43111 0.267377 -0.34877 
81 1 1.36025 4.96161 4.51386 -0.00768289 -0.522133 1.39794 
82 1 1.97494 4.10962 7.36004 0.428287 0.359092 0.184613 
83 1 7.60976 7.10102 4.0973 -0.388017 0.323729 -1.361 
84 1 1.59709 0.0805866 3.70513 0.113746 -0.200184 0.5135 
85 1 6.40998 2.42597 3.07945 -0.526759 -1.71903 -0.626082 
86 1 5.13299 4.44569 1.56076 0.303591 1.13411 -1.43745 
87 1 3.53409 8.94048 3.90123 0.655466 0.581782 0.379318 
88 1 8.46228 5.15817 6.39769 -1.04054 1.12684 0.679746 
89 1 9.32668 5.59191 4.88312 1.47256 -0.432807 -0.128401 
90 1 0.0433586 4.05601 7.00591 -0.0593919 -2.02657 -1.4321 
91 1 3.50281 2.28838 8.04045 0.616597 -1.36276 -1.80929 
92 1 8.16033 3.56809 2.22091 -2.04749 0.0814178 0.835819 
93 1 5.9481 2.09547 4.20938 -0.382697 0.734605 0.57739 
94 1 6.99333 4.63072 1.82994 -0.273168 -1.19814 0.595892 
95 1 4.00645 3.18125 2.28832 0.0113416 -0.510418 -1.34638 
96 1 8.07375 1.25614 7.21005 -0.29171 0.247158 -1.00414 
97 1 3.23479 5.40411 3.9677 0.784661 0.724151 -0.119314 
98 1 4.49765 0.469438 0.150189 0.900027 -0.0208642 1.29959 
99 1 7.82511 2.63002 4.70185 1.00792 0.485609 1.56189 
100 1 2.60624 8.67592 1.41032 1.1624 -1.33793 0.0776724 
101 1 0.851927 3.88594 3.3438 -0.283416 -0.0246257 0.254634 
102 1 6.41103 5.26828 1.4277 0.0916423 0.269782 0.62252 
103 1 3.32133 7.03341 6.44977 0.626213 0.499331 -1.3354 
104 1 5.48373 9.13304 3.93782 0.139984 -0.777155 -0.438073 
105 1 7.50709 2.90064 7.83088 -0.352439 0.33308 0.998684 
106 1 1.1828 3.02212 8.71098 -0.372909 0.580305 0.754516 
107 1 3.92577 6.94631 8.77866 -0.00801708 -1.11312 -0.669907 
108 1 9.25274 3.70498 8.63735 -0.571752 -0.896989 -0.610339 
109 1 3.12979 5.22397 8.312 -1.1406 0.823847 -0.383638 
110 1 1.59894 5.9812 6.74928 -0.156785 -0.187085 0.369117 
111 1 8.81034 4.24687 6.33535 -0.00674044 -0.364457 0.0785017 
112 1 8.80821 4.0349 1.6407 -1.91501 1.15555 -1.12906 
113 1 2.40368 1.60003 3.46119 0.0829452 0.744911 -0.340071 
114 1 7.7501 5.38833 5.75959 1.87216 1.41815 -0.340216 
115 1 5.5267 1.40901 8.16888 1.29333 -1.70328 -0.49312 
116 1 9.00648 2.00258 8.42337 -0.266202 0.149202 -0.349064 
117 1 4.04163 2.48511 6.48134 0.84337 1.96565 -0.275086 
118 1 9.03387 1.53924 2.26775 -0.0347168 -0.158352 0.0372973 
119 1 2.98255 4.07769 1.3632 1.13834 -1.79887 0.481338 
120 1 7.15979 0.990787 8.93593 0.147771 2.11081 -0.208659 
121 1 3.03343 5.62378 1.98563 0.113612 -0.147641 0.43992 
122 1 5.98901 6.29577 4.51094 1.4405 -0.444651 -1.39052 
123 1 2.13548 4.02533 3.42186 -0.147822 -0.0286042 0.591129 
124 1 8.61254 3.6354 3.13341 1.2519 -0.247791 0.378124 
125 1 0.608537 0.739383 7.77209 -0.667336 -0.118461 0.377295 
126 1 6.16625 6.24167 1.58732 -1.86519 1.34175 0.522656 
127 1 2.57237 1.13863 7.08344 -0.0256516 -0.217976 1.0052 
128 1 0.777366 3.96012 6.42095 0.110306 -1.04071 -1.06016 
129 1 0.976633 3.93077 7.36738 0.0395152 0.682479 1.29556 
130 1 7.92282 2.69275 1.9513 -0.466969 -0.358404 -0.298737 
131 1 1.77377 1.45495 6.65366 -0.1772 -0.384235 -0.202379 
132 1 2.00158 5.59145 3.29713 0.320671 -0.956944 0.731895 
133 1 2.64519 6.14694 3.78622 1.4667 0.442148 1.06006 
134 1 2.99997 7.6824 2.57082 -0.473246 0.47954 -0.498122 
135 1 5.13028 1.62507 3.88221 -0.615238 -0.51425 -0.526742 
136 1 5.11748 1.06656 3.04956 0.400294 -1.1007 0.529138 
137 1 0.898735 4.36468 2.51503 -0.54779 -1.42538 -1.00389 
138 1 4.55582 6.92284 2.38961 -0.45763 -0.150853 -0.370037 
139 1 1.29959 6.4477 5.11813 1.35837 0.210059 0.983988 
140 1 3.21972 1.95091 4.02728 0.806328 -1.54419 -0.587892 
141 1 4.71073 0.224962 3.65867 0.578299 0.656196 2.03832 
142 1 1.71711 4.09411 5.91277 -0.353638 -0.68842 -0.624794 
143 1 6.23972 1.02003 0.0780587 -0.271712 -0.674263 -0.33714 
144 1 0.0463138 4.03112 2.83212 -0.555046 0.421414 0.765041 
145 1 8.70402 6.23004 9.04781 0.379023 0.604398 -0.156995 
146 1 5.55741 0.699774 3.78458 0.722276 -0.255259 -0.41826 
147 1 7.5869 2.3729 0.106863 0.860055 -0.599824 -2.24933 
148 1 5.55541 2.9225 1.9918 0.890382 -0.194933 -1.03697 
149 1 4.25981 0.362147 8.60431 0.290598 1.1339 -0.856627 
150 1 6.4097 1.48324 8.58375 1.24007 -0.0367539 0.360226 
151 1 3.10081 4.27466 8.22871 -0.788609 1.42079 1.49158 
152 1 0.945661 1.38057 7.12281 0.0431952 -0.226168 -1.23349 
153 1 6.43774 3.50574 1.46683 -0.489039 -0.58581 0.38779 
154 1 5.91379 3.19288 9.09671 0.552579 0.0615315 1.93559 
155 1 0.936527 2.94134 6.40759 0.0508414 -0.457012 0.619046 
156 1 4.08066 3.56558 5.18238 -0.269518 0.839215 1.42257 
157 1 0.875054 3.10864 1.48132 0.347313 0.277328 -0.32157 
158 1 8.25465 5.39659 3.4136 -0.812886 -1.24217 -0.547687 
159 1 5.43587 0.0566169 3.02252 -0.996234 0.163887 0.64326 
160 1 4.00318 2.84692 7.3866 -0.426156 1.03675 0.385179 
161 1 3.13164 6.5864 7.30275 -0.608866 0.310972 -0.30301 
162 1 6.27984 4.731 7.57565 1.45989 -1.01464 0.601409 
163 1 2.22064 6.02505 5.766 -1.02816 0.316662 -1.32983 
164 1 0.636311 4.33551 4.17632 0.390691 0.820974 0.165011 
165 1 3.65345 4.63105 5.6809 -0.532242 0.566334 -1.59439 
166 1 2.01921 6.31631 0.130012 -0.12756 -0.389827 -0.125326 
167 1 4.22827 3.00559 4.23183 -0.132074 -1.04072 -0.406577 
168 1 0.25114 2.29571 1.44018 0.0592488 0.287301 1.50225 
169 1 3.62153 7.46154 7.25394 -1.09542 -0.0837299 0.347682 
170 1 0.371942 3.81833 1.8493 0.478198 0.73681 0.391049 
171 1 5.42499 2.23705 5.13459 -0.95608 -0.0716248 -1.60095 
172 1 3.60121 0.187238 9.32124 -0.676715 0.794509 -0.763565 
173 1 0.220089 6.59324 8.93557 -0.120458 -0.183852 -1.02397 
174 1 5.68096 2.9466 5.74799 0.102551 0.127311 -0.207582 
175 1 4.57088 1.3914 2.36357 0.590676 0.565155 0.777305 
176 1 8.40959 1.18512 2.94244 -0.511557 -0.519188 -0.503858 
177 1 8.90376 4.5372 3.45633 0.449311 -0.131389 0.446934 
178 1 4.48393 2.43336 9.11632 -1.11336 -0.832472 -0.977055 
179 1 7.47185 5.30021 6.7204 0.458696 -0.798545 -0.304198 
180 1 8.96653 9.33798 3.90744 0.346431 0.0363037 0.973409 
181 1 7.14155 2.8894 6.94468 0.390973 -0.696231 -1.5737 
182 1 2.48402 3.1758 5.21787 0.152357 -0.191609 -0.200269 
183 1 0.387164 6.12772 1.18785 0.595979 0.0562483 0.953309 
184 1 7.33457 3.66038 8.39064 1.31415 0.9424 -1.02829 
185 1 7.81175 5.80316 9.08613 -0.424932 0.108102 -0.970317 
186 1 2.03838 1.01788 2.77899 1.39625 0.260931 0.25701 
187 1 1.24728 5.76735 1.48522 0.244334 0.939101 -0.357843 
188 1 1.4006 4.58204 6.70063 1.23876 -0.601392 -0.403764 
189 1 2.47884 7.65928 8.5979 0.574101 -0.719171 -0.882464 
190 1 0.248057 6.02443 2.92658 1.39231 0.220566 1.16668 
191 1 1.59062 0.119002 8.99582 -1.42175 -0.299603 0.310793 
192 1 2.99425 0.501294 6.53242 -0.22705 0.255099 0.470269 
193 1 1.49574 3.76766 8.18615 -0.804733 -0.735462 0.110873 
194 1 8.80745 2.43502 1.84122 -1.11203 0.83453 -0.0807166 
195 1 2.56658 0.0518503 5.81881 0.156309 1.07486 0.201387 
196 1 5.08627 6.70542 6.01922 -0.386628 -0.047489 -1.4372 
197 1 5.51774 3.57483 1.28537 -0.297326 -0.0625267 -0.0115714 
198 1 2.04898 4.18169 1.09933 -0.000996575 1.38032 -0.657122 
199 1 8.564 4.18415 7.38053 0.440136 0.158861 0.598412 
200 1 1.07091 2.12792 1.92728 0.230766 -0.897545 -1.24815 
201 1 8.4918 1.35662 4.04803 0.928077 -2.02706 2.07503 
202 1 4.36127 4.70295 2.10905 -0.0673776 -0.65821 0.122952 
203 1 4.4707 6.21163 0.00302999 0.794569 0.779907 -0.92137 
204 1 7.10604 1.49247 6.9693 0.109479 -0.909471 0.155143 
205 1 9.14663 2.5412 6.86036 0.177823 -1.04725 0.070507 
206 1 6.47924 5.67329 2.26311 -0.669448 0.595507 -0.0402402 
207 1 7.79448 6.38451 1.56206 0.2872 0.84162 0.474904 
208 1 8.53187 5.59484 0.351982 -1.05105 -0.806095 -0.485342 
209 1 6.04559 2.22134 8.01708 0.653209 -0.207342 -0.0795793 
210 1 3.83821 5.4097 2.44941 -0.204103 0.501044 -0.28308 
211 1 0.305539 8.46495 2.39079 1.34853 0.519823 -0.980464 
212 1 3.99668 5.50813 6.98002 0.319598 -0.546436 0.984905 
213 1 7.12334 5.15492 8.89232 -0.58846 0.325967 -1.79193 
214 1 4.0678 6.24674 2.81792 -0.00149356 1.07983 0.900216 
215 1 4.55686 1.30116 8.33509 -0.229194 -1.64235 1.09152 
216 1 0.876576 7.30097 8.92397 0.182986 -0.352766 -1.41379 
217 1 2.41671 3.59203 8.04102 0.854846 -0.746425 1.49228 
218 1 4.71844 5.92359 7.47477 0.0417589 -1.11498 -0.371156 
219 1 8.30078 0.284883 2.6355 0.267566 0.441716 1.11708 
220 1 3.03238 0.818212 0.514747 1.25261 -0.00066336 0.246995 
221 1 3.46436 4.84043 0.747457 -0.176056 -1.18727 0.480149 
222 1 5.76066 3.19728 2.9404 -1.31558 -0.100391 2.19018 
223 1 4.3772 8.96338 9.1519 0.10575 -0.0513811 -0.0765776 
224 1 6.68029 8.40472 2.64426 -0.815746 -0.642455 0.966538 
225 1 3.7148 7.61014 5.74428 0.0268249 1.2266 -0.110231 
226 1 7.38929 3.71673 1.66108 0.483755 -1.2397 -0.384503 
227 1 1.45876 0.326594 8.01931 -0.556243 0.230774 -0.263092 
228 1 7.5495 4.21048 2.48716 0.741398 -0.534647 -0.212484 
229 1 5.21059 7.44686 1.87177 -0.886569 -1.30567 0.00840779 
230 1 5.37494 5.93418 0.180959 1.18339 -0.482737 0.288087 
231 1 8.33339 5.80778 2.12313 -0.243335 -0.623484 0.330297 
232 1 4.11464 1.86992 5.55718 -0.182241 0.0139765 -0.592173 
233 1 5.08375 5.76428 4.66494 0.310969 0.363669 -0.658493 
234 1 0.0847814 9.18418 1.69257 -0.900385 0.598039 -0.398262 
235 1 2.96065 2.36036 5.27313 0.107965 -0.670652 1.01855 
236 1 9.29905 5.76509 2.03794 0.00438042 -0.138169 0.326133 
237 1 3.55993 9.40719 5.93588 -0.0669085 -0.658329 -0.00451887 
238 1 8.14858 4.8318 4.15946 0.41982 -0.068026 0.0505016 
239 1 3.78351 7.24837 2.8619 0.25119 0.0019951 0.408538 
240 1 2.82203 3.17946 1.06419 0.84047 -0.610404 1.56797 
241 1 6.24133 2.97102 7.39297 -0.344267 0.489951 0.365464 
242 1 4.70495 5.31175 0.4499 0.167586 -0.201646 -0.640117 
243 1 6.84009 0.603796 2.43861 0.196888 0.698622 -0.235893 
244 1 4.19354 2.05814 3.91335 -0.623651 -0.137061 -0.424489 
245 1 3.13231 5.71918 3.06217 -1.17347 0.741891 0.665102 
246 1 8.44141 1.94586 6.59008 -0.276933 0.0856549 0.0754463 
247 1 9.19434 0.751996 5.56383 -0.0651997 1.06711 -0.185288 
248 1 7.0905 2.23245 8.5616 -0.222636 -0.374499 -0.676763 
249 1 4.49108 4.22169 7.72423 -0.672245 1.07888 1.13927 
250 1 4.59976 3.93186 0.127557 -0.178326 0.132961 -1.13087 
251 1 0.928916 4.40308 0.210352 0.805107 -0.0334661 0.184359 
252 1 3.51123 4.04405 9.08175 -0.771137 0.202604 0.126898 
253 1 1.45196 5.77282 2.47759 1.22076 -0.405478 0.840707 
254 1 8.54686 5.22902 8.88207 0.588163 0.379734 -0.573101 
255 1 4.86092 2.15636 6.82172 -0.63046 0.313802 -0.766491 
256 1 0.00275572 5.65257 8.77278 -0.0899214 0.730973 -0.74276 
257 1 1.59767 7.33905 1.89645 0.203659 -0.556408 1.1344 
258 1 2.87206 7.33231 1.22261 0.687703 -0.0673262 -0.806196 
259 1 8.4393 2.80604 7.48667 0.425872 1.94723 -0.0418233 
260 1 8.55261 4.39364 8.3283 0.0217448 0.5091 0.462388 
261 1 6.02107 2.03759 0.493644 -0.234914 -0.065227 -0.897827 
262 1 3.19891 6.4854 2.50679 0.425767 0.528453 0.100307 
263 1 1.34431 8.85366 8.35629 -1.41515 -0.914946 0.611542 
264 1 4.36893 4.57569 0.953573 0.122914 -1.00414 0.314533 
265 1 1.30963 1.1956 2.10576 1.39362 -0.326425 0.100858 
266 1 1.22016 0.599588 3.0117 0.0101717 -0.549104 0.932826 
267 1 6.21031 7.82927 3.88594 -0.7853 -0.392352 -0.360079 
268 1 6.47242 2.23969 6.68773 0.560802 -0.587643 -1.25961 
269 1 6.51885 2.55272 5.73751 -1.27014 0.340735 -0.839384 
270 1 4.14933 0.76325 1.80835 0.173366 0.12851 0.0233622 
271 1 6.81063 1.79906 3.68393 2.69672 -0.529074 0.114382 
272 1 3.75077 0.993749 2.69169 0.42843 0.524656 -0.295376 
273 1 2.44042 0.625565 3.56188 -0.421096 -0.179762 1.48715 
274 1 6.05391 4.38685 1.34746 -0.790764 -0.705692 -0.653083 
275 1 7.41371 1.52773 7.96803 1.31893 0.0210675 -1.61482 
276 1 2.09895 5.46476 1.84869 0.214036 0.826717 -0.967941 
277 1 1.34675 0.982932 0.400679 -0.658355 -0.980232 -1.34492 
278 1 1.84804 1.07734 5.7276 0.581337 0.170718 -0.258414 
279 1 4.08863 4.69589 0.0284672 0.185431 -2.19076 -0.188178 
280 1 8.07288 3.08277 5.45004 -0.0124483 -0.579939 -1.80455 
281 1 3.10964 1.76073 0.174799 0.192645 -1.91119 -0.344594 
282 1 2.7563 4.04478 2.61446 1.04238 1.49405 -0.146644 
283 1 6.23774 8.68119 4.26027 -0.232528 0.0736939 -0.673486 
284 1 3.06316 7.51408 3.50562 -0.150286 0.383868 -0.866231 
285 1 4.74296 7.70867 1.05225 0.626428 -0.163733 1.44852 
286 1 2.46585 6.55841 6.53571 -0.835776 -2.56008 -0.665919 
287 1 6.62389 0.403044 1.31397 0.587936 -0.137025 -0.859871 
288 1 4.44977 7.94945 2.83157 0.113267 0.317236 -0.574974 
289 1 1.20703 4.19481 5.02193 0.534418 -1.1379 -0.164685 
290 1 3.47618 0.469559 5.08331 0.0994965 0.00472195 0.179144 
291 1 8.80597 8.94301 4.78571 -0.0085853 -0.368946 0.427054 
292 1 3.23317 1.50314 7.647 0.474032 0.668191 0.404287 
293 1 3.31336 3.17831 6.68881 1.05877 -0.684593 -0.836376 
294 1 9.11143 0.473563 3.12965 0.226113 0.710561 0.504336 
295 1 4.14768 5.55011 4.35392 -1.24712 -0.189953 -0.258487 
296 1 2.25806 8.78941 0.529862 0.113934 0.549138 0.752889 
297 1 5.39643 4.42092 7.48854 0.0168029 0.186505 0.687448 
298 1 4.99255 1.86931 0.680283 -0.577064 1.25972 1.93073 
299 1 2.14368 5.93532 1.00183 -1.56505 -0.657214 1.13233 
300 1 3.27266 0.0926678 8.39041 0.121473 -0.565816 -1.27335 
301 1 2.51712 5.23641 0.4392 0.39166 -0.390006 0.100807 
302 1 2.21871 0.936728 1.85264 -0.108892 -0.867617 -0.405927 
303 1 7.30677 5.1262 3.60331 0.517937 -0.29225 0.376683 
304 1 0.688894 1.25673 3.57301 0.169789 -0.921912 -0.104382 
305 1 6.19687 7.63493 2.9656 -0.0412199 -0.120036 -0.358204 
306 1 2.18573 3.55004 0.405501 0.925669 0.248148 -0.395169 
307 1 4.83962 5.05647 7.02518 1.79175 1.31846 -0.130469 
308 1 6.64177 6.98224 4.04657 0.0308956 -1.291 0.221527 
309 1 4.06251 0.255255 4.37123 -0.759034 -0.0967954 -1.03305 
310 1 0.01881 0.0233724 0.743977 -0.116775 -0.11034 1.04246 
311 1 0.294396 2.77741 0.632352 -0.728095 0.849002 -0.260279 
312 1 8.30713 1.07656 5.50095 -0.0643838 0.806189 -0.181235 
313 1 2.55626 0.0396813 1.99988 0.705954 0.289617 0.0617707 
314 1 3.50703 9.10837 6.8662 -1.60185 -0.392793 0.512338 
315 1 7.64574 3.59742 3.28423 -0.177394 0.151184 0.715957 
316 1 1.76319 6.86472 7.17045 -0.409807 -0.0960319 -0.623429 
317 1 7.9658 0.977769 0.126497 1.22537 -0.061695 0.123701 
318 1 2.80598 6.41428 1.54688 -0.134173 -0.47773 1.01966 
319 1 5.55284 3.63594 6.40376 -0.52357 -0.076281 0.254625 
320 1 2.77144 6.5608 0.598323 -0.287834 -0.0840275 0.353899 
321 1 2.38297 4.56295 6.62718 1.40363 -0.467221 -1.66382 
322 1 3.1508 5.62099 7.38655 -0.712921 1.4379 1.02729 
323 1 1.20538 7.28272 3.31181 0.499238 0.645421 -0.476526 
324 1 1.24471 0.440816 7.08949 0.420499 1.51708 -0.131324 
325 1 7.65677 5.93994 2.87576 0.618166 -0.305266 0.547799 
326 1 5.13464 9.18075 5.73203 0.255336 -1.02944 0.240551 
327 1 2.0301 0.535664 6.5161 -0.0114946 -0.474236 0.838048 
328 1 6.87494 2.4217 4.39563 0.151999 0.527024 -0.0666874 
329 1 4.0116 9.38887 7.70679 -0.262995 0.138104 1.5333 
330 1 3.71309 3.90693 0.635149 1.41519 1.05814 -0.731305 
331 1 9.00639 4.80954 5.52979 -0.163455 0.0664881 -0.160228 
332 1 2.4977 3.15873 3.56316 -0.312697 -0.051686 -0.0577097 
333 1 1.95283 1.90283 4.25634 -1.19011 0.940127 -0.560713 
334 1 3.04108 3.36236 0.124364 0.128946 0.28737 0.529983 
335 1 3.78312 2.76146 5.62099 0.803054 1.25168 -0.277467 
336 1 1.15997 5.56094 7.53865 -0.235389 -0.0696343 0.903525 
337 1 3.30929 1.45958 5.12595 1.21689 1.51963 -0.381041 
338 1 8.45456 4.27639 4.88398 0.481167 -0.854132 1.75975 
339 1 0.349292 6.31154 5.40647 0.262389 -0.0270334 -0.171382 
340 1 4.90458 1.45743 7.45058 1.0667 0.785275 -0.263041 
341 1 6.16898 5.86177 0.711464 -0.375285 -0.162492 0.217783 
342 1 4.02477 6.49279 6.94948 -1.47924 0.860716 -0.856457 
343 1 4.1294 4.65443 6.51069 0.586671 -0.785235 -0.180871 
344 1 7.5678 1.7249 3.10928 1.72111 1.26357 -1.06954 
345 1 1.9551 7.60678 7.77575 -0.399578 -0.343779 0.0685483 
346 1 7.43419 4.20279 4.03387 -0.432029 1.94271 -0.653519 
347 1 3.71098 5.98296 8.73678 -0.25906 -0.00760962 -1.60922 
348 1 9.29677 2.09505 0.0158484 0.575351 0.632752 -0.620688 
349 1 7.7225 0.205629 1.03172 -0.769877 -0.282226 0.630907 
350 1 6.68768 1.63643 5.91817 -1.02672 0.838655 1.3058 
351 1 4.73704 5.30077 1.44512 -0.452771 -0.36145 0.224724 
352 1 9.09988 4.81786 4.35492 -0.00410358 -0.233217 -0.398189 
353 1 0.918949 0.743597 8.69605 0.561062 -0.0982624 0.133974 
354 1 9.0647 3.13178 9.41298 1.22446 -0.338821 0.413311 
355 1 2.16341 3.21041 8.87649 -2.15119 -0.66063 -1.81775 
356 1 4.85638 2.44059 5.93566 0.377425 0.507194 -0.21445 
357 1 3.80291 5.25838 1.50603 0.641607 0.299465 0.308517 
358 1 5.29382 3.37968 0.403272 0.142494 0.047853 -0.0738297 
359 1 3.72698 3.66263 7.9221 0.945925 -0.0850734 0.237607 
360 1 1.78858 3.90699 2.5666 -0.44863 0.730455 0.901539 
361 1 3.43961 5.13292 4.88338 0.985853 -0.16616 0.772978 
362 1 6.05636 0.174546 5.52884 1.07223 -0.517601 0.335168 
363 1 0.238567 2.39646 6.02501 1.09077 1.65425 -1.30967 
364 1 8.64494 5.74215 4.2522 -0.0800088 0.621472 0.602846 
365 1 4.31225 7.26462 6.42733 -1.19572 -0.858574 -0.452219 
366 1 1.14833 7.14189 8.00518 0.278935 -0.219764 0.15845 
367 1 6.33465 4.95543 3.49826 -0.579302 -1.27803 -0.213337 
368 1 6.84267 1.77357 0.00237719 0.0376647 0.594824 -0.0258716 
369 1 6.43999 2.98148 2.29175 -0.122482 0.905338 -0.3268 
370 1 9.04705 2.41697 2.75672 -1.64998 0.105293 0.00420695 
371 1 5.21974 2.54205 7.58722 -0.76074 -0.179564 0.340832 
372 1 6.19102 3.95243 0.437588 1.06616 -1.92126 -1.14399 
373 1 0.525063 6.26071 4.43618 0.568343 0.887868 0.907953 
374 1 7.10626 6.38758 4.65399 1.60835 -0.276778 0.953623 
375 1 2.67915 8.11111 0.0271458 0.0928806 0.459219 0.619404 
376 1 3.53887 8.25147 3.13672 0.00849273 0.773316 -0.928099 
377 1 8.23437 1.02974 1.03682 0.427703 0.764246 -0.677656 
378 1 0.909758 8.76858 3.73015 -0.75679 -0.944921 -0.706037 
379 1 3.88166 6.48097 7.89425 0.703513 0.218573 0.829786 
380 1 4.5737 4.31686 5.67425 -0.683873 -0.787895 -0.0534401 
381 1 9.09114 5.50736 1.09652 0.787645 0.67221 0.778156 
382 1 0.312497 2.30072 3.45735 -0.983907 0.803869 0.072641 
383 1 2.24087 5.40365 4.20938 -1.27258 0.0950957 -0.260784 
384 1 0.131535 8.56331 4.22342 0.632885 -1.04722 -0.107451 
385 1 8.74798 3.41251 6.81613 -0.0981943 0.0575422 -0.204913 
386 1 6.65326 3.91258 2.34824 -0.401503 1.34101 -0.709618 
387 1 5.55288 5.85452 5.55527 0.593849 -0.379509 -0.0101892 
388 1 5.34596 2.51252 0.0736075 -1.02667 -0.695801 0.61169 
389 1 7.99963 1.79138 1.54613 -0.22754 -0.302932 0.237374 
390 1 1.37083 5.86841 4.17981 -0.214713 -0.381625 0.79946 
391 1 9.27484 0.4264 9.23582 -1.37588 -1.80658 -0.0721559 
392 1 1.78583 9.12723 1.43226 -0.234815 -0.0166317 1.02882 
393 1 9.07073 4.93574 7.11457 0.358426 0.287371 0.787389 
394 1 8.58843 4.3488 2.51423 1.28274 0.690083 0.103698 
395 1 7.38464 0.125873 3.65336 1.04029 -0.53191 -0.992244 
396 1 8.06126 3.64756 6.19158 0.524092 -0.624637 0.895154 
397 1 0.833018 5.2655 0.671197 0.479964 -0.986377 -1.78878 
398 1 0.0869012 2.73877 4.37483 0.056404 -0.174484 0.0461444 
399 1 8.35813 3.62815 8.96668 -0.918757 -0.131563 0.482698 
400 1 7.08967 6.43927 2.26574 0.674278 -0.900395 0.856286 
401 1 7.7627 2.15552 7.25696 -0.61694 0.300132 0.748812 
402 1 4.79732 5.07672 8.0192 0.0818123 0.383371 -0.432134 
403 1 7.34806 9.21207 2.77591 0.633187 -0.393845 -0.38318 
404 1 5.08843 2.10923 1.91261 -0.134208 -1.17913 2.80906 
405 1 9.39331 1.04343 8.46689 -0.0102371 -0.261293 -0.0227477 
406 1 3.56761 6.48419 0.1239 0.18211 -0.0137818 -1.43696 
407 1 0.852791 2.30866 9.40069 -0.258061 -1.06455 1.58638 
408 1 5.60766 2.72996 6.7049 -0.286307 0.107689 -0.330132 
409 1 5.54549 5.17776 0.982089 -0.150136 0.430906 -0.367071 
410 1 9.1896 6.67553 2.35454 1.01145 -0.828321 -0.439075 
411 1 3.21878 8.25497 0.805919 0.371018 -0.707256 -0.0561597 
412 1 1.31605 1.62393 2.94453 1.02278 1.30864 -0.619489 
413 1 5.95779 4.36737 4.73468 -0.313173 0.24186 1.10922 
414 1 5.28795 0.99274 0.461809 -0.400007 -0.388393 -0.550831 
415 1 8.8037 3.67537 5.55156 0.123844 0.369008 0.161387 
416 1 6.2268 5.6097 9.18711 0.840989 -0.508575 -9.53039e-05 
417 1 2.72507 1.26387 6.00836 -0.386898 -1.89069 -1.91571 
418 1 2.51209 2.22845 7.54643 -0.616529 -0.129556 -0.418478 
419 1 5.3841 6.52416 2.02199 -0.690911 -0.375825 -0.0626683 
420 1 4.98054 8.56622 3.37394 0.847345 -0.550936 -2.05514 
421 1 5.2484 1.33279 6.52301 0.033636 -0.473982 1.06642 
422 1 8.68744 5.00711 1.79173 -0.0763683 0.151305 -0.357949 
423 1 2.65196 2.52881 8.44766 0.862589 -1.64747 -0.390647 
424 1 1.4986 3.78388 9.17896 -0.590306 0.062938 -0.180789 
425 1 9.22143 5.4468 3.57544 -0.871853 0.352183 0.379574 
426 1 4.78461 4.83125 4.30583 -1.7043 0.110849 -0.0897597 
427 1 3.43386 8.04038 4.21516 1.76423 0.742097 0.0238999 
428 1 1.30541 3.65891 0.75069 -0.328576 0.0187968 -0.76278 
429 1 5.57149 1.34801 2.24539 -0.21563 0.156286 -0.18979 
430 1 5.53704 1.34975 4.77351 0.535286 -0.790034 -1.02615 
431 1 9.14952 7.76019 3.57501 1.5405 -0.742983 0.958793 
432 1 0.248774 4.11585 5.63905 0.27719 0.0921669 0.137459 
433 1 6.61427 3.02134 8.30437 0.154252 -0.592969 -0.286658 
434 1 1.95721 2.05893 5.88869 -0.321249 0.0461927 0.902252 
435 1 1.72506 5.07166 1.00847 0.358622 -0.726627 1.2327 
436 1 1.14681 8.75246 9.29439 0.621136 -0.670913 0.515918 
437 1 1.75746 2.85631 4.09319 -0.504218 -0.179657 -0.725311 
438 1 1.09583 6.74805 1.34932 -1.61084 -0.411823 0.741127 
439 1 3.60878 0.987513 8.35196 -0.160749 -0.857794 -0.107932 
440 1 6.15507 3.88904 8.05386 0.172917 -0.615552 0.740388 
441 1 3.76754 0.374265 3.44004 0.178417 -0.721815 0.381825 
442 1 8.80806 2.44762 5.16251 0.482363 -1.31956 -0.077155 
443 1 0.653614 3.38481 9.39603 -1.15319 -0.66693 -0.638693 
444 1 7.12568 3.28053 4.05613 -0.748479 -0.558709 -1.76193 
445 1 4.85272 8.93763 2.49999 -0.0965441 0.223957 0.606975 
446 1 0.215246 4.74258 6.35869 -0.936217 0.21011 0.511815 
447 1 5.03052 6.28383 3.0429 0.977413 -0.719581 -1.11534 
448 1 2.47054 7.00656 2.16585 -1.75798 0.395372 -0.885251 
449 1 5.93504 5.02532 5.83204 0.220345 1.33587 0.414264 
450 1 3.65058 3.78125 4.25211 -0.0971416 0.562737 0.17143 
451 1 4.84957 4.58323 8.84282 0.387481 -1.34647 1.13732 
452 1 6.85696 8.68836 3.53176 0.106074 -0.750193 0.884943 
453 1 7.69413 5.67134 4.26779 -0.476146 -0.376866 -0.541325 
454 1 5.57158 1.60797 9.14385 -0.271341 0.42328 -0.530742 
455 1 4.26059 7.70346 1.93436 -0.419326 -0.0578936 0.181052 
456 1 7.15873 0.222173 5.22247 -1.01332 0.0036071 -0.133631 
457 1 3.32797 2.00729 6.06534 -0.740893 0.37634 -0.0714319 
458 1 4.92199 1.28345 1.47595 0.424026 0.394289 -0.164855 
459 1 1.78476 1.08985 7.56242 0.100958 1.46526 -1.14851 
460 1 2.14409 8.48959 8.03268 0.498118 0.704583 1.10899 
461 1 7.16765 2.28443 2.43412 -0.0519887 -0.342825 0.658254 
462 1 1.62929 1.12309 3.74918 0.302267 -0.208701 -0.962637 
463 1 2.08017 7.39758 3.75183 -0.206348 -0.736753 0.440942 
464 1 8.30602 0.988394 1.98018 0.0456199 -0.878241 -1.15904 
465 1 8.97257 9.06325 2.50269 -0.191996 -1.59341 -0.0885464 
466 1 6.73287 0.688342 6.00885 -0.981077 0.761332 -0.863871 
467 1 0.873604 7.84551 4.06948 -0.128114 1.48042 -0.791341 
468 1 6.46038 6.18119 5.35337 0.70192 -0.266911 -1.17624 
469 1 8.75214 1.04029 6.42976 -1.59294 -0.414016 0.162421 
470 1 5.25724 2.28969 8.5517 -0.0646246 -0.997675 -0.230281 
471 1 5.01866 3.83528 3.01101 -0.0340461 -0.315015 -0.293627 
472 1 0.371876 3.20253 7.11836 -1.05308 1.0358 -0.259118 
473 1 1.47576 4.64339 8.80344 1.76317 -0.0586187 0.367542 
474 1 2.63511 0.9036 8.06008 0.34703 0.741697 0.713449 
475 1 8.04987 2.98684 3.87076 0.933539 0.285881 -0.65355 
476 1 1.23163 8.08874 2.48485 0.374679 -1.16437 -0.758745 
477 1 8.10724 5.52995 1.23631 0.247787 0.590209 -0.742805 
478 1 2.89381 5.86367 9.24163 -2.05332 0.604589 0.848826 
479 1 2.50838 4.08644 8.97873 0.449837 0.765798 0.496979 
480 1 2.21459 4.50609 1.96408 -0.397689 0.259534 -1.60196 
481 1 7.67844 8.47525 3.93265 0.730008 -1.13952 0.175551 
482 1 9.14803 0.561724 2.2141 1.83643 0.512677 -0.762736 
483 1 5.58968 5.39733 7.58367 0.197482 0.126765 0.0819301 
484 1 0.285229 0.734422 6.82528 0.164025 0.656069 0.588874 
485 1 2.96146 3.88617 7.29265 -0.92564 -0.379082 -1.05412 
486 1 8.06094 9.30378 4.29746 1.01321 0.201749 1.71304 
487 1 5.37445 5.58461 8.64058 -0.112984 -0.0406416 0.58506 
488 1 6.25645 7.00774 2.21716 -0.22926 0.402794 -0.49386 
489 1 7.08856 1.51366 4.56849 -1.08599 -1.22432 1.42839 
490 1 4.29212 1.1697 3.50309 1.86438 0.025579 0.418881 
491 1 7.32775 3.22117 2.48775 0.326346 0.261602 1.12407 
492 1 1.38572 4.65257 3.61948 1.15676 -0.536716 -1.12254 
493 1 2.98321 1.67009 8.58386 0.598103 1.59256 -0.549247 
494 1 4.3144 3.83564 8.62656 0.469741 -2.30798 1.62572 
495 1 1.60264 5.44221 0.0816462 -0.222617 -0.377653 -0.330676 
496 1 1.06685 2.56301 2.85967 0.147223 0.622551 0.744657 
497 1 4.37714 6.47128 4.66033 0.141089 0.0863179 0.657666 
498 1 3.05163 6.46736 5.67406 0.28645 1.05395 -0.0850985 
499 1 0.0674042 4.33278 7.91013 0.828442 -1.59264 0.233609 
500 1 7.60609 0.297603 1.98593 -0.531134 -0.150866 0.0851604 
501 1 6.76492 0.852236 3.43946 0.034771 1.002 1.06111 
502 1 0.216166 8.79299 0.0532189 -0.545414 -1.75165 0.0750589 
503 1 7.0299 4.47124 7.06362 -0.60787 0.759563 -1.6712 
504 1 6.25734 1.19259 4.18265 0.558694 -0.438082 -0.166907 
505 1 5.40065 3.47586 7.34906 -1.31347 -0.750684 0.18867 
506 1 3.79059 1.20267 4.33136 0.755852 0.934793 -0.49464 