ITEM: TIMESTEP
2437
ITEM: NUMBER OF ATOMS
1000
ITEM: BOX BOUNDS pp pp pp
0.0000000000000000e+00 9.4000000000000004e+00
0.0000000000000000e+00 9.4000000000000004e+00
0.0000000000000000e+00 9.4000000000000004e+00
ITEM: ATOMS id type x y z vx vy vz 
1 1 1.11867 9.21486 2.71805 -1.01194 1.40074 -0.165211 
2 1 6.47577 0.55112 1.08422 -1.88834 0.010229 -0.838017 
3 1 1.92618 9.17139 7.43927 0.0888974 0.53891 -0.998743 
4 1 3.59204 1.36719 6.19702 -0.702812 0.905858 0.585577 
5 1 1.69877 0.596034 2.59439 0.985924 -0.436407 -0.581029 
6 1 3.64153 4.57026 7.25163 -0.00082453 0.665235 -0.931589 
7 1 2.85682 4.76592 7.69129 -0.64055 1.18317 0.296097 
8 1 3.51954 0.987047 3.3415 0.254567 0.319081 0.886052 
9 1 1.72369 7.78897 8.62153 -0.528738 0.531215 1.06008 
10 1 4.15604 4.55884 5.00924 -0.588685 0.4009 0.852406 
11 1 3.29886 3.66428 6.65265 -1.56866 -0.0127473 -0.821352 
12 1 3.3101 0.87091 5.33682 0.136297 1.45884 -1.09924 
13 1 7.23885 4.94736 3.66915 -0.678378 -0.232172 0.774821 
14 1 6.57891 8.71048 7.34587 0.296151 0.321457 -0.238644 
15 1 1.06939 8.50544 1.9999 -0.00101233 -0.913792 -1.10307 
16 1 1.20529 6.92743 8.50291 -1.09541 0.382163 -0.113408 
17 1 8.98092 4.43741 8.30626 0.550533 0.618552 0.420837 
18 1 0.396367 7.57201 5.70334 1.141 -2.30685 0.134057 
19 1 8.15059 2.92541 2.72669 -0.0401333 -0.182979 -1.97667 
20 1 8.74693 5.67573 9.22606 -0.382651 -0.410982 -0.23875 
21 1 8.04896 3.95078 2.71524 0.260828 -0.538583 1.04347 
22 1 9.13727 5.52353 2.2388 0.36796 0.975537 -0.490311 
23 1 3.65833 1.66451 0.434666 0.306836 -0.919516 -0.201797 
24 1 6.84232 7.23926 3.8682 -0.370949 0.735899 0.687221 
25 1 9.08634 9.37806 4.33307 -0.922555 0.351253 -1.0654 
26 1 4.48739 1.64266 6.53689 -0.381807 -1.1973 0.00247571 
27 1 8.55426 2.42849 5.95589 0.929349 0.462705 -0.416626 
28 1 2.68193 2.01845 1.77141 -0.0168568 0.433142 -0.353788 
29 1 8.1382 1.37411 7.42579 -0.536533 0.113931 0.00337858 
30 1 0.624171 1.4901 3.55519 -0.576678 -0.246141 0.213626 
31 1 8.2323 5.35544 0.568085 -0.145783 0.807334 -1.54425 
32 1 4.17796 5.11065 2.96622 0.0693376 1.46671 -1.35763 
33 1 9.38221 1.97752 5.85341 -0.841611 0.68057 -0.141803 
34 1 7.5914 8.5768 1.26858 -0.266223 0.766048 0.840944 
35 1 6.00563 3.98488 4.25203 0.0586097 0.38944 0.0353384 
36 1 6.74482 7.8025 5.67829 0.628486 -0.708762 0.216908 
37 1 6.14214 4.20318 7.45672 0.25998 0.404187 -2.27816 
38 1 0.508288 4.42838 3.08254 -0.385192 -1.39388 0.238907 
39 1 8.24618 8.12796 2.70298 -0.130293 0.365411 -0.639552 
40 1 3.67287 0.158111 7.45781 -0.0403978 0.24439 0.226696 
41 1 3.63495 1.73968 5.24579 1.02511 -0.100094 0.15405 
42 1 2.09023 8.25586 7.1962 -0.321173 -0.54155 1.25027 
43 1 2.96501 9.252 6.17726 -0.294188 0.327255 0.831239 
44 1 4.5761 4.21709 3.22034 -0.432361 0.426464 -0.542399 
45 1 7.83786 7.2299 2.63611 -0.0219978 0.760745 -0.898907 
46 1 6.94507 4.14795 4.23553 -1.22735 0.650746 -0.830488 
47 1 2.55669 4.22582 6.92873 -0.65157 0.757092 0.449047 
48 1 1.46674 5.95893 3.76646 -0.253647 1.29428 0.0461176 
49 1 6.10965 2.92749 1.39249 1.07097 -0.278864 0.255276 
50 1 6.42067 0.172117 7.67593 -0.349355 0.86582 1.01228 
51 1 8.50173 3.71942 9.38825 0.220454 0.684498 2.38502 
52 1 3.78016 9.10022 6.63529 0.696128 0.97763 -1.37186 
53 1 7.60059 7.63947 4.41081 0.290463 0.0780942 -0.954417 
54 1 6.04985 8.88262 3.47914 -0.162912 -0.0330297 0.22077 
55 1 3.09416 1.46432 2.56004 0.291899 1.49789 0.950972 
56 1 7.96897 1.85752 6.56498 -1.06597 -0.666871 0.219536 
57 1 7.08687 2.19382 6.54334 0.934753 -0.384042 -0.775361 
58 1 7.33303 9.1617 7.7163 0.50969 -1.14784 -0.873184 
59 1 5.37984 4.17173 8.03476 -0.680385 -0.139367 -0.797074 
60 1 1.95734 4.92385 7.35968 -1.34627 -1.13196 -0.491959 
61 1 2.11335 0.300155 1.09624 0.156832 1.02618 0.110968 
62 1 4.38398 0.727299 7.75751 -1.12051 0.00859339 -0.194111 
63 1 6.73556 8.22123 6.51916 0.571563 1.64124 0.0408548 
64 1 1.00399 8.36028 4.53704 0.776433 0.509599 1.19275 
65 1 8.13741 6.34782 0.2573 1.08329 0.986515 1.37818 
66 1 6.36023 4.61042 5.69044 0.432774 0.528101 0.295519 
67 1 5.56111 6.92402 5.12346 -2.20939 -1.67573 0.771405 
68 1 8.77536 8.18162 0.0356801 0.959011 0.777044 -0.0182816 
69 1 2.95386 3.94475 3.09512 0.588172 0.104876 0.0947035 
70 1 3.28501 0.62776 6.73295 0.806049 -0.259174 0.212058 
71 1 0.485127 6.02469 3.67546 -1.39038 -0.0634348 0.387085 
72 1 3.27864 4.58899 6.36436 0.590884 -0.671038 0.651208 
73 1 8.2394 1.22072 5.0187 0.750262 -1.79098 1.14026 
74 1 4.65059 5.95213 8.15315 -0.457829 0.814135 -0.14516 
75 1 6.58132 5.47836 7.05492 -0.212903 1.1601 -0.527178 
76 1 1.49626 5.07465 5.66637 0.75963 0.484849 0.565408 
77 1 5.97649 7.10157 9.06422 -0.366236 1.32507 0.742465 
78 1 3.16734 3.81154 7.5798 0.18097 -1.17926 -0.352581 
79 1 7.13992 7.92536 2.68515 0.88619 0.424997 -0.528243 
80 1 1.73961 4.95558 2.11714 -0.568964 1.56521 -0.996987 
81 1 6.68767 3.8484 2.38815 -0.480201 0.438467 -0.12521 
82 1 8.06301 7.73228 1.01558 0.310581 -0.241842 0.621076 
83 1 9.09958 1.0145 8.39898 0.259765 0.226169 -0.377169 
84 1 2.02458 2.7656 1.35576 -1.04525 -1.02642 0.237843 
85 1 0.0541718 5.06065 8.93441 0.060733 -0.256518 -0.763705 
86 1 7.04105 3.23063 3.88576 -0.496546 -0.164263 1.58764 
87 1 7.95119 0.318831 0.289545 -1.00368 1.17666 -1.12078 
88 1 7.41538 7.55501 8.24784 -0.829218 -0.203182 -0.533489 
89 1 7.49889 6.35283 2.57836 -0.0562988 1.24007 -0.108104 
90 1 7.00564 3.22467 1.12359 0.102236 0.0141129 -0.417311 
91 1 1.23195 2.65085 8.31291 0.0712279 -0.319558 1.02484 
92 1 7.32274 3.34459 8.15207 -0.399324 -0.355334 -0.212805 
93 1 5.08404 6.79371 5.98535 0.0954734 0.437335 -1.4157 
94 1 0.459938 8.1728 7.36223 0.557045 -0.0903148 -0.0244893 
95 1 0.0193333 4.10394 6.03774 -0.730688 1.46985 -0.966609 
96 1 9.36438 6.81373 7.56925 0.295555 -0.732764 1.10173 
97 1 5.88386 2.47331 8.3161 -0.452528 0.0204014 1.08331 
98 1 8.04737 7.85638 8.89616 0.381122 -0.246847 0.119426 
99 1 2.02663 3.91793 8.83519 0.331958 -0.315868 -1.06482 
100 1 3.81373 2.59859 3.63879 -0.528577 0.0497245 -0.243717 
101 1 0.838516 8.51264 0.194197 -0.350339 -0.641316 0.280608 
102 1 3.37696 2.12629 4.39272 -0.490912 -0.549598 0.0811899 
103 1 7.30847 3.37886 5.5011 0.772369 0.76054 0.398586 
104 1 3.50598 1.0744 4.37537 1.16128 -0.483792 -0.33889 
105 1 8.75078 8.38137 8.48555 0.352546 -0.91101 0.434099 
106 1 8.89717 5.36826 1.33875 1.04215 1.51948 -0.331654 
107 1 3.92545 2.25847 5.98425 -0.452805 -0.501054 0.796424 
108 1 6.85585 9.36913 8.51579 -0.154127 -0.493397 1.74733 
109 1 0.0864409 2.17459 7.31957 0.282628 0.288825 -0.0548664 
110 1 1.07034 0.825493 4.16915 0.034973 0.558765 0.396708 
111 1 3.66446 4.47066 3.46351 -0.154626 0.312654 -1.282 
112 1 6.51651 3.09896 8.67222 0.550507 -0.2294 0.735208 
113 1 8.3281 6.47326 3.04289 -0.21874 -0.553391 -0.0999429 
114 1 6.52446 1.19659 9.24374 -0.789935 -0.279137 0.357261 
115 1 8.2428 7.04658 6.54139 -0.00569853 -1.32921 -1.11944 
116 1 7.17061 0.888668 0.515785 0.314752 0.883722 0.99632 
117 1 6.8053 2.02011 2.3276 1.26674 -0.267582 -0.0815137 
118 1 5.18407 2.09696 8.80516 -0.618324 0.0122209 0.438188 
119 1 0.555409 5.92353 1.99596 -1.29102 -1.98329 0.098704 
120 1 2.80083 1.69798 0.840664 1.22671 0.0858214 1.40359 
121 1 5.55947 1.41791 2.20697 0.812285 0.393597 0.878951 
122 1 2.5957 0.702108 2.98082 0.386983 0.139261 0.744605 
123 1 2.10362 7.45819 6.67248 0.573902 0.196572 0.858672 
124 1 5.62736 4.6686 1.14453 0.293012 0.922544 -0.520328 
125 1 8.74668 5.3268 5.7012 1.62584 0.399782 -0.293501 
126 1 2.08684 1.47286 7.34566 -0.579702 -0.750847 -1.26216 
127 1 7.2435 1.55313 8.6825 -0.361855 0.665197 -0.583865 
128 1 7.21315 9.34799 0.816959 0.63538 1.06246 -0.512028 
129 1 7.92807 0.275825 7.12534 0.832544 0.731024 -1.17734 
130 1 7.71825 5.78449 4.79687 2.13309 0.657459 -0.0580439 
131 1 3.22455 5.66994 7.46702 -0.398202 0.883797 -0.540196 
132 1 2.067 1.97383 5.02631 -0.907616 2.00682 -0.427496 
133 1 0.381713 0.252943 5.74339 1.15951 -1.22194 0.245995 
134 1 8.53604 6.22733 6.04762 1.54261 -0.393323 -0.659143 
135 1 2.75728 2.28609 8.52966 -0.966542 -0.168235 0.423091 
136 1 6.5895 0.979767 7.17637 0.158608 -0.174027 -0.119369 
137 1 7.21775 5.84429 4.01789 -0.770656 1.17734 0.138537 
138 1 6.33679 3.70641 6.60854 1.33912 -0.47002 -0.0110337 
139 1 1.01406 4.86826 7.44815 0.575027 -0.836398 1.40088 
140 1 8.05125 1.15628 8.38491 0.258689 0.150464 0.42752 
141 1 4.48153 0.522661 8.69082 0.0368964 -0.051816 1.58068 
142 1 2.40905 3.41417 0.656431 1.04142 0.475316 -0.548018 
143 1 6.0626 4.44821 2.82327 0.283524 -0.44913 -1.30022 
144 1 5.79803 2.76085 9.24268 -0.824457 0.159073 0.147661 
145 1 5.13451 6.21618 6.85122 -0.685893 -0.576388 2.86596 
146 1 4.05518 5.04074 4.16552 -0.747337 -0.472267 0.854998 
147 1 6.53615 7.07004 5.06999 1.24849 -0.567636 0.124067 
148 1 1.07424 8.5255 8.68465 -0.725345 -0.045132 0.156596 
149 1 0.368823 7.36406 6.78011 1.51372 -0.230747 -0.776752 
150 1 6.79807 3.50957 7.40032 0.879047 -0.311668 -2.0485 
151 1 8.33075 0.953384 1.85632 0.768282 1.21652 0.00510429 
152 1 2.81514 4.05894 0.0225003 -0.781851 -0.318691 -0.25427 
153 1 6.15319 6.23017 5.43259 1.36825 0.0435701 -0.141535 
154 1 7.47488 0.718302 5.09536 -0.472302 -0.0477883 0.0733194 
155 1 8.94607 4.46019 5.24325 0.920375 0.472434 -0.0632622 
156 1 2.11259 1.0262 5.3421 0.0758431 -1.0324 0.133978 
157 1 1.49859 5.14381 0.505692 -1.1043 0.923855 -0.646151 
158 1 6.98682 4.34771 7.01332 0.443501 -0.0685447 -1.65187 
159 1 9.1811 8.10586 3.27929 -0.26566 0.28062 -0.22508 
160 1 3.7104 6.23489 8.07702 0.231054 1.18491 0.436552 
161 1 4.2033 4.431 2.25248 0.3546 0.451253 -0.318401 
162 1 8.3906 2.29123 3.48435 -1.29827 -0.372732 0.0421723 
163 1 1.26824 5.78578 7.17768 1.03606 0.266389 0.762882 
164 1 8.17459 2.1784 5.11441 -1.22224 -0.0716268 1.69619 
165 1 7.0011 5.29592 5.47187 -0.831043 -0.505058 -0.456469 
166 1 3.8634 2.65553 5.08807 -0.183615 0.300263 -0.834182 
167 1 2.33117 3.21724 2.91619 0.513892 -0.537283 0.360456 
168 1 1.45926 8.11108 0.793168 1.48072 -0.314372 -0.741836 
169 1 8.92765 0.559134 1.16254 -0.0387533 -0.767434 0.524268 
170 1 3.69322 3.19251 1.96941 0.424244 0.237337 0.566294 
171 1 4.46899 1.77063 7.54023 -1.71903 -0.764438 -0.35149 
172 1 0.0321498 8.933 9.12341 -1.32993 -1.77046 -1.37856 
173 1 7.83699 0.892873 4.19865 1.3548 -1.32951 -0.568844 
174 1 8.05119 4.75432 3.25467 0.327182 1.45155 0.133215 
175 1 8.08665 1.37921 3.43215 -0.9628 -0.0236825 1.85771 
176 1 7.05925 0.698698 2.33943 0.131767 -1.04468 -0.713849 
177 1 7.53067 1.45609 2.02221 -0.270368 0.183292 -0.588884 
178 1 7.97976 5.29141 1.56883 -0.0173662 -1.06365 0.0028596 
179 1 5.84719 0.91611 7.79477 0.431817 -0.376171 0.630953 
180 1 7.1745 3.70035 9.04159 -0.886611 1.14159 0.5681 
181 1 9.00122 7.61531 6.25964 0.669891 0.803244 -0.609787 
182 1 5.57271 1.58996 3.16028 -1.03773 -0.327741 0.712864 
183 1 1.2229 6.20047 6.23078 -0.228268 -0.636565 -0.624855 
184 1 7.09913 8.03763 9.04334 -1.1433 -0.123979 -0.282349 
185 1 5.04269 0.820532 6.30673 0.980209 0.891332 -0.413551 
186 1 6.2203 0.270239 4.04691 0.456644 1.46319 -0.386046 
187 1 7.69434 8.64007 8.51277 1.45466 0.69904 -0.114198 
188 1 0.564117 7.73808 3.74663 -0.466125 -0.115587 -0.911096 
189 1 7.22851 6.04132 7.48692 0.796729 -0.60792 -0.135414 
190 1 1.37073 1.64879 5.65494 0.861941 0.033245 0.313747 
191 1 0.988919 5.07038 8.87528 -0.574675 0.136836 1.42384 
192 1 4.31631 1.33617 4.7133 0.106572 -0.110275 1.01851 
193 1 8.99049 7.83568 0.981341 0.35749 -1.07928 -0.0137139 
194 1 5.24698 1.69409 5.95586 -0.0909363 -0.11919 -0.170147 
195 1 8.32818 1.88567 0.52914 -1.24694 1.12161 0.703447 
196 1 7.19694 0.686118 3.49534 0.00681711 0.190361 -0.00484537 
197 1 1.48947 4.60581 6.57102 1.50539 -0.775796 0.249989 
198 1 4.07641 3.70444 7.20948 -1.08833 -0.634231 0.916045 
199 1 0.0495211 0.510592 9.15724 -0.905241 0.505393 -0.3161 
200 1 4.41668 4.36323 0.0829249 0.0942664 0.399202 0.338067 
201 1 7.70362 9.19894 5.33488 0.251248 0.4059 0.248516 
202 1 7.29788 3.3258 2.91659 0.209865 -0.360578 -0.368626 
203 1 6.66373 8.75566 2.73314 -0.622679 -1.06536 -1.0188 
204 1 1.63311 6.40714 7.84537 -0.526606 0.024053 0.231443 
205 1 8.889 7.4302 8.80449 -0.693051 -0.420582 -0.672236 
206 1 6.56361 7.53411 0.29712 0.127631 -1.9925 0.463873 
207 1 8.0652 4.02942 5.26096 0.94265 -0.182799 1.93494 
208 1 5.88866 8.07446 6.97583 0.107327 -0.633597 -0.231002 
209 1 1.04769 6.38679 4.50491 -1.22993 -0.526647 -0.919971 
210 1 6.48735 2.13622 8.98089 0.0993232 -0.77849 0.574546 
211 1 1.65037 3.33738 4.7832 -1.88451 -0.810193 -0.244166 
212 1 8.31302 5.98415 2.20483 -0.474341 -0.259312 0.121669 
213 1 3.15332 7.07009 8.14942 -0.587705 -1.6249 0.359733 
214 1 6.42097 8.83171 4.45205 1.10676 0.959154 1.01308 
215 1 3.85174 8.8486 4.63707 1.19175 -1.1187 0.262718 
216 1 5.43081 2.33712 0.868101 -0.400475 2.05798 0.688165 
217 1 4.30679 2.36227 8.57423 -1.33737 -1.67669 1.32213 
218 1 6.19175 3.83534 1.06055 0.662734 0.684803 0.383667 
219 1 7.70947 3.37112 0.392105 0.411903 -0.436809 -0.11836 
220 1 6.19281 4.68777 6.63344 0.662567 -1.35049 0.95528 
221 1 7.26535 4.9934 4.60204 0.499315 1.60339 -0.0240234 
222 1 2.28121 1.59141 3.21323 0.214675 0.577749 -1.14764 
223 1 -0.00913864 3.14195 4.40297 -0.54183 -0.955049 -1.59674 
224 1 2.23578 5.25064 1.18934 0.0637977 -0.221449 -0.105972 
225 1 8.45132 7.3044 0.232832 0.116557 1.33925 -0.251234 
226 1 7.2042 1.58066 3.86214 0.130468 -0.0235211 -1.81243 
227 1 5.55002 4.04728 6.28779 -0.354195 -0.860415 -0.55948 
228 1 2.30409 5.35812 8.15293 0.0576222 0.143861 -0.780412 
229 1 1.96874 0.655166 7.84298 1.48991 0.90819 -0.313189 
230 1 4.77197 9.1146 4.80745 -0.667004 0.0313458 -0.316151 
231 1 0.61859 6.73676 9.32533 -1.41128 -0.41769 -0.380332 
232 1 7.73278 3.52051 7.18695 -0.823451 -2.19652 1.42862 
233 1 1.6135 2.92152 6.38876 0.72728 0.36823 -0.170829 
234 1 7.94528 2.06424 8.08555 0.262031 0.702854 -0.870303 
235 1 6.93536 9.27741 1.80226 -0.64896 -0.00995203 0.460354 
236 1 7.28522 0.649947 9.00991 -0.0817599 0.233113 0.327106 
237 1 1.16421 7.24137 6.20697 -1.66252 -0.245505 0.396745 
238 1 2.0743 8.5878 8.24669 1.60136 -0.756517 0.787489 
239 1 1.14949 7.12267 0.672992 -0.580315 -1.56999 0.898377 
240 1 4.12413 1.57716 2.04407 -0.580218 -0.790091 0.340581 
241 1 4.30962 4.69345 1.03646 0.744557 -1.3792 0.493005 
242 1 3.74018 3.64999 5.07748 -0.314336 -0.595516 1.09512 
243 1 5.71025 2.70297 7.38182 0.767059 -0.236319 1.25096 
244 1 3.42843 0.178897 4.10919 0.0417384 0.0444501 -0.42413 
245 1 5.63139 8.95725 7.43431 -0.159938 -0.00385155 -1.00496 
246 1 1.87383 3.23671 3.85221 -0.993834 -0.578846 -0.412005 
247 1 6.47233 8.75492 9.14312 -0.0357969 -0.535301 0.12231 
248 1 4.76928 3.44432 7.80894 0.540531 -0.865253 0.173451 
249 1 0.728558 5.81775 5.40175 -0.635606 1.0294 1.88598 
250 1 8.46748 6.59714 7.34229 0.0611616 0.369603 -0.833008 
251 1 1.19632 1.65312 4.71819 -1.77295 -0.792216 -0.434132 
252 1 0.266443 4.99541 5.73919 -0.446864 0.399527 -0.173278 
253 1 0.987421 6.03015 8.81506 -1.25128 0.208088 -0.548534 
254 1 1.50573 7.71488 3.64149 1.6485 -0.00147129 -0.435176 
255 1 8.2375 7.07895 3.98231 1.36514 -0.00969957 1.74415 
256 1 0.868264 7.57669 1.84737 0.0618217 -0.714642 -0.406395 
257 1 2.98679 2.40529 0.180445 -0.292061 -0.10443 0.310378 
258 1 3.9336 1.87631 2.92786 0.42411 0.112277 -0.791665 
259 1 2.56086 3.10035 6.38449 -0.124068 0.773391 0.738753 
260 1 5.92315 7.25045 5.92707 -0.433193 0.523048 -1.15462 
261 1 0.897419 5.32356 6.38476 -1.15699 0.567574 -0.0766945 
262 1 1.90807 2.30872 8.92731 -0.425663 0.729054 -0.345295 
263 1 9.30196 0.997139 6.20966 -0.0669711 -0.765827 -1.03538 
264 1 0.356057 0.522551 4.79072 -1.3388 -1.23599 1.25555 
265 1 5.23609 0.242229 8.07107 1.12668 -0.632375 -0.329383 
266 1 5.53153 5.97565 7.73249 -0.415947 -0.7165 0.451742 
267 1 8.16464 3.01585 7.92291 -0.175538 -0.405212 0.672946 
268 1 7.52521 7.42512 0.24935 0.119943 -0.162706 -0.0761423 
269 1 6.47982 1.98358 3.2303 0.770055 0.462445 -0.627296 
270 1 4.15714 3.78886 1.33988 -1.71502 -0.607433 0.183807 
271 1 8.56585 4.96655 7.34651 -0.213036 0.435083 0.623934 
272 1 8.64413 8.23899 7.55167 0.532062 -1.39656 -1.00647 
273 1 7.70006 7.81588 1.8905 0.373351 0.869849 0.880432 
274 1 1.3474 1.47096 2.86624 -0.35972 -1.04885 -0.491369 
275 1 8.65502 5.74816 4.75925 0.484467 -1.56627 0.916464 
276 1 0.116789 7.09533 3.19814 0.311711 -0.584448 -1.37715 
277 1 2.39102 1.98808 4.09236 -1.11986 0.318293 0.625066 
278 1 7.36921 8.52068 4.2444 0.408848 -0.502802 0.0601705 
279 1 5.01842 1.25687 8.20825 0.12179 -0.437677 0.250148 
280 1 6.85199 1.97696 5.52872 -1.13804 0.0382327 0.914718 
281 1 5.0587 5.07131 8.18724 0.436144 -0.94643 -0.380417 
282 1 8.84105 8.29926 4.5518 -0.437955 0.0467656 0.335578 
283 1 0.405533 3.21693 5.96811 -0.262615 0.236389 0.0276612 
284 1 8.14362 5.21264 6.4857 0.0411952 0.299857 0.575978 
285 1 4.38876 6.14495 6.2525 0.507508 -0.187865 0.475434 
286 1 8.77 1.21058 2.69981 -1.23888 0.290377 -0.363557 
287 1 6.35422 1.22971 2.67423 -1.17211 1.35657 -0.578852 
288 1 7.8521 3.86404 1.19542 0.41343 0.703997 1.18754 
289 1 7.37815 2.39484 3.19217 1.55295 1.55415 -0.999576 
290 1 3.47553 2.31268 2.22438 -0.950511 -0.373528 -0.344251 
291 1 6.15898 0.524735 2.02761 0.121304 1.07715 -0.495998 
292 1 7.20703 2.61596 4.91602 -0.3901 -0.926593 0.575613 
293 1 4.58217 2.02802 5.34882 -0.913618 -1.04968 -0.552265 
294 1 0.0319501 5.16198 4.83153 1.84788 -0.302937 0.136013 
295 1 7.83498 0.138195 2.04316 -0.233456 -0.318778 -0.780692 
296 1 1.24182 7.75419 6.99101 -0.34767 -0.022155 -0.778418 
297 1 2.84648 1.99528 7.56427 0.00420613 -0.345229 -0.116167 
298 1 7.53735 5.13313 7.29922 -0.614485 -0.6547 -0.203387 
299 1 5.75026 0.383781 6.9657 1.14892 0.523145 0.154799 
300 1 0.408754 5.31277 8.08771 -0.235414 -0.589983 -0.593895 
301 1 3.54554 1.95494 8.94518 -0.853361 -0.238756 0.0351978 
302 1 0.160156 8.54371 4.0215 0.813511 -0.969258 1.70861 
303 1 8.44775 2.80367 4.42147 -0.994337 1.05228 0.364606 
304 1 5.09093 1.11047 7.21384 0.133718 0.385434 -1.57642 
305 1 7.3851 7.50613 6.3622 -0.136197 -1.45584 -1.51412 
306 1 6.9821 7.05169 8.95876 -0.119361 0.0782278 0.552699 
307 1 8.95747 0.299533 6.96999 -0.609044 0.513223 0.859691 
308 1 0.0193474 7.68837 2.45645 0.35963 0.73086 -1.45361 
309 1 5.57149 3.25482 0.632994 -1.51382 1.94296 -1.35602 
310 1 5.22439 3.44675 5.67666 -0.202513 1.22929 1.26961 
311 1 6.45421 7.32362 6.72015 -0.453432 -2.42781 0.386283 
312 1 6.50144 4.76368 0.808762 -1.21864 -0.213949 -0.599113 
313 1 2.07374 9.19019 2.98147 -0.976249 -0.392559 0.666001 
314 1 1.31838 3.4589 5.6658 -0.660759 0.133996 -0.267126 
315 1 3.98972 2.97605 6.58399 0.189537 0.26739 1.04694 
316 1 4.56737 4.03548 8.55095 0.719831 1.09619 -0.265822 
317 1 2.72689 3.64751 3.97196 -2.14923 -0.744672 0.23726 
318 1 1.11682 1.56895 0.586123 -0.364815 -0.977777 -0.654618 
319 1 7.65844 4.48836 1.97999 1.84102 -0.134618 0.292672 
320 1 6.38986 6.24157 9.09197 -0.0590045 0.194416 0.785108 
321 1 9.09097 2.79301 7.88487 0.0329456 -0.609479 0.520225 
322 1 7.89034 4.32053 4.34893 -0.363041 -0.475603 -0.235301 
323 1 5.06381 3.66473 9.33503 -0.499184 0.664057 -0.288296 
324 1 4.89245 5.52102 9.0306 1.03416 0.115742 -1.18019 
325 1 0.254438 8.58243 8.20887 0.267183 -0.236771 0.469311 
326 1 3.47623 8.50044 5.88742 -0.77482 1.68108 -0.0341956 
327 1 1.98821 1.34313 6.31488 1.0694 -0.219069 0.874759 
328 1 5.66803 5.16627 4.23242 -1.16322 -0.422183 0.139004 
329 1 8.24859 3.11702 5.35682 1.12832 0.916566 -0.185447 
330 1 0.0507344 4.64703 7.49506 0.210842 -0.0417587 0.714252 
331 1 2.67336 0.0448978 8.10679 -1.26469 0.295533 0.751115 
332 1 7.17406 3.20627 6.46305 -1.29868 0.0125509 0.47076 
333 1 2.79988 1.47983 4.79331 -0.066865 -0.959621 -0.885298 
334 1 7.5968 2.50957 5.80915 -0.969827 -2.93506 -1.39373 
335 1 0.253779 7.8075 4.7472 -0.216293 0.210659 -0.121225 
336 1 1.37897 3.63624 8.11631 -0.15319 0.0741681 0.40241 
337 1 2.05376 4.04422 3.39812 0.0695715 -1.26131 0.211811 
338 1 8.48788 8.53852 6.02951 0.910266 -1.00613 -0.0390522 
339 1 8.27451 9.03013 7.83729 -0.626881 -0.27473 -1.29826 
340 1 7.55559 8.35498 5.95027 -1.31694 0.65579 -0.46736 
341 1 7.71287 7.34167 7.29569 -0.579615 -0.727213 -0.425622 
342 1 1.77758 1.83618 1.45404 -0.257888 0.0283451 0.531178 
343 1 0.260578 6.69106 0.815017 -0.436198 -0.82478 0.765098 
344 1 8.63758 5.57961 3.10145 -0.989009 -0.549265 -0.376431 
345 1 1.13141 9.07984 6.0478 -1.11404 0.131804 -0.845985 
346 1 3.26857 9.31713 5.26224 0.218761 -0.929326 -1.4078 
347 1 6.76088 2.93645 2.12184 0.118576 -0.0626257 1.67952 
348 1 5.27411 8.73958 6.57794 0.0645418 -1.33065 -0.239196 
349 1 4.77433 5.28583 6.3964 0.298686 -0.53814 0.119677 
350 1 2.18311 3.1128 8.24234 -0.325846 -0.0247988 0.440085 
351 1 5.53402 7.06685 6.8082 -0.291204 0.123695 -0.691079 
352 1 5.57615 5.96764 0.128721 0.499284 0.21218 0.841977 
353 1 5.3501 5.98038 3.71152 0.320364 -0.0954849 0.504405 
354 1 8.89681 0.0107866 0.396287 -0.601058 -0.423489 1.08073 
355 1 6.54677 1.78931 8.05549 0.187235 -0.800376 -1.2697 
356 1 7.11332 7.62498 1.11633 0.121653 -0.512114 0.159874 
357 1 8.81112 4.62915 4.296 0.125014 -0.540369 0.250698 
358 1 0.550257 7.83494 0.936853 -0.914155 -0.11263 -0.497802 
359 1 9.05225 1.16859 7.3195 -0.715449 0.200474 -0.33989 
360 1 4.2628 3.18641 4.34177 -0.0410782 -1.50089 0.325588 
361 1 9.29459 7.69609 7.98235 -0.670551 0.761989 1.06267 
362 1 7.46471 8.70031 6.8691 -1.75228 -0.0793573 -0.352328 
363 1 5.8699 1.46881 8.60613 -0.333614 0.387072 0.0341254 
364 1 2.22995 3.11844 5.50748 -0.22049 -0.90574 -1.73218 
365 1 1.8113 8.76114 4.19508 -0.0863973 1.09467 -0.0185757 
366 1 6.99558 6.62153 0.39234 0.012032 -1.00426 0.924938 
367 1 2.73501 6.20296 8.14608 0.378388 0.382194 -1.35029 
368 1 7.05237 6.30647 8.41257 0.687889 0.121918 0.888268 
369 1 7.25284 0.564691 5.98747 0.425904 0.29062 0.222205 
370 1 3.94102 2.57949 0.159418 -0.341721 -0.245118 -0.118202 
371 1 8.8793 0.937744 4.36895 0.142285 0.971012 1.28603 
372 1 3.91121 5.37322 6.80983 -0.0815361 0.139503 1.21767 
373 1 5.77528 1.8108 0.12391 -0.452462 -0.257355 -1.22689 
374 1 6.6882 7.88959 4.54593 -0.622984 0.945123 1.46955 
375 1 8.52514 4.41741 6.07173 -1.12936 0.336982 -0.609964 
376 1 0.364019 1.36444 2.66134 0.997087 0.426116 -0.688671 
377 1 0.0377023 6.02526 8.61638 0.419739 -0.733365 0.318422 
378 1 7.95191 3.14625 3.64425 0.648708 0.484585 -0.0482854 
379 1 8.84317 7.45102 7.15542 -0.336986 -0.285997 0.131258 
380 1 6.64142 1.04892 5.35808 -0.247525 -0.545328 0.913101 
381 1 2.68988 4.34356 0.960598 1.58278 0.346403 -0.668889 
382 1 6.6776 4.8159 2.11325 -0.285364 -0.13996 -0.167707 
383 1 5.11674 7.74207 7.4736 0.778932 0.197498 -0.663252 
384 1 7.6583 2.38231 4.12703 -0.0837011 -0.766233 -0.791479 
385 1 0.798945 7.73815 8.25705 0.593216 -1.73933 0.949363 
386 1 5.88382 1.88348 4.02398 0.0560779 0.239858 0.9262 
387 1 0.437438 0.695346 6.92932 -0.0722596 0.397493 0.545163 
388 1 1.72732 4.44932 1.30057 0.453593 -0.107568 0.249631 
389 1 1.01771 7.6145 9.24681 -0.176524 -1.2797 0.0451511 
390 1 5.24392 3.90162 2.56761 0.0775793 0.352653 0.808542 
391 1 6.91637 8.42983 0.558034 -1.31602 0.634825 -0.680978 
392 1 6.82569 8.27502 1.80607 0.397946 0.0922368 1.38307 
393 1 8.17378 6.14131 4.00622 -0.193026 0.0425146 -0.0913645 
394 1 4.22792 1.2719 1.12255 1.37429 0.212632 0.0534262 
395 1 8.16864 4.96528 5.00635 0.237476 0.951046 0.628217 
396 1 6.7738 8.19683 3.58854 0.0526219 -1.1369 -0.241806 
397 1 5.71154 0.139764 4.97312 -1.09287 -0.223657 0.361071 
398 1 6.26264 5.48414 6.04948 0.543522 0.811459 -0.141831 
399 1 8.92986 7.01521 5.55668 0.382024 0.647511 0.124061 
400 1 4.61361 3.39695 2.07044 0.0560867 -0.0154558 -0.0104823 
401 1 3.25842 7.67945 7.36679 0.11671 -0.216037 1.49018 
402 1 5.15536 2.77703 4.11021 1.60036 0.0660829 -0.778999 
403 1 0.162582 3.51532 6.8421 -0.108946 -1.19808 0.127115 
404 1 5.31585 2.03722 6.83744 1.60928 -0.213756 0.667064 
405 1 4.97551 1.77772 1.54781 0.121546 -0.521132 -0.894725 
406 1 8.44847 2.31911 7.2913 -0.0201088 -0.701128 0.621521 
407 1 0.940753 6.09808 2.85865 -1.1669 -0.51604 0.762691 
408 1 2.38649 0.155563 3.84504 -1.451 -0.156413 1.31295 
409 1 9.32479 0.948383 1.92341 -0.598863 0.0680588 -0.105586 
410 1 4.71113 2.25868 3.42999 -0.190857 0.536761 -1.41054 
411 1 6.55789 1.68677 4.63365 0.182091 -0.924833 -0.424105 
412 1 3.03539 2.28708 6.27711 0.24748 -0.445631 0.215685 
413 1 0.991108 5.20933 3.46267 0.104322 -0.973757 0.864351 
414 1 5.84011 5.23102 2.26873 0.443851 -1.11122 1.55808 
415 1 0.887483 5.19779 2.48382 -1.51473 0.388884 0.263217 
416 1 4.965 4.35833 1.74014 -1.37716 0.526006 -0.519715 
417 1 7.89724 1.24039 9.38508 -0.912209 -0.786223 0.712076 
418 1 9.06241 5.50264 3.93338 0.403859 0.584792 0.187017 
419 1 7.4527 5.85479 0.769489 0.0631491 1.03398 1.23038 
420 1 6.885 7.04424 2.90137 0.950861 -1.20425 0.949537 
421 1 0.943713 4.30982 5.82201 -0.450433 -0.889309 -1.11571 
422 1 6.09042 5.50241 1.35765 0.292041 0.0646773 -0.539402 
423 1 0.318137 1.41869 4.42998 1.05269 -0.25513 0.0321899 
424 1 9.13437 4.98388 6.54571 -1.03343 0.112324 -0.131097 
425 1 4.08489 7.09661 7.68333 -0.362748 0.176621 -1.50637 
426 1 8.98366 6.05312 0.653612 -0.406744 0.114316 0.856317 
427 1 2.95164 3.69999 8.51879 -0.183992 -0.330936 0.159451 
428 1 5.56358 4.28171 5.2026 -0.445554 0.150219 -0.132321 
429 1 6.54763 4.38672 9.23576 0.136584 -0.0407173 0.427978 
430 1 5.2265 3.12413 8.57539 1.01541 -0.580707 0.635938 
431 1 7.94718 0.719423 2.77953 -0.0710684 -0.157086 0.0678656 
432 1 4.97152 0.592803 4.5154 -1.05205 0.01099 0.522094 
433 1 9.13696 5.93295 7.71729 -0.391684 -0.269358 -0.598462 
434 1 8.65714 1.62805 8.96941 0.0157469 -1.21842 -0.23592 
435 1 4.46174 1.80051 9.33211 0.666211 0.55794 0.497897 
436 1 0.892387 0.654343 3.16655 0.766071 -0.372512 -1.95546 
437 1 0.595179 4.38467 8.27399 -0.955378 -0.339963 0.570706 
438 1 5.04622 7.81157 6.52538 0.127634 0.721864 0.326836 
439 1 1.39373 6.87389 2.31152 0.558443 -0.529571 0.0611422 
440 1 8.16366 0.610228 5.73332 -0.245257 -0.749353 -0.367104 
441 1 8.29828 0.319468 4.79632 0.00148498 0.741989 -1.21487 
442 1 2.44908 9.1493 0.337803 0.0205963 0.220946 0.736865 
443 1 0.34635 4.99913 1.68343 -0.85394 -0.278709 -0.0124955 
444 1 8.68749 3.2441 7.14017 0.368215 -0.579167 -1.78226 
445 1 0.924912 0.950602 6.1499 -0.210492 0.0696776 -0.510278 
446 1 6.64714 5.85869 2.17384 0.0764876 0.207183 -0.249169 
447 1 0.816319 2.36254 5.96773 -0.388996 -0.34134 1.53562 
448 1 8.79181 3.39493 6.17927 -0.638225 0.831438 0.69305 
449 1 0.0947083 5.8246 6.25011 0.354978 0.269723 -1.64573 
450 1 1.05424 1.79148 8.85782 -0.776642 1.04431 -1.5961 
451 1 4.83863 2.85378 7.03606 1.48209 0.662167 -0.332279 
452 1 1.92935 6.05492 8.69022 0.452037 0.0433578 -0.859141 
453 1 2.74711 0.765897 0.364364 1.15199 0.470954 -0.447756 
454 1 2.51014 0.763295 8.78262 0.850167 0.597369 1.23435 
455 1 2.17198 6.95495 8.41748 -1.04276 -0.34343 -0.496366 
456 1 1.31158 9.39492 1.67093 -0.760808 -0.87659 0.4249 
457 1 3.10118 0.0851148 9.05138 -0.17599 1.41333 -0.862444 
458 1 3.64591 2.09284 7.98858 0.806863 1.00727 -0.426078 
459 1 6.46327 2.92929 3.08583 0.341774 -0.362824 -1.01524 
460 1 4.85888 0.125768 7.18283 -0.672401 0.807209 -0.289387 
461 1 1.73947 5.49897 2.93421 0.219941 0.0525821 -0.19149 
462 1 7.60239 1.44603 5.76316 -0.645547 0.0846524 0.0369907 
463 1 0.588734 3.02398 7.69925 0.354682 0.442259 0.739762 
464 1 4.05839 0.405808 4.87888 1.52343 -0.0269314 1.11942 
465 1 8.06597 4.81939 8.13589 -0.985381 -0.407562 -1.49779 
466 1 8.0852 1.92554 2.63309 0.804364 0.0646497 0.471612 
467 1 0.913602 7.55089 2.83955 0.152149 -0.84174 -1.64095 
468 1 6.93926 9.15674 3.66777 -0.485803 0.474987 -0.781866 
469 1 0.162908 5.34261 3.0742 1.61176 0.124713 -1.15724 
470 1 4.41398 2.2528 4.41819 0.354992 0.227171 0.605481 
471 1 1.58427 8.18579 6.14854 0.27254 0.187829 0.65573 
472 1 1.18872 9.32829 9.17476 -1.38415 -0.324052 -1.40749 
473 1 3.38241 4.22805 4.40693 -0.229196 0.283826 0.0519139 
474 1 6.72712 1.36546 6.26498 -1.45595 0.262911 -0.634121 
475 1 0.255706 6.95015 8.47429 -1.17673 -1.07259 -0.328518 
476 1 3.60327 4.17588 0.59638 0.170431 0.27698 -1.59198 
477 1 2.57142 4.67616 4.77714 0.26898 0.39785 0.468941 
478 1 2.69234 2.30956 2.76771 -0.584843 -0.160064 0.762971 
479 1 5.27991 7.41501 3.68219 0.336654 0.575951 2.23973 
480 1 1.94456 7.55432 0.139971 -1.51026 0.988221 1.75485 
481 1 4.27101 4.10529 4.12348 -0.538971 0.145322 1.16379 
482 1 7.60083 7.62165 3.45394 -0.300701 -0.931395 -0.628936 
483 1 6.52222 5.73053 0.492803 -0.448332 -0.980631 -1.35679 
484 1 0.812492 0.631183 2.21124 -1.63383 0.78445 -1.21889 
485 1 2.13599 1.43699 2.30349 -0.328262 -0.0149376 -0.238514 
486 1 9.3381 6.22055 2.84324 -0.562639 0.988833 0.0494288 
487 1 3.17698 2.80429 7.04921 1.52023 1.14707 0.829406 
488 1 7.10898 4.24335 5.16295 1.32832 0.608198 -0.595337 
489 1 6.44733 5.73727 7.97174 1.15193 0.705813 0.974297 
490 1 5.87506 8.12116 4.04223 -1.21239 -0.658122 -0.560087 
491 1 8.51136 0.549443 7.81332 0.398483 -0.901129 -0.922497 
492 1 7.02809 8.5589 5.15204 0.0932003 0.454877 -2.0804 
493 1 5.0629 4.80943 2.64846 -1.30377 -0.201 0.0821471 
494 1 4.76298 4.3207 5.78182 -0.399795 -0.597207 0.722306 
495 1 2.45354 5.56174 2.19872 1.0507 -0.145135 0.899108 
496 1 1.98145 1.19959 0.789 -0.257799 0.594504 1.13611 
497 1 1.95239 4.13639 5.35218 1.04924 -1.34221 -1.80961 
498 1 3.73252 8.57847 7.43677 0.0153685 0.454587 -0.393498 
499 1 0.738861 1.26832 1.46379 -0.87448 0.674734 0.32426 
500 1 6.99873 0.141998 6.87512 -0.773519 0.40889 0.0668584 
501 1 7.20927 4.50103 2.82651 0.122655 -0.315279 -0.373149 
502 1 0.90995 3.40865 4.14296 0.323734 -0.995052 -0.144483 
503 1 0.189733 0.634783 3.80556 0.583218 0.998973 0.0139254 
504 1 3.49358 4.45029 1.56378 0.470908 -0.130839 1.11195 
505 1 2.65877 0.710199 6.04251 -0.547512 0.969016 -0.908203 
506 1 9.24752 4.6006 2.40518 -0.608186 0.796827 0.703594 