ITEM: TIMESTEP
2972
ITEM: NUMBER OF ATOMS
1000
ITEM: BOX BOUNDS pp pp pp
0.0000000000000000e+00 9.4000000000000004e+00
0.0000000000000000e+00 9.4000000000000004e+00
0.0000000000000000e+00 9.4000000000000004e+00
ITEM: ATOMS id type x y z vx vy vz 
1 1 2.78488 2.88746 4.99758 1.13085 -0.0833443 0.880366 
2 1 7.69704 6.16849 5.32914 1.152 0.187639 -0.109931 
3 1 8.1683 8.30496 6.63308 -0.321561 0.204794 0.832119 
4 1 6.84301 8.66702 2.25555 0.954724 -1.19379 -0.182389 
5 1 2.01604 0.96153 6.90804 0.527348 -1.34496 -0.0609135 
6 1 8.31036 3.61754 8.86488 -0.528723 0.606484 0.469935 
7 1 7.2331 9.15424 0.598383 -0.446755 0.543805 0.0988186 
8 1 2.74324 7.18285 1.98823 0.0375326 0.924581 0.0868226 
9 1 0.947168 2.51478 7.22874 -0.204491 -1.25178 0.430212 
10 1 2.53915 8.41114 5.231 1.63219 -0.337171 -0.518256 
11 1 6.44043 7.53558 3.42958 -0.669435 -0.650697 -0.0822663 
12 1 3.79505 5.04803 7.60656 0.678877 -0.330979 0.623629 
13 1 7.0509 5.23668 6.72576 1.63616 -0.362744 0.639992 
14 1 8.48021 5.27675 9.18131 -0.279303 0.294291 -0.459429 
15 1 2.30917 2.64203 0.200952 0.66305 0.663381 -1.31561 
16 1 1.08009 7.26417 8.84778 -0.402416 0.353333 -1.59988 
17 1 0.208123 6.72538 8.99543 0.2555 -0.145824 -1.47807 
18 1 6.60182 3.92387 5.90076 0.292718 1.30642 -1.01207 
19 1 5.38653 4.95177 8.49908 1.65733 -2.30845 0.271495 
20 1 3.44639 6.90248 2.53691 0.154652 -0.458523 0.559894 
21 1 6.42742 2.19606 6.91545 0.0702332 -1.06633 0.47556 
22 1 5.56167 4.89521 1.64363 -1.32325 1.37725 0.170274 
23 1 0.509712 5.13928 3.80857 0.273711 -0.030588 0.365147 
24 1 5.10168 1.23688 8.91683 0.406901 -0.872713 -1.35589 
25 1 7.82909 8.76713 2.14985 0.763024 1.19227 -0.914486 
26 1 6.44452 1.27967 5.51815 0.555175 -0.450617 0.611555 
27 1 5.40756 7.46538 9.14807 -0.613705 1.17809 -0.643849 
28 1 6.90109 0.0603341 3.54153 0.244333 0.71493 0.660154 
29 1 6.17141 0.908324 7.74787 -0.792369 -0.214834 0.739039 
30 1 4.56782 5.23579 8.13033 0.462463 0.256031 0.375188 
31 1 5.89576 5.80072 8.04473 0.104547 -0.187738 -0.792659 
32 1 7.82004 0.509847 6.10487 0.969284 -0.50633 -0.619895 
33 1 0.0481911 9.17254 1.71539 -0.929149 -0.00429657 1.09052 
34 1 0.449584 2.09206 1.27484 0.321951 0.577331 -1.58969 
35 1 5.05493 6.69544 0.926943 0.288241 -0.61432 -0.415309 
36 1 5.32623 6.82646 4.77226 0.71006 -0.0974833 0.948235 
37 1 7.62041 2.4047 6.11181 -0.775828 -0.0859671 0.438914 
38 1 0.294613 1.75886 7.14386 0.595936 -1.2417 1.44777 
39 1 3.18507 8.39303 0.986768 -1.23854 -0.330898 0.112459 
40 1 6.2101 7.8814 5.00789 0.920672 0.123357 0.587538 
41 1 1.40306 1.68749 7.04134 0.152331 0.285082 0.88714 
42 1 6.17514 2.80167 9.30622 0.896001 0.504025 0.790528 
43 1 2.8868 3.01325 6.00716 1.34203 -0.328731 -0.875541 
44 1 4.60211 5.82577 2.09795 0.770503 -0.735061 -0.0584881 
45 1 1.18729 4.18464 2.91008 -0.577666 0.7392 -0.0325523 
46 1 6.53401 4.77986 1.71817 -0.966064 0.901925 -0.862337 
47 1 2.85573 0.701428 0.694041 0.149674 0.758547 -0.0407516 
48 1 3.5419 4.20854 2.46749 0.464704 0.66373 -0.31959 
49 1 6.59664 6.08506 6.85594 -0.099893 -0.55649 0.0186751 
50 1 4.80045 8.77157 4.18738 0.0999808 -0.603297 -0.0846165 
51 1 5.96376 8.30429 0.93289 -0.218351 -0.036857 -1.08098 
52 1 5.74938 0.510357 8.50282 0.60511 0.571592 1.1639 
53 1 0.930508 6.78189 4.8902 0.289818 -0.493124 -0.433787 
54 1 6.28627 6.78946 0.418498 1.18429 -0.520557 0.505553 
55 1 1.73129 3.34488 2.95289 0.432126 -1.3989 -0.94679 
56 1 6.11763 6.50549 4.23919 0.788279 0.167232 0.518559 
57 1 4.95488 3.53501 0.431312 -1.0192 0.505879 1.5517 
58 1 7.97137 6.34768 2.31277 -0.250619 -0.297426 0.285323 
59 1 4.31979 0.206095 3.9568 -0.935296 0.980283 -0.0170349 
60 1 9.04611 8.77307 6.66817 -1.17407 0.472441 -0.937695 
61 1 7.72326 9.27937 7.56301 0.617485 0.433428 0.28209 
62 1 1.66641 4.08018 9.15413 0.0626205 -0.727056 0.224961 
63 1 2.77693 9.14449 0.440076 0.848167 -0.107946 -0.883271 
64 1 7.2308 2.80176 6.88748 -0.473913 -0.409816 0.253025 
65 1 2.33332 1.6748 3.70656 -0.285109 -0.347677 -0.80929 
66 1 1.12891 2.51751 0.702285 -0.0239148 -0.252166 -0.655251 
67 1 2.09948 2.33321 4.51022 -0.0895982 1.05476 1.30398 
68 1 7.12946 5.49185 1.54452 0.510329 1.08797 0.872115 
69 1 8.13455 9.11508 9.01059 -0.24423 -0.428564 -0.772588 
70 1 5.51299 0.710497 7.09714 0.816689 -1.09747 -0.993786 
71 1 8.36801 0.636665 8.844 -0.0274127 -0.507216 0.805821 
72 1 8.90758 4.73563 6.65186 0.458293 0.238643 0.379916 
73 1 6.70888 7.95907 7.35131 0.598394 -0.0756912 -1.31563 
74 1 6.94275 1.74601 6.24443 0.455517 -0.0774155 0.532634 
75 1 8.77244 1.17237 4.66205 -0.749448 1.51008 -0.683672 
76 1 4.98856 0.76377 4.36889 -1.29608 0.887752 0.726728 
77 1 4.11329 4.55364 3.20526 0.597941 0.244557 0.377755 
78 1 4.13738 2.08572 7.3691 -0.827538 0.543067 -1.006 
79 1 8.17646 4.67551 2.66225 -0.703982 -1.22918 0.581553 
80 1 1.8764 0.132286 0.652938 1.14404 -0.869377 -1.09972 
81 1 1.41792 0.59218 6.21864 -0.657413 0.411713 -0.947364 
82 1 1.11111 0.197085 8.01883 -0.803025 -0.494001 -0.437262 
83 1 9.12674 1.67539 9.06507 0.642551 0.0886386 -1.01936 
84 1 5.81731 1.234 4.65047 -0.00663797 -0.772479 -1.25081 
85 1 8.79455 6.86167 0.107946 -0.385306 -0.482353 0.758779 
86 1 7.68532 0.424141 4.39257 -0.1655 -0.00890067 0.703678 
87 1 7.58245 1.13344 8.72811 0.422733 -0.34754 -1.25164 
88 1 2.57487 6.12494 1.03742 -0.240978 2.02814 0.170759 
89 1 1.60681 1.82345 8.45955 -0.74291 0.398183 -1.01214 
90 1 5.17328 7.08083 5.71377 -1.10396 0.665661 -1.88334 
91 1 5.23654 0.56013 0.300634 -0.155514 0.452577 0.709119 
92 1 5.24112 8.23741 0.256445 0.549212 -0.963253 -1.09204 
93 1 3.91346 8.51356 2.76044 1.18749 0.709208 -1.48794 
94 1 1.76404 6.532 8.54926 -0.0210414 0.734022 0.643055 
95 1 6.01303 7.45051 5.8314 -0.482385 -0.0154914 0.262571 
96 1 4.70173 2.43304 2.00475 -0.196481 -0.3456 0.179575 
97 1 0.918321 4.75621 9.14476 0.482963 0.875102 -0.312494 
98 1 3.06768 6.19119 1.87445 0.182275 0.776025 -0.636773 
99 1 0.465221 4.0317 1.23955 0.485619 -0.115065 -1.11881 
100 1 4.35057 8.04563 4.71547 -2.04653 -0.310554 0.465514 
101 1 8.19352 6.97922 1.59439 -1.11013 -0.819966 0.296696 
102 1 7.41227 0.0332133 1.5941 0.353365 -0.494926 -0.909927 
103 1 3.84991 7.39682 7.04955 -0.344984 -0.821627 -0.139849 
104 1 3.38709 8.4905 1.90608 0.351982 -1.26287 -1.07942 
105 1 5.51443 1.56191 5.58453 0.86777 -1.00305 -0.999193 
106 1 3.38906 0.378422 7.61513 1.71013 -0.0304557 0.245355 
107 1 7.27814 6.9392 1.25031 -0.0183287 -1.49469 0.256286 
108 1 4.99946 7.80508 4.05491 -0.579799 0.330995 1.22735 
109 1 3.54448 8.91919 8.11277 1.18738 -0.722688 0.935722 
110 1 0.123411 2.6299 7.70097 0.172665 -0.144663 0.670378 
111 1 4.53516 5.60143 3.03069 -0.064805 -0.69461 0.447236 
112 1 1.06426 1.00199 2.6594 -0.230202 0.228552 0.721269 
113 1 8.85799 9.00919 3.79791 0.656372 -0.362328 -0.62402 
114 1 7.1334 5.0805 8.30566 0.130478 0.197227 0.835809 
115 1 0.856556 8.70076 7.75274 0.502816 1.40285 -0.2232 
116 1 2.67429 9.08359 7.85805 -1.00054 1.15672 -0.229772 
117 1 9.31098 0.657717 3.89868 -0.489183 -0.108204 0.121067 
118 1 0.0828404 7.56259 3.96168 0.357393 0.566975 -1.29385 
119 1 7.19917 2.52035 1.08379 0.22174 -1.03379 0.0732173 
120 1 0.621228 3.31835 0.612892 0.495284 0.45685 -0.544786 
121 1 2.54876 3.49266 0.706872 0.165571 -0.11059 -0.749704 
122 1 7.26558 6.05652 2.88111 1.17099 0.540704 1.81114 
123 1 3.99528 8.1877 8.53726 -0.599118 -0.78595 0.110799 
124 1 3.82852 6.07638 5.09409 -1.38507 0.362066 -0.247043 
125 1 0.956542 7.17145 0.423538 -0.00390357 1.17734 0.912089 
126 1 8.15918 9.23186 6.6939 -0.533903 1.48215 -0.463136 
127 1 5.93381 1.46329 8.51819 0.259335 0.248516 1.81715 
128 1 2.95152 5.31622 1.37603 0.252386 -0.229695 -1.21202 
129 1 6.23808 0.437517 5.08562 -0.64459 -1.03656 1.02312 
130 1 6.56076 3.63056 9.05646 0.917156 -0.531256 -0.39689 
131 1 4.99712 0.371901 2.94264 -0.572915 0.582936 0.182069 
132 1 5.29281 8.9633 2.57608 -0.545345 -0.418794 0.236399 
133 1 2.06676 7.2279 2.63374 1.67182 -0.231801 -0.375759 
134 1 5.71069 8.32353 5.6954 -0.932892 0.172611 -0.722159 
135 1 7.15046 7.2216 0.320364 0.535712 1.58619 0.120656 
136 1 6.70083 1.25117 7.04337 -0.335357 -0.398383 -0.34253 
137 1 4.21528 8.22041 0.0830699 -0.0554693 -0.0105058 0.393518 
138 1 4.70061 0.233108 5.84903 0.613779 0.00476534 -0.271128 
139 1 5.58588 9.23758 5.59158 -0.256461 1.86971 1.91727 
140 1 3.65227 5.19114 4.69706 0.56736 -1.01436 -1.145 
141 1 2.92785 4.68378 2.99326 -0.06513 -0.263772 0.447708 
142 1 4.38443 6.70143 2.56593 -0.0746635 1.00612 -0.839826 
143 1 0.0581705 7.18605 6.76056 -0.255301 1.75124 0.702424 
144 1 6.05846 5.28669 6.98904 0.280238 -1.05509 0.227331 
145 1 8.95966 3.37222 8.20479 -0.669186 -0.159291 0.05317 
146 1 3.59477 2.92987 3.43196 -0.0856765 -0.826818 -0.328332 
147 1 5.37765 9.37972 6.52851 -0.236117 0.600389 0.488391 
148 1 5.20122 1.9685 8.11422 -0.0628103 0.299297 0.759155 
149 1 3.98104 2.49598 2.6521 0.623789 0.225566 -0.2832 
150 1 3.46888 7.08552 5.00138 0.463935 -0.0343853 0.102275 
151 1 7.5796 6.08574 3.79702 0.414893 -0.140933 -0.781589 
152 1 5.91158 3.39929 0.621892 -1.24295 -0.290821 -0.406021 
153 1 6.01027 6.4512 2.24751 -0.193737 -1.36488 0.974862 
154 1 0.444036 1.06908 9.31598 -1.81405 0.753587 -0.222119 
155 1 8.94614 0.854472 0.191557 0.61645 0.736904 -0.109808 
156 1 2.27264 1.86209 2.74881 -0.750994 1.19816 0.880217 
157 1 3.00956 8.76055 2.77585 -0.838363 -0.622493 1.23588 
158 1 0.990002 2.55039 8.26386 -0.294779 -1.25399 0.212096 
159 1 6.3942 9.17768 8.55692 0.168189 0.40057 -0.0692548 
160 1 6.13489 0.514892 4.09162 0.455766 0.04061 -0.567013 
161 1 3.16017 7.94435 6.60578 0.379473 -0.260967 -1.28218 
162 1 5.9766 9.37961 7.70347 0.42661 -0.903093 0.817969 
163 1 5.52504 7.0892 6.65021 0.686259 0.689735 0.200767 
164 1 7.80555 1.43929 6.57691 0.734738 0.304868 0.227434 
165 1 4.5924 5.10377 9.16557 0.741642 -0.0826794 -0.391696 
166 1 5.19583 6.36461 2.85848 -0.142841 -0.184442 0.858392 
167 1 6.50393 0.289452 1.65301 -0.506131 -0.679298 -0.0547674 
168 1 2.25233 3.25485 4.2267 -0.234755 -0.354928 -0.156369 
169 1 5.85628 0.350847 2.3682 -0.640466 -0.48751 1.05498 
170 1 5.41054 2.89459 8.35306 0.683697 -0.562404 -1.32971 
171 1 0.244623 0.239238 0.418904 -0.092812 0.93556 0.847896 
172 1 1.98794 0.969771 2.95097 0.167487 -0.465409 -0.745394 
173 1 0.341088 7.29929 8.24379 -0.0214228 0.162181 0.684564 
174 1 1.55542 8.45647 6.4887 0.401382 -0.639494 1.32972 
175 1 0.798565 5.45483 1.36251 0.603107 1.48172 1.78654 
176 1 7.87961 6.11386 1.37863 -0.6018 0.28384 -1.64502 
177 1 6.74991 6.84196 2.72703 -0.49578 0.406583 0.802148 
178 1 2.22565 9.28764 5.43557 1.44555 1.79416 -0.653938 
179 1 1.91185 2.86347 1.13142 -0.827964 -0.86537 1.10976 
180 1 7.93914 6.83217 6.01468 0.0943479 1.01974 -0.37194 
181 1 7.01494 2.82397 8.71366 -0.749108 -0.0215594 -0.813232 
182 1 2.64191 7.61046 4.75676 -0.202464 0.262968 0.602715 
183 1 2.0982 4.87048 1.43569 -1.27699 1.14378 -0.276296 
184 1 2.62817 1.75651 8.28426 1.74745 0.0788309 0.328453 
185 1 5.61645 0.279958 1.33853 0.78721 1.24478 1.54882 
186 1 8.12877 6.35825 4.52757 0.167901 -0.297768 0.180667 
187 1 8.98104 0.241136 6.32644 0.620794 -0.980107 -0.372084 
188 1 1.07634 9.19861 0.192462 0.360253 -0.583818 0.723153 
189 1 8.41436 9.23113 5.70883 0.402958 -0.493363 1.34024 
190 1 6.19125 8.9975 4.004 -0.0182166 0.884529 0.361656 
191 1 6.67118 5.94263 5.26754 -1.56159 0.957238 1.22493 
192 1 1.12324 0.695652 7.16101 0.00203364 -0.113577 0.184496 
193 1 5.8581 5.90666 0.600231 -1.05828 -0.765571 -0.144229 
194 1 2.10428 6.49099 1.83047 0.341037 -1.05399 0.139218 
195 1 5.18151 5.44413 6.63712 -1.33761 0.573231 -1.03399 
196 1 6.10485 4.97631 0.83538 -0.224105 -0.750973 1.01475 
197 1 4.50094 2.20927 0.339081 1.28323 0.160838 -0.0792946 
198 1 7.14717 7.88578 1.63525 -0.526685 -0.597858 1.01974 
199 1 5.34551 6.94503 7.65341 2.0894 0.0120048 -0.557909 
200 1 1.93805 1.98052 0.760627 -1.51363 -0.387737 -1.12506 
201 1 0.289477 6.98445 2.23931 0.694028 1.00326 -0.13734 
202 1 6.96277 4.64543 9.1582 -0.849728 -0.800843 -0.745517 
203 1 4.3773 8.27944 1.91933 -0.615 1.38292 2.48443 
204 1 2.85692 5.92039 0.14994 0.344184 0.390717 -1.79828 
205 1 5.11046 8.36228 7.77899 0.646438 -0.944897 -1.33056 
206 1 7.90862 5.42997 2.1191 -1.11836 0.549892 0.606691 
207 1 1.94971 0.270893 7.56023 0.89422 0.991324 0.0792772 
208 1 8.60004 1.08265 6.0337 0.604115 -0.164048 -0.106392 
209 1 3.32115 4.50395 8.25976 -0.00776127 -0.851634 0.358568 
210 1 7.63001 8.74506 5.92558 -2.54281 0.633781 -0.0184986 
211 1 7.63586 1.98838 8.20371 0.767465 -0.399054 -0.715327 
212 1 6.8689 3.23645 0.471004 -0.233512 -0.23015 0.853471 
213 1 9.06691 5.04976 8.47124 -0.428938 -1.38173 0.873672 
214 1 8.10022 8.88986 4.39602 -0.839255 0.0996637 0.0237793 
215 1 1.54669 2.42408 2.47588 -1.41984 0.475222 0.67354 
216 1 5.4155 1.60499 0.364102 -0.00140623 0.0731113 -0.583417 
217 1 7.29577 8.72032 3.96992 0.778909 -0.288637 -0.251428 
218 1 6.09315 8.43717 7.96148 0.57386 -0.13274 -0.565991 
219 1 0.0457397 1.7814 6.19329 0.160044 0.577671 0.0241632 
220 1 2.3977 4.99953 3.72435 1.16204 1.89963 0.796676 
221 1 1.78021 4.35473 2.1931 -0.607936 0.176877 0.529085 
222 1 0.790205 7.8846 4.69499 -0.273119 0.830964 0.610464 
223 1 2.01882 5.06223 2.78636 0.601323 1.28187 -0.493599 
224 1 2.87831 9.01774 8.87099 -0.976689 -0.222929 -0.0385583 
225 1 3.20522 3.352 4.22223 -1.80074 -0.282799 -0.449393 
226 1 2.61694 7.65172 1.165 0.149899 0.228506 -0.10325 
227 1 1.87073 5.99584 0.243413 0.320067 0.294269 -1.12795 
228 1 1.76675 2.42618 7.7206 1.01619 0.438587 -2.00909 
229 1 0.0789433 0.693733 2.07287 0.333365 0.307241 -1.46028 
230 1 0.223645 6.57707 0.536298 0.116552 0.235196 -0.334878 
231 1 5.02701 1.68279 4.02168 0.112466 1.08398 0.368476 
232 1 9.37301 6.42223 8.05261 -1.14786 0.178414 -1.975 
233 1 0.740748 3.74849 9.1483 -0.723536 0.653723 0.472845 
234 1 0.058362 7.99756 6.25363 -0.147223 1.55718 -0.0485191 
235 1 0.299991 0.920028 4.77398 -0.0973035 0.126548 0.649308 
236 1 8.71572 7.36859 0.92664 -0.577495 -0.415079 -0.108687 
237 1 4.44463 6.61087 0.0635414 -0.541253 -0.430432 1.54774 
238 1 6.01552 4.09591 1.28073 1.00573 -0.120572 0.619921 
239 1 3.8503 5.20951 6.62632 -1.37403 1.21203 -0.683073 
240 1 6.67011 5.46365 0.218546 0.80787 0.0155445 0.361005 
241 1 5.3372 0.0437931 3.7391 0.282395 0.0975223 -0.505628 
242 1 0.449441 1.96515 0.297016 -0.739774 -0.0941691 -0.159229 
243 1 9.0932 4.89848 2.41495 -1.26721 0.817409 -0.102458 
244 1 0.275401 8.7855 9.3308 -0.337049 -0.287744 0.0688948 
245 1 9.34698 4.59764 7.63091 1.33283 -0.000774781 0.62315 
246 1 8.46812 5.67888 0.652442 -0.491031 -0.816655 0.481333 
247 1 1.54224 0.841666 1.32845 -0.67557 0.255781 1.43259 
248 1 2.59851 1.74239 6.34764 0.0782141 -1.83651 0.837108 
249 1 2.02503 2.53456 3.39941 0.13485 -0.384584 -0.0167941 
250 1 6.92539 0.789729 6.22479 -0.5186 -0.197064 0.520643 
251 1 1.33412 9.1382 5.79041 0.50948 0.124011 0.129574 
252 1 5.14111 1.08638 1.0997 -0.945243 -0.70994 -0.464056 
253 1 7.03062 0.665927 0.876594 0.651651 0.313294 1.12379 
254 1 4.418 9.20371 2.31409 -1.00543 1.43789 -0.629974 
255 1 5.68278 4.78991 6.1161 -0.541753 0.925059 -0.214414 
256 1 2.46462 7.91572 3.86281 -0.0790882 0.358808 -0.202444 
257 1 4.16707 5.20858 0.767551 0.810601 -0.466254 1.00334 
258 1 1.97805 8.96641 9.3143 -0.0496455 0.559304 -0.533814 
259 1 2.20977 3.38221 8.14738 -0.287859 0.121589 -0.892336 
260 1 7.52305 5.74487 0.574248 -0.271454 0.845751 -0.648253 
261 1 8.30203 0.896541 3.83035 -0.829713 -0.249495 -0.720195 
262 1 6.69851 5.5477 7.61434 -0.616163 0.470191 0.191201 
263 1 6.80868 1.02082 4.53633 -0.553937 -0.541714 0.437447 
264 1 6.23487 3.99934 7.47139 -1.17251 0.330322 0.734165 
265 1 2.27124 0.398911 4.60411 1.10341 -0.87034 0.612923 
266 1 2.96457 6.99926 4.10457 1.00319 0.747925 1.67971 
267 1 3.44895 1.18274 8.15627 1.48362 -0.876389 0.979436 
268 1 3.49756 7.48276 8.97479 -0.0237775 -0.109298 -1.00073 
269 1 5.11754 6.5723 1.88216 -0.116459 0.174621 0.280331 
270 1 4.96981 6.09453 7.9054 -0.231345 0.769596 -0.284219 
271 1 4.73238 3.02165 1.21115 -0.84827 0.720863 -0.763724 
272 1 1.75986 5.69454 3.50008 1.35928 0.221303 0.447517 
273 1 4.15671 3.53459 2.81048 -1.23357 0.419168 1.09745 
274 1 7.98181 0.700898 7.94418 -0.0649653 0.59803 -0.26017 
275 1 4.42627 5.97159 8.74487 1.04607 -0.162593 -0.766601 
276 1 8.91687 3.98814 1.20076 -0.360598 0.112877 1.84252 
277 1 1.24313 0.992563 4.66859 0.624475 0.368657 -0.0781441 
278 1 2.19132 1.75636 9.19128 0.488008 1.21587 -1.17367 
279 1 2.30113 2.20046 1.81048 -0.134862 -0.363294 -0.140157 
280 1 7.76828 6.12292 8.46169 1.25881 -1.8493 -0.161765 
281 1 8.69258 8.35209 5.86097 0.807349 -1.38255 -1.04071 
282 1 6.23676 1.8516 0.0045437 0.841636 -0.947376 -0.734057 
283 1 7.73616 5.95848 6.81613 -0.0945188 -0.312413 0.167122 
284 1 4.59794 7.92103 5.66303 -0.497903 1.17047 -0.146721 
285 1 2.41633 0.746895 6.10642 1.22519 -0.48949 -1.00021 
286 1 4.40519 6.06064 1.10196 1.51606 -1.04882 0.841122 
287 1 1.44637 1.74136 3.19919 0.480609 0.256987 0.172234 
288 1 0.613042 2.7964 9.17168 -0.398573 0.0200685 1.69964 
289 1 4.58231 8.77779 0.732339 -0.500393 0.355907 -0.177363 
290 1 8.45615 3.75883 0.386664 0.16282 0.23907 -0.260605 
291 1 3.49403 6.03349 0.874687 0.0542405 0.785896 -0.143881 
292 1 8.71634 5.97275 8.5437 -0.315234 0.815582 0.835167 
293 1 8.62407 6.62739 5.37154 -0.0851806 0.71592 -0.644415 
294 1 4.80414 2.91757 9.11072 -0.343942 -0.116862 -0.697376 
295 1 5.92358 3.71056 6.59441 -0.21546 0.306161 0.69093 
296 1 9.2477 6.41707 2.89635 -0.232993 -0.370618 -0.14554 
297 1 4.73531 1.87053 2.82702 -0.79704 -0.18288 0.553964 
298 1 7.12836 3.5681 7.72553 -0.0934409 -0.591139 -0.414542 
299 1 1.31222 1.43894 9.32287 1.0951 -0.361615 -0.421094 
300 1 2.23303 5.71189 4.37417 -0.997243 0.657902 1.19428 
301 1 0.388667 9.1164 3.57907 -0.346256 0.837059 0.83976 
302 1 2.64681 3.31771 3.33527 -0.0414687 -0.728685 0.391289 
303 1 1.76122 5.72007 1.21671 -0.230163 0.216172 -1.46039 
304 1 9.16699 5.28119 4.49424 -0.213954 0.723003 -0.313261 
305 1 6.87919 2.61656 7.80695 -1.04773 0.672592 -1.58721 
306 1 3.68924 6.43494 4.22686 -0.1846 0.189335 -1.15047 
307 1 0.399035 6.64561 4.12038 -0.443116 1.7155 -0.0713273 
308 1 4.21384 2.13236 3.66344 -0.343243 0.176138 -1.43726 
309 1 7.64658 5.22722 5.57345 0.68749 -0.894481 0.128307 
310 1 8.36799 7.49052 3.4973 -0.310985 0.146854 -1.00134 
311 1 9.22788 3.41141 9.12539 -1.03562 -0.597317 -0.407382 
312 1 3.48237 3.88643 0.49165 1.02 1.46542 -0.712032 
313 1 7.22255 8.80425 9.04297 0.748538 -1.07447 0.0736579 
314 1 2.75531 4.56344 2.02141 -0.1694 0.468687 0.177862 
315 1 4.42518 5.88506 6.22854 -0.364766 0.6669 -1.2236 
316 1 2.3036 7.96621 7.76476 0.135378 1.28305 -0.692843 
317 1 4.33714 6.79726 7.68138 1.54015 -0.00805707 -1.54646 
318 1 7.4544 8.8372 3.01054 0.0876704 -0.127013 -0.747634 
319 1 5.87888 2.51302 7.63009 -0.277078 0.608829 -0.472283 
320 1 8.96946 7.53033 1.89456 -1.32095 -0.823118 0.734668 
321 1 3.54715 1.33525 5.144 1.30508 0.832661 -0.568798 
322 1 6.50426 4.1655 0.443494 -0.262132 -0.508293 -0.711099 
323 1 7.21718 7.15065 7.47505 0.535709 -0.653359 1.43746 
324 1 1.22457 6.96911 2.36877 0.507827 -0.671047 0.38138 
325 1 1.04761 6.2068 0.818147 0.127799 0.508103 -0.00570205 
326 1 2.47335 8.49328 6.1599 0.904609 -0.760293 0.27666 
327 1 0.721008 7.97531 9.34543 -0.099809 0.0825409 -0.0366409 
328 1 5.59966 2.0141 2.14833 0.290107 0.818778 -0.532622 
329 1 3.16825 5.32985 2.32652 1.28873 -0.25737 0.595551 
330 1 7.74486 3.30404 0.888929 -0.0498456 1.06516 0.314687 
331 1 6.30344 0.728318 3.147 -0.72273 -0.612588 0.642175 
332 1 5.87485 7.43807 4.21638 0.0183067 -0.605655 -0.466968 
333 1 1.0858 8.8575 4.20155 -0.981948 -0.269188 0.449965 
334 1 5.02252 4.14804 1.25223 0.640608 0.718294 -0.784307 
335 1 2.91493 0.579027 5.27983 0.926801 -1.34766 -1.33249 
336 1 3.85618 5.75179 0.0489607 -1.56588 -1.7905 -0.8583 
337 1 1.57555 3.29704 0.303666 1.84061 -0.186866 0.380516 
338 1 0.109471 8.17443 2.38339 0.0719001 1.26118 0.0711386 
339 1 8.60441 7.58394 5.32392 0.377262 1.22714 1.17001 
340 1 4.29163 4.67779 4.19356 0.891888 -1.39211 -0.0893834 
341 1 0.0473752 8.07006 5.28408 0.239634 0.311441 -0.104235 
342 1 6.97453 3.78946 6.81972 -0.210829 -1.44073 -0.370592 
343 1 5.48435 3.40053 7.51053 0.136663 -0.22607 -0.120133 
344 1 8.54174 8.27774 1.03696 -0.188698 -0.145649 -1.55597 
345 1 8.45992 0.0391797 0.430439 -0.6025 0.388985 0.656285 
346 1 2.41083 6.37655 3.63666 -0.742089 -0.806677 -0.000118255 
347 1 7.88852 8.52543 0.329803 -0.913286 0.794114 -0.0474906 
348 1 2.6309 6.94198 0.474546 0.0751105 0.53817 0.619172 
349 1 3.52168 0.883989 2.46697 -0.408889 -1.89376 -0.482501 
350 1 2.38488 3.44839 9.10867 -1.11084 0.938319 1.594 
351 1 0.649152 4.78831 2.16886 0.61989 0.986245 0.526793 
352 1 1.97466 7.44885 8.51984 -0.381317 -0.484209 0.347944 
353 1 5.4666 8.53076 3.49537 0.950117 0.10078 0.36185 
354 1 3.29426 3.21691 2.54666 -0.687689 0.532149 0.489075 
355 1 8.8214 6.444 1.0539 0.0458476 -0.160653 -1.27441 
356 1 4.56162 4.74881 7.06046 -0.970792 -1.48176 -0.150637 
357 1 1.10696 4.10719 8.34293 -0.304961 0.533689 -0.368255 
358 1 8.67901 8.11903 4.31681 0.476413 -0.317775 -0.206868 
359 1 8.34296 7.69874 0.123791 1.03178 -0.887103 0.531225 
360 1 6.72404 1.21678 1.65621 0.631881 -0.164983 -0.445431 
361 1 7.46579 3.97033 0.218145 0.110635 0.259442 0.320699 
362 1 2.31326 8.8013 1.21899 -0.601292 -0.449995 1.6563 
363 1 1.91138 4.50806 4.43596 -0.765449 -0.692772 -0.51892 
364 1 7.94097 5.16215 1.20773 0.340437 0.0338698 0.366677 
365 1 6.43122 8.72669 0.156349 -0.224966 0.917088 -0.507787 
366 1 5.65061 1.87279 3.20843 -0.982855 0.298258 -0.717772 
367 1 2.99798 1.20942 9.03406 -0.0355312 0.397591 -0.594886 
368 1 3.04639 8.1469 8.44862 0.451196 -0.227484 0.303593 
369 1 8.11019 8.38816 3.57349 1.48011 0.540432 -0.367275 
370 1 7.78689 7.78393 5.85073 0.00166711 -1.59629 -1.32777 
371 1 2.43619 4.26955 8.57077 0.762978 0.552871 0.0196322 
372 1 4.69209 7.48558 0.503954 0.554157 0.943105 0.466709 
373 1 4.4745 8.97863 8.20704 0.185835 0.101718 0.621665 
374 1 7.97582 6.7518 0.623687 -0.268692 -0.279358 -0.702695 
375 1 6.09289 0.960309 0.853156 1.30584 0.547144 -1.39216 
376 1 2.51198 9.13103 2.08744 -0.229122 0.0425005 1.09998 
377 1 8.57514 7.47963 6.3332 1.043 -1.60114 1.26575 
378 1 0.78748 1.24388 6.48855 0.539276 -0.0400126 -0.637495 
379 1 3.3809 0.366769 9.34166 1.41468 -1.45317 0.879594 
380 1 3.91473 5.94345 7.95708 1.06759 1.78656 -1.82955 
381 1 6.91543 4.62755 7.45181 1.88214 0.486744 0.896674 
382 1 3.6233 9.00017 3.55766 0.933618 -1.4327 -1.13126 
383 1 7.6664 4.39369 7.97804 0.799916 -0.880675 -0.128295 
384 1 8.90424 6.47563 2.00408 0.633662 -2.26335 0.601605 
385 1 5.45023 9.05946 0.676601 -0.0262124 -0.0871517 -0.899059 
386 1 1.42702 8.0171 7.33376 0.638132 0.868927 1.82437 
387 1 3.02893 8.49896 4.36231 -1.57336 -0.958499 -0.0666515 
388 1 3.29334 6.06612 8.70574 -0.312094 -0.298885 0.537973 
389 1 3.69613 7.24407 3.41939 0.0632031 0.00500975 0.911004 
390 1 4.87747 9.03472 9.24208 -0.331923 -0.486007 -0.11745 
391 1 9.26548 2.53236 8.61038 -0.185794 -0.424744 -0.0962283 
392 1 9.12399 5.96128 0.0150234 0.492198 -0.0587191 0.252422 
393 1 7.32287 7.80645 3.58068 0.302275 0.213288 0.727081 
394 1 1.63565 8.63179 3.37649 0.55992 -0.13211 -0.309248 
395 1 4.43201 1.00765 2.55395 -0.225636 -0.0558734 0.433358 
396 1 3.6294 2.13423 8.29815 1.16245 -0.493039 0.687871 
397 1 5.5123 7.60118 3.29201 0.46588 0.252765 0.697016 
398 1 8.54031 5.71033 5.12813 -0.240131 1.18655 1.3309 
399 1 2.63328 3.92839 4.89511 0.722364 0.787337 -1.12922 
400 1 3.26714 8.12382 3.43752 -1.70599 1.74627 0.0914792 
401 1 8.68946 5.72412 2.58403 0.223429 -0.731922 -0.0514454 
402 1 7.54731 8.3807 7.36394 -0.599033 -0.4486 -0.612974 
403 1 8.77404 8.54645 0.0520042 0.850796 0.0423738 0.266526 
404 1 7.43783 0.168081 8.52251 -0.469503 -0.981076 -0.24186 
405 1 4.24495 4.39535 8.49655 -0.058059 0.526158 -2.01648 
406 1 2.9195 1.24139 3.08707 -1.09079 1.85141 -0.318583 
407 1 0.0554008 4.0999 0.355839 -0.131383 -0.174674 -0.25143 
408 1 7.18611 1.18735 7.86292 -0.957967 -0.988611 0.796817 
409 1 5.78991 9.34589 9.25327 -1.61265 0.869234 0.794811 
410 1 1.57693 3.80907 3.81365 0.913872 -0.72209 -1.59582 
411 1 8.67461 0.147553 2.17245 0.150044 -0.469222 0.403694 
412 1 2.4117 8.25835 0.434877 0.234275 -1.09093 0.563329 
413 1 4.93018 2.04454 1.14558 0.0766335 0.27844 1.31611 
414 1 1.07023 7.00859 1.35558 0.451925 -0.427446 -0.246343 
415 1 8.45201 4.92302 7.46583 -1.23653 -0.558636 -0.290074 
416 1 3.46716 8.09868 5.10707 0.209232 -1.62471 -0.244635 
417 1 4.12648 3.79365 1.1712 -0.495405 -0.372804 -0.0819228 
418 1 3.37377 4.76254 3.84035 1.01838 -0.462744 -0.77894 
419 1 9.36172 8.62718 7.58069 0.322118 -0.134943 0.145021 
420 1 0.669709 0.286567 5.39102 -0.384864 -0.665059 -0.202988 
421 1 1.71841 1.49973 6.10976 0.119081 -0.478438 -0.824047 
422 1 5.61021 2.71053 1.44555 -0.393947 -1.44739 0.580038 
423 1 4.46585 2.64765 8.16842 1.10957 -0.133794 -0.343138 
424 1 6.10627 2.20495 5.9965 -0.202035 -0.0781788 -0.529103 
425 1 3.17313 7.82333 2.55107 -0.389968 0.931046 -0.835625 
426 1 1.55359 6.68859 3.29678 0.710996 -0.837957 0.13641 
427 1 4.39205 4.15359 2.03344 -0.345975 0.359846 1.15366 
428 1 1.38749 2.83935 4.0355 0.77797 -0.493047 0.0400022 
429 1 3.77549 0.321985 5.66892 0.0252998 -0.545443 -0.97419 
430 1 4.62328 4.85674 6.10063 0.772545 0.192738 0.219647 
431 1 2.1402 1.33495 4.55834 -0.25415 0.0777271 -0.951729 
432 1 6.06357 9.19711 3.0923 0.990544 -0.158586 -0.443139 
433 1 4.02652 0.289747 3.01986 0.567375 0.750394 -0.457568 
434 1 4.93306 4.36395 7.82954 1.20805 -0.566781 -0.719116 
435 1 6.66883 0.79634 8.56679 1.4086 0.0952845 -0.195969 
436 1 5.19008 6.81239 3.82526 -0.188183 -0.110555 0.164712 
437 1 4.03625 2.35267 1.29828 -0.74992 0.763292 0.495945 
438 1 2.70297 2.57485 7.79319 0.834695 -0.103125 -0.420473 
439 1 5.02662 8.63614 5.09583 -1.83584 0.893731 -0.785796 
440 1 7.36397 4.43006 6.18647 0.0527779 1.3196 0.0204239 
441 1 1.08433 6.41346 9.26951 -0.0862815 -0.259373 0.309992 
442 1 7.64685 0.450683 0.0585668 -0.194796 -0.466933 0.596046 
443 1 2.19874 2.56567 8.63769 -0.35564 -0.341537 -1.17921 
444 1 5.54811 4.27413 0.444314 -0.184929 1.13218 -0.241449 
445 1 0.0300348 0.835844 6.90232 0.149027 -0.55948 -0.577072 
446 1 8.09 7.89228 1.83958 0.941667 0.189111 -0.0800246 
447 1 9.37918 1.69449 8.0917 1.05219 0.390453 1.18492 
448 1 8.42214 7.12125 2.57759 0.216598 0.735555 -1.47584 
449 1 4.59793 0.062875 4.89883 1.24222 -0.633203 -0.247076 
450 1 1.39072 5.12458 0.568156 -1.35949 0.372431 -1.01051 
451 1 6.02105 4.40802 9.03851 0.373233 0.0567291 -0.184869 
452 1 5.4766 0.973772 3.56382 -1.3385 -1.07804 -0.396697 
453 1 5.40041 9.04269 8.39297 0.0789712 0.812659 -0.793853 
454 1 7.48017 4.59086 1.81693 -0.133269 0.311084 1.06378 
455 1 2.87632 4.4225 1.02892 0.341492 -0.132358 -0.312319 
456 1 3.06988 0.0491606 4.2014 -1.65045 -0.737765 0.381301 
457 1 7.8129 7.09538 5.04953 0.983198 1.60005 -0.328645 
458 1 6.20603 6.1371 9.12771 0.198014 -0.340344 0.746251 
459 1 7.61338 6.99511 3.09496 0.391053 1.04585 -0.36704 
460 1 3.2951 2.44622 1.94033 -0.109698 0.214485 0.168359 
461 1 5.00367 0.507878 1.98308 -0.862991 -0.274964 0.405497 
462 1 3.84122 0.34599 8.47996 -0.313613 0.932589 1.18009 
463 1 0.620518 4.98264 8.24302 0.558848 -0.928362 -0.588846 
464 1 8.89118 7.04893 7.53732 0.00155113 0.564759 0.440599 
465 1 1.45463 3.23058 8.7396 -1.61114 -0.157521 0.204395 
466 1 0.0452405 7.19147 4.85666 0.721105 -1.44322 -0.56567 
467 1 5.16774 0.953313 6.24618 0.110918 0.340859 0.787551 
468 1 6.82449 5.99076 8.43791 -0.806453 -1.22201 -0.908234 
469 1 9.32861 7.16087 5.80542 -0.307373 0.712344 -0.238964 
470 1 1.6199 0.974792 3.80434 -0.861945 1.21796 0.710535 
471 1 0.95831 1.19698 5.55769 -0.300074 0.591674 0.606141 
472 1 6.56372 8.17156 4.19192 0.0655198 -0.8398 1.1487 
473 1 7.44808 0.676188 7.0764 0.374627 0.806232 1.19431 
474 1 9.0537 0.022734 9.04899 -0.589656 -1.30877 0.638875 
475 1 9.02428 7.84567 8.01219 0.737644 1.01636 0.620288 
476 1 4.05992 9.1703 7.3236 1.36834 -0.554218 -0.816721 
477 1 3.33335 1.71272 3.83619 0.0396713 0.44017 -0.451075 
478 1 8.26775 4.88247 4.77116 -0.54499 -0.691254 -0.534646 
479 1 4.1363 8.13876 6.51495 -1.17835 1.13985 -0.511636 
480 1 6.43778 6.51663 7.69903 0.489207 -0.0232632 -1.27383 
481 1 8.14393 2.28965 6.92166 0.629394 -0.512477 -0.792736 
482 1 1.70415 0.433968 2.19482 1.24312 -1.07281 -0.332256 
483 1 5.51719 4.48052 7.04623 0.355271 -1.39031 -1.19875 
484 1 -0.00521441 4.06472 2.07801 -0.352614 -0.36356 0.675916 
485 1 4.86207 1.48266 1.8959 0.166407 0.814785 1.25805 
486 1 2.77341 4.87913 4.58592 -0.975082 -0.719722 0.571806 
487 1 8.79438 1.57203 6.89107 0.302679 -0.0455986 -0.739308 
488 1 5.64458 8.37869 4.42759 0.660569 0.821059 0.529332 
489 1 4.91011 8.24096 8.73363 -0.553901 2.08203 -0.703775 
490 1 2.59989 6.45375 2.66259 -0.675984 0.65293 0.544684 
491 1 0.199095 7.29272 1.20688 0.470387 -1.98813 0.823288 
492 1 9.05234 0.450132 1.1621 -0.714855 0.804467 1.11544 
493 1 0.942031 4.41754 4.29419 -0.915547 0.727528 0.13655 
494 1 1.83094 0.785988 5.37041 0.503637 -0.763544 -1.00333 
495 1 2.77353 7.24546 3.22255 -0.366387 -0.456818 -0.850848 
496 1 6.87445 9.39926 4.54658 -0.925132 -0.353399 -0.108842 
497 1 3.86264 1.14699 7.23111 -0.0236567 -0.739898 -0.63991 
498 1 9.31886 8.30422 3.33141 -0.79618 -0.917813 -1.50366 
499 1 7.69733 3.05994 9.34584 1.97593 0.455294 -1.17036 
500 1 1.40236 3.66417 1.1829 0.629969 -0.0343366 1.60484 
501 1 8.7502 8.58455 1.96434 -0.976322 -0.643837 1.84212 
502 1 3.40992 3.89377 3.37428 0.22563 -0.911285 0.355943 
503 1 1.44661 6.33358 4.19941 0.68898 -0.275058 1.92302 
504 1 8.26653 7.77059 8.56376 -0.873344 0.714422 0.541581 
505 1 0.795103 7.71581 1.88522 -0.9605 1.46902 0.96743 
506 1 4.55959 1.24266 0.327539 0.514913 -0.647356 -0.745384 