ITEM: TIMESTEP
2392
ITEM: NUMBER OF ATOMS
1000
ITEM: BOX BOUNDS pp pp pp
0.0000000000000000e+00 9.4000000000000004e+00
0.0000000000000000e+00 9.4000000000000004e+00
0.0000000000000000e+00 9.4000000000000004e+00
ITEM: ATOMS id type x y z vx vy vz 
1 1 2.00223 0.369053 8.25868 0.430946 0.326208 0.508557 
2 1 2.98961 8.38734 0.203718 0.234468 -0.697639 0.872896 
3 1 9.37782 1.96547 8.11051 0.941058 1.10904 -0.596975 
4 1 9.12167 4.42972 3.62862 0.574692 0.234417 1.30784 
5 1 1.24854 7.1667 7.62095 0.757612 0.300626 -0.417605 
6 1 7.50915 9.07823 1.89152 0.276898 0.291204 -1.58645 
7 1 9.13681 3.7452 1.43581 -0.349854 -0.187762 0.513347 
8 1 3.74886 6.94888 1.02498 0.908908 0.243232 0.825865 
9 1 7.79141 2.64715 6.29156 -0.625668 -0.961261 0.462815 
10 1 4.46401 6.62912 6.06391 0.172203 0.814844 -1.63613 
11 1 8.5351 0.69389 5.78046 -1.47772 -0.905909 0.136736 
12 1 8.35292 3.78716 3.75607 0.141433 -0.403485 0.812677 
13 1 7.88091 1.46278 2.92141 -1.14464 -0.191864 -0.211165 
14 1 0.986579 1.69946 6.4097 1.4446 -0.0246005 -0.630901 
15 1 2.3786 8.51541 2.52447 -0.324043 -0.686382 0.0325532 
16 1 3.74865 2.03614 3.00604 -0.806963 -1.59537 -0.121283 
17 1 4.4273 3.53627 4.77642 -0.773878 1.06212 -0.683147 
18 1 6.78306 0.267723 1.57971 0.966778 0.697268 0.226743 
19 1 4.33347 1.89898 6.7138 -0.17368 1.15536 -1.54838 
20 1 7.78964 3.29915 2.8989 -0.107127 1.38638 1.16998 
21 1 2.18727 2.83758 7.43823 -0.0840548 0.85245 0.308441 
22 1 6.03793 8.23933 8.38916 0.98816 0.119738 -0.516434 
23 1 6.97461 1.27005 1.59778 -2.08111 -0.730466 1.45259 
24 1 1.63956 1.9874 0.351208 0.54778 -0.124546 1.17515 
25 1 5.11152 0.146779 6.92422 0.353367 -0.0614666 0.331036 
26 1 6.89135 3.18206 5.10192 0.471234 -0.720995 0.455196 
27 1 0.556052 6.81385 1.55399 -0.967142 -0.902122 -0.0880054 
28 1 0.224929 2.7434 3.06135 -0.549184 -0.610372 -2.34257 
29 1 3.32547 6.08068 1.23107 0.417183 -0.167317 -0.408631 
30 1 3.17915 9.27767 9.30379 -0.39588 -0.397283 -0.43325 
31 1 3.91588 1.71706 2.10728 0.112635 1.07252 0.858089 
32 1 9.24451 2.30778 7.182 0.482616 -0.123016 -0.00945918 
33 1 4.10321 8.59773 7.92365 -0.298977 0.506155 0.356618 
34 1 8.93538 3.88194 6.96807 0.108806 -0.804037 -0.0152964 
35 1 8.55462 8.29704 9.19855 0.333651 -0.244634 -0.0560542 
36 1 0.88156 3.29323 0.874412 -0.281222 1.3965 -0.482614 
37 1 0.930542 1.61741 1.84189 -0.403149 0.200535 -1.37826 
38 1 4.01122 1.52582 3.77396 -0.224704 -0.25195 0.496441 
39 1 8.09278 7.41382 6.42882 0.635581 0.269615 0.16125 
40 1 2.89144 4.84097 6.06448 -0.37867 0.926388 0.905782 
41 1 8.60615 9.13232 5.9219 0.146151 0.130455 0.686187 
42 1 7.79386 0.935562 5.26243 -0.0375029 -0.633845 -0.360022 
43 1 2.20338 1.13912 5.72227 -0.124754 -0.864211 -1.08896 
44 1 3.87019 3.60094 2.42943 0.951701 0.765186 -0.710034 
45 1 3.86594 3.18868 0.668652 -0.450915 -0.813225 -0.792973 
46 1 0.839696 6.29318 4.23843 -0.106864 1.47521 -0.806514 
47 1 5.57408 0.971962 4.34579 0.00885421 -0.598117 -0.533675 
48 1 7.51229 6.68109 6.63394 0.272124 -1.82806 -0.310636 
49 1 7.51459 0.234137 7.10936 -0.425716 -0.586884 -0.161494 
50 1 5.672 9.23768 7.59772 -1.12174 0.825021 0.483663 
51 1 6.22607 2.72721 1.73778 -1.20154 0.0598396 -0.950617 
52 1 8.6873 2.2593 6.28101 1.16755 -0.458082 0.441863 
53 1 6.47382 9.17403 8.42262 0.739972 -0.207168 0.589724 
54 1 3.78784 3.74094 6.58422 1.16712 -0.508766 0.452738 
55 1 3.76424 7.85289 0.0447671 0.24045 -1.35465 -0.444428 
56 1 3.45273 3.55759 4.8612 0.895709 0.0823224 -0.278691 
57 1 1.6021 8.99135 4.17712 -0.632323 0.554689 -0.580415 
58 1 3.63365 5.41393 0.187516 -0.209311 -1.07903 -0.545622 
59 1 4.99897 8.11377 2.6037 0.62421 -0.139327 0.323224 
60 1 0.750271 5.98609 8.41184 1.1564 0.939027 0.310783 
61 1 3.16798 3.04709 2.76998 0.598374 -1.40923 -0.580884 
62 1 6.64182 4.57702 8.94318 -0.341053 -0.602579 -1.1597 
63 1 1.93932 4.8632 1.84521 -0.610064 -0.860858 0.475256 
64 1 0.0942988 0.516497 3.4032 0.785005 0.23397 -0.971136 
65 1 4.46592 5.32485 2.9587 -0.0623819 0.171921 -1.26724 
66 1 7.44784 7.03716 8.9373 0.687575 1.21048 -1.98373 
67 1 4.05103 4.4894 8.9597 0.25012 0.155672 0.480221 
68 1 6.4127 1.87638 1.12117 1.63187 0.328628 1.00701 
69 1 1.69704 2.38082 3.2357 0.284047 0.103893 -0.191067 
70 1 2.20881 8.9789 4.97233 -0.0675232 1.62994 -0.195246 
71 1 9.17103 7.6293 0.189042 -0.252791 0.580047 -0.783467 
72 1 6.94815 0.497541 5.32392 -1.16732 0.290586 0.0419896 
73 1 2.61305 3.40091 5.30665 1.40611 -1.04852 -1.39251 
74 1 8.43104 1.01412 2.20631 1.72728 0.0575124 -1.11586 
75 1 6.06345 6.1566 8.22211 -0.062923 -0.708023 0.234327 
76 1 7.24037 2.39069 5.5328 0.987708 0.233607 -0.0859502 
77 1 3.58051 5.94892 2.13762 0.0548253 -0.154524 1.36391 
78 1 2.23363 6.33992 3.36773 1.10593 -0.879522 -0.10632 
79 1 7.16185 4.12812 1.30458 -1.00808 0.374645 -0.200594 
80 1 9.07589 7.03843 8.7699 -0.168857 1.15408 1.43725 
81 1 4.86744 8.67677 4.5083 -0.182161 -1.09657 -0.0507112 
82 1 5.57912 3.34162 5.1002 -0.0641347 -0.023764 0.792462 
83 1 7.4094 8.12378 1.9751 -1.01236 -0.600138 -0.908843 
84 1 6.9518 2.91167 4.13459 -0.346835 -0.0711977 -1.21625 
85 1 4.73775 2.93159 0.970636 -0.460242 0.267765 0.831672 
86 1 8.51465 2.32685 7.83727 -0.170109 1.01885 0.706982 
87 1 2.26795 1.8493 2.66829 0.474197 -1.10062 -0.358885 
88 1 1.62855 8.85616 8.66658 0.836707 0.132127 0.586864 
89 1 9.09053 8.95025 2.5212 0.181863 -0.431278 -0.0379846 
90 1 8.7254 2.59255 1.83412 -0.313921 -0.19413 0.32435 
91 1 0.196233 1.62704 0.157792 0.431654 -1.20133 0.131925 
92 1 2.97256 2.72366 4.68009 0.683782 1.56406 0.121284 
93 1 6.97994 9.0528 9.23177 -0.254201 0.178398 0.59392 
94 1 5.71722 8.00617 7.51826 -0.562903 -0.233087 -0.139376 
95 1 3.54446 5.17417 2.71741 0.129352 1.1147 -1.67806 
96 1 1.20985 8.94431 5.0514 -0.65381 0.0963284 1.26846 
97 1 3.13081 9.18348 5.30226 0.712798 -0.0447786 -1.61642 
98 1 4.63692 9.17761 5.38706 0.514614 0.546907 1.26906 
99 1 5.58903 3.18434 2.37905 -1.55447 1.49133 0.55914 
100 1 7.32712 1.65162 0.804123 -0.414661 -0.386723 1.67628 
101 1 9.29775 6.20143 2.02604 -0.57499 -0.73825 -0.479931 
102 1 0.660719 5.65837 6.77538 -0.62241 -0.375921 0.531594 
103 1 9.17124 7.01092 6.26714 0.448688 0.508729 -0.374807 
104 1 1.52898 4.81108 5.38355 -0.0429119 1.02248 1.2557 
105 1 3.72462 7.14681 8.72329 -0.417772 -0.0946369 -0.640602 
106 1 4.34539 7.25803 1.69954 -1.45473 0.186704 -1.59938 
107 1 2.13557 9.26662 6.70588 -1.0966 0.69637 -0.525886 
108 1 9.27024 3.82074 6.01794 0.689452 -0.241454 0.65584 
109 1 7.84469 7.54947 1.31639 1.5796 -0.749664 0.776094 
110 1 7.82899 0.541764 2.8007 1.16454 1.40549 0.177581 
111 1 9.14678 7.16144 1.94541 0.234136 -1.31925 -0.339325 
112 1 0.31337 8.15388 4.07653 0.314137 -0.0857588 0.156027 
113 1 2.37062 3.48903 4.35809 1.12566 0.525567 -0.295892 
114 1 2.9708 7.92807 7.30052 -0.246421 -0.293398 1.3964 
115 1 2.16301 2.68411 9.35743 -0.726359 1.12479 -0.225328 
116 1 1.46198 3.7424 4.06378 -0.411785 0.683703 0.593428 
117 1 1.47584 9.00822 2.77146 0.329957 0.0767604 -1.08788 
118 1 2.96981 4.20685 6.77546 -1.61104 1.18946 0.14857 
119 1 5.38811 0.555487 1.61936 0.270571 1.11375 -0.203278 
120 1 9.10278 2.43654 9.38884 -0.351043 0.243764 0.376323 
121 1 2.90351 6.67835 8.87719 -0.655124 -0.304479 0.514796 
122 1 2.47362 4.99414 8.47915 0.326513 0.488775 -0.395465 
123 1 1.91254 2.93654 5.77261 0.114554 -0.612463 1.19472 
124 1 7.04526 2.52013 6.9241 -0.8978 1.77604 0.729119 
125 1 3.56111 3.91125 7.52294 0.15847 -0.363199 -1.06472 
126 1 3.05805 1.16551 7.12676 0.0586073 -0.933081 -0.629743 
127 1 5.37077 9.28878 6.0866 0.204025 0.23174 -0.656746 
128 1 4.78581 6.33897 7.21791 1.15235 -0.204208 -0.111826 
129 1 0.335597 8.50567 5.00298 -1.8385 0.562784 1.13787 
130 1 4.01771 7.76147 2.45416 -1.19442 0.356449 0.601759 
131 1 6.5919 1.16586 4.73668 0.398865 0.26453 1.77995 
132 1 1.27784 0.319194 8.94317 -0.0629221 0.983017 -0.391856 
133 1 -0.0039591 0.0274271 0.787309 0.61988 -0.600892 0.655468 
134 1 6.10705 0.285584 3.87394 -0.208467 -0.910446 -0.457582 
135 1 5.65607 1.46351 1.55781 0.846192 0.696429 0.159582 
136 1 2.83444 3.15717 8.85088 0.599716 0.017484 -1.09587 
137 1 8.2168 7.50087 7.56413 0.310247 -0.703702 1.29072 
138 1 6.48472 1.08305 0.161211 -0.883325 1.49503 0.970545 
139 1 1.13766 7.34222 1.00252 0.918937 -0.707774 0.758666 
140 1 0.655148 9.00009 8.48349 0.845299 0.136944 -0.53345 
141 1 3.25702 5.26237 4.54404 -1.58778 -0.907684 0.168799 
142 1 6.17156 4.92122 0.321526 -0.698872 0.202075 -1.5881 
143 1 6.80465 7.34246 6.36257 1.3858 1.45797 0.16331 
144 1 0.554897 6.71609 2.49925 0.314383 0.440098 0.769865 
145 1 4.60549 0.47018 3.08854 -0.197078 0.14179 -0.796514 
146 1 2.07212 7.12172 8.06179 0.139888 0.188697 0.420426 
147 1 3.87154 1.08099 6.47181 -0.071866 -0.0289314 0.601322 
148 1 0.541341 7.61966 2.26323 -1.08304 -0.920363 0.274043 
149 1 4.84184 5.68253 0.756576 1.75681 0.307332 -0.462555 
150 1 1.52637 7.75331 3.6286 -0.738222 -1.39327 -0.23214 
151 1 0.87734 2.02289 2.69696 1.0265 0.338148 1.05856 
152 1 6.18363 2.73243 4.63359 1.55497 -0.339733 0.335951 
153 1 6.48338 8.84426 5.08549 1.38265 0.628728 0.918327 
154 1 5.45754 4.23743 1.60339 0.209805 1.42846 0.216852 
155 1 1.73841 8.84592 5.89899 -0.164885 0.103503 1.06198 
156 1 8.49281 8.96324 0.521452 -0.0571255 -0.0661145 1.37566 
157 1 8.63477 4.26491 4.57693 -0.0910725 -1.63881 0.589274 
158 1 0.255552 5.61545 7.66791 -0.991042 0.100046 0.619429 
159 1 8.2139 2.42767 5.42173 0.689367 -0.944763 0.0816488 
160 1 9.32613 3.234 2.27037 1.57492 -0.975106 1.49559 
161 1 7.70979 4.41125 0.530538 0.687475 -0.467045 0.490875 
162 1 6.40311 1.83329 7.18163 0.590436 0.571694 -1.59689 
163 1 6.88217 8.99091 6.78643 0.602664 0.359762 -0.491978 
164 1 1.01118 8.58637 3.51293 -0.0782771 -1.76868 0.0554862 
165 1 1.65637 0.917485 3.85945 -0.182225 2.05699 0.475387 
166 1 4.26141 6.23098 1.51901 0.791414 -0.671533 0.00958394 
167 1 0.166598 8.46841 1.76914 -1.89952 0.381307 0.629652 
168 1 1.8932 5.67813 2.39766 -0.822332 0.333759 0.596946 
169 1 3.03549 3.13424 3.7489 0.449076 0.0136716 0.667567 
170 1 4.8039 8.14004 1.65494 0.15316 0.144601 -1.19682 
171 1 8.83677 1.11253 3.03371 1.14752 -0.168176 0.444272 
172 1 5.86454 2.18077 9.04055 -0.32804 -0.0173735 -0.866926 
173 1 8.77153 0.220132 4.04495 0.362968 -0.447012 2.02038 
174 1 3.0669 7.85592 2.61938 -0.47712 -0.0136763 0.933133 
175 1 2.31237 0.0507854 2.61041 1.05013 0.378277 -1.18024 
176 1 9.24293 3.21054 0.575846 -0.31507 -0.360646 0.921075 
177 1 5.53288 6.2406 1.06231 0.340381 0.543657 0.406511 
178 1 4.79013 3.79393 2.14297 1.09697 -0.691964 0.46294 
179 1 9.34831 1.33218 5.84591 -0.322984 0.552395 -0.262209 
180 1 1.15903 0.77498 8.06206 0.640268 0.672248 -1.08596 
181 1 9.01507 8.74912 4.38032 0.0576528 0.609172 1.98509 
182 1 1.24119 5.55515 7.70924 0.552946 -0.0372956 -0.884523 
183 1 1.76241 8.13162 5.19311 0.275428 0.893346 -0.128448 
184 1 2.40901 0.141034 5.82116 -0.0141263 -0.451543 -0.0521938 
185 1 4.31118 4.38754 7.08738 -0.789552 0.707026 0.342044 
186 1 2.37355 7.66106 0.282849 1.10217 -1.25442 -0.413619 
187 1 0.69676 8.74041 1.002 -1.6329 0.174912 0.993173 
188 1 7.15773 0.7754 3.42378 1.53609 1.24925 -0.398309 
189 1 7.44806 7.52549 8.1068 -0.726314 0.294614 -0.651331 
190 1 3.14733 1.30053 3.39819 1.31981 0.044861 -0.0837238 
191 1 3.1659 1.51698 5.10107 0.744232 -0.187136 0.294963 
192 1 0.190329 6.86496 4.70869 0.380444 -0.671534 2.29183 
193 1 2.91892 8.98171 3.15536 -0.390159 -0.603659 -0.443043 
194 1 6.418 3.52273 2.80039 0.389854 0.470892 0.137051 
195 1 3.42831 7.8466 5.45522 -0.406978 1.12821 0.752149 
196 1 2.79354 6.87823 1.05518 1.08594 -0.917652 0.671007 
197 1 4.96962 4.28118 9.15386 0.176644 -0.776614 0.170904 
198 1 2.19048 5.47495 7.68428 -0.462201 -0.862221 0.475827 
199 1 1.832 0.611687 7.33314 0.285954 0.415291 0.732167 
200 1 4.49679 8.18441 5.30491 -0.62239 1.86607 -1.00442 
201 1 6.90898 0.425806 6.3108 -0.844305 -0.540947 1.09394 
202 1 2.24552 8.9042 7.89981 0.827101 0.0182794 -0.0939113 
203 1 0.321033 3.00336 5.62983 -0.237908 1.34691 -0.813777 
204 1 4.46314 2.66811 0.120305 -0.128439 1.09044 -0.593509 
205 1 2.03546 6.86333 5.2778 -0.337471 1.65782 -1.34398 
206 1 0.336822 4.31158 6.64718 2.06945 0.466135 1.44814 
207 1 3.00192 3.2874 6.95295 -0.361099 -1.7566 0.17823 
208 1 6.60811 0.210416 7.56473 0.180545 -0.3715 -0.207262 
209 1 4.35633 4.07201 8.10194 -0.552487 0.457687 -0.598943 
210 1 4.87813 1.43727 6.02026 0.326982 -1.00633 0.275576 
211 1 1.1166 6.82257 4.95255 -1.01962 -0.440237 0.215609 
212 1 7.61084 0.645287 1.88328 -0.246006 0.714269 1.71328 
213 1 6.61839 2.13908 6.17787 -0.38546 -0.0828723 0.139311 
214 1 7.69207 2.75157 7.57118 -0.209123 0.0332076 0.387667 
215 1 0.262394 1.15054 7.73256 -0.626331 -0.149404 -0.684299 
216 1 3.83285 5.39029 8.62041 0.552144 -0.417736 -0.103344 
217 1 7.8467 3.00555 3.8269 -0.304065 0.711287 0.573369 
218 1 7.65665 8.51612 0.315684 -0.771076 -0.087717 -0.673879 
219 1 5.27128 8.97944 1.96334 -0.00491025 -1.16138 -0.285929 
220 1 2.58289 8.97608 4.03743 0.221015 -0.557441 -0.443811 
221 1 3.32765 3.84425 0.0618292 0.700424 -0.379351 -0.296414 
222 1 5.33949 0.552193 5.42754 1.49116 0.0727817 -0.39033 
223 1 5.55721 8.9902 5.22139 -0.329297 -0.103737 -0.194365 
224 1 4.26822 0.0749461 4.2691 -0.102438 -0.608647 -0.618283 
225 1 6.41924 8.67423 7.60231 1.0886 0.427445 1.01353 
226 1 0.297276 6.38949 9.15194 0.674546 -0.50681 0.833798 
227 1 1.5541 3.23618 1.69533 1.05322 0.712088 -0.176377 
228 1 8.44919 3.99216 5.48422 -1.07882 -1.0009 -0.396304 
229 1 3.86875 4.64637 3.49471 0.997968 0.665879 0.514005 
230 1 9.03599 3.15672 7.63558 -0.138054 -0.875054 -0.39269 
231 1 0.631365 7.70432 3.25892 -0.446839 -0.861878 -0.971679 
232 1 1.42635 0.559899 2.82292 0.434802 0.255391 0.307301 
233 1 2.34117 3.57182 1.11344 -1.21919 0.895558 -0.362588 
234 1 6.99919 4.99731 0.868399 0.0764439 -1.126 0.243707 
235 1 5.13706 3.48838 0.283762 -0.189054 1.09588 0.288376 
236 1 3.17771 1.95851 4.10802 -0.0564774 1.27233 0.847115 
237 1 8.45583 6.73405 7.02377 -0.70688 -0.732745 0.207894 
238 1 6.78755 3.28473 1.17506 -0.511953 0.232849 -1.78312 
239 1 8.23522 3.10504 8.31923 -0.226915 -0.156925 -0.883067 
240 1 2.4238 7.39 2.03088 0.240598 -0.975181 0.300015 
241 1 5.63379 5.24048 1.04656 -0.527085 -1.57428 -0.452174 
242 1 1.03178 7.93245 7.14393 -0.115233 0.0377455 -0.753319 
243 1 4.54032 7.72881 7.77912 -0.318609 0.376265 0.301991 
244 1 7.33775 8.16985 6.38718 0.14188 -0.819062 -1.82228 
245 1 5.58613 8.66219 6.82761 0.286641 0.0330607 -0.829279 
246 1 1.18669 0.400864 4.51652 -0.0581227 1.08509 -0.0945364 
247 1 5.48114 3.56257 4.18453 0.359993 -1.34111 1.03985 
248 1 5.15628 0.737228 7.66984 -0.633116 -0.909702 0.680264 
249 1 6.00347 1.2989 8.73634 0.76073 0.757236 1.1194 
250 1 0.430636 3.58185 7.27799 -0.687616 -0.421806 -0.293445 
251 1 4.31742 5.33378 6.93787 0.412036 -0.648008 0.456907 
252 1 4.49337 5.65893 9.27579 0.339333 0.948353 0.90647 
253 1 3.95832 1.27927 7.38699 0.250319 -0.391211 -0.480837 
254 1 2.4022 8.33403 0.97259 -0.19092 -1.00633 0.0243606 
255 1 0.706784 4.10851 5.50061 0.826121 0.636308 0.0529808 
256 1 8.27142 6.44243 8.96817 0.43627 0.436791 -0.664783 
257 1 8.12252 8.20087 6.96738 0.703428 0.184496 0.372925 
258 1 9.16503 7.75549 4.75792 0.228644 -0.554298 -0.558882 
259 1 0.183622 4.47009 4.49765 1.49833 -0.400931 0.382317 
260 1 3.88722 9.27218 2.97718 -0.371164 2.35522 0.253085 
261 1 3.47814 7.0974 7.1803 0.0199311 -0.360992 -0.0640113 
262 1 1.98848 4.55416 2.75902 -0.31089 -0.37735 -0.358334 
263 1 5.30013 1.02061 9.31506 -0.434924 0.290815 -0.259341 
264 1 2.03991 2.95771 8.38693 0.331621 -0.333327 0.773241 
265 1 0.83133 7.32268 4.14581 -1.1766 -1.25812 -1.19609 
266 1 9.26595 5.12178 6.94652 -1.17593 1.22164 0.174966 
267 1 4.75799 4.84083 1.30631 1.29549 -0.707727 -0.978437 
268 1 0.933564 8.27962 5.69057 -1.11829 -0.762189 -0.168531 
269 1 5.93567 8.39248 2.40831 0.637489 -0.184108 0.181165 
270 1 8.55927 1.53051 5.31498 1.34334 -0.29627 0.344574 
271 1 4.17319 5.62751 6.06122 -0.114449 -0.186553 0.0391206 
272 1 6.86918 8.65671 2.6249 -1.46877 0.428063 0.871157 
273 1 1.03862 5.06576 1.03932 -0.710261 -0.478242 -0.38001 
274 1 8.23039 8.07258 3.0002 0.623407 0.411737 0.13242 
275 1 6.12671 3.12829 3.61352 -1.42684 -0.765544 0.0944573 
276 1 8.31678 1.36871 4.42284 0.100618 -0.293625 0.911213 
277 1 7.36365 9.17445 7.99882 1.0128 0.393125 -1.06595 
278 1 3.77566 4.71465 6.34783 -0.781585 -0.740083 -2.07112 
279 1 1.479 8.18817 0.770928 0.415465 0.248585 -0.379337 
280 1 6.11338 8.65545 6.03663 -0.164905 1.66782 -0.558209 
281 1 3.01761 4.39688 4.99026 1.06894 0.509598 0.507722 
282 1 7.47738 3.37704 6.86847 -0.136975 -1.46666 0.875506 
283 1 1.20064 2.80522 0.0679093 0.185792 -0.559716 -0.696244 
284 1 3.13153 6.50864 3.66976 0.287127 0.562706 0.0420799 
285 1 3.43672 4.59948 8.22932 1.51472 -0.179101 -0.410819 
286 1 3.85939 3.61975 3.9996 0.933387 -0.712221 -0.30842 
287 1 7.0448 1.15054 2.54178 0.709378 0.33448 -0.197348 
288 1 6.26296 0.904986 1.08572 -0.138107 0.165058 -0.206789 
289 1 2.03341 4.97851 0.920542 -0.751303 0.223992 -0.037934 
290 1 7.77448 2.08044 4.04007 -1.25787 -0.265142 0.500611 
291 1 7.95991 8.53481 1.24288 -0.0787651 -0.208368 0.462142 
292 1 2.8701 8.87895 7.16428 -0.187278 -0.767197 -0.410422 
293 1 7.91379 1.74076 5.95878 -0.376329 -0.165345 0.841326 
294 1 1.63502 0.0939536 0.470525 -0.461102 0.403616 0.0789284 
295 1 4.296 0.716183 8.05414 0.554549 1.10961 0.0791685 
296 1 6.21292 0.868685 2.07792 -1.1706 -0.399435 1.0535 
297 1 6.16865 5.44702 8.88676 -1.54262 -0.0169247 0.268086 
298 1 1.56854 7.99815 6.36947 -0.619159 -0.24764 0.365108 
299 1 0.607643 9.0481 4.28755 0.632683 -0.33945 -0.0710259 
300 1 4.011 5.87081 7.62641 0.81084 0.839092 0.0891569 
301 1 0.265346 9.2357 6.78823 -0.533571 0.064147 0.0353761 
302 1 7.11876 1.75004 3.44903 0.0125861 -0.254652 0.731428 
303 1 7.88229 2.57247 2.22199 0.0699663 0.73205 -0.81294 
304 1 1.27882 4.17454 3.21109 0.924966 0.00645041 -1.83722 
305 1 6.49507 7.7656 1.74312 -0.00449498 0.447541 -0.474162 
306 1 0.0154836 1.35561 2.13881 -1.32184 -0.13531 -0.429746 
307 1 2.94438 3.44222 1.94727 -0.128325 0.219872 -0.393912 
308 1 9.22802 4.18685 2.30684 -0.57948 -0.211005 0.501859 
309 1 5.91209 1.83409 4.45804 -0.413698 1.35453 0.799219 
310 1 3.48368 6.31178 8.23792 1.24829 0.632927 0.553422 
311 1 6.44157 6.40939 0.732765 0.189371 1.02786 0.0838572 
312 1 5.90677 0.537299 8.19263 0.656782 0.88087 -0.0413382 
313 1 2.15771 7.65489 2.89876 -0.136151 0.78604 -0.757925 
314 1 6.42896 3.26348 6.93821 -0.808014 -2.07754 1.02065 
315 1 7.55219 3.64518 4.49036 -0.379943 -0.0497195 2.46843 
316 1 6.39269 1.25185 6.41756 -0.398208 0.436324 0.289261 
317 1 6.08093 0.0700874 6.7117 0.806973 0.580511 -0.995605 
318 1 7.44618 0.740389 7.9547 0.154314 0.634899 0.283615 
319 1 6.15899 9.31107 2.21918 0.843115 -0.28746 -0.519512 
320 1 2.07078 7.04988 9.01089 -0.661853 -0.215967 -0.249879 
321 1 8.57319 3.91271 0.541409 0.208013 0.32806 0.187451 
322 1 1.11698 4.43394 4.61919 -0.82461 -0.140799 -0.410769 
323 1 1.47603 1.46403 3.13139 0.38228 0.0548811 0.0793288 
324 1 5.96165 9.27807 1.27715 0.778817 -0.292159 -0.555117 
325 1 0.89619 0.743911 0.425375 -0.0296473 -0.0813852 -1.2797 
326 1 7.11242 2.29269 1.6162 0.958989 0.564834 2.56086 
327 1 6.20657 2.70593 0.739612 -1.06503 -0.479706 0.322819 
328 1 5.20965 7.18983 7.44543 1.06602 -0.598969 0.0810671 
329 1 5.75025 1.83617 5.94332 0.526934 -0.482965 0.475436 
330 1 8.06912 1.11556 1.18995 0.140118 0.531592 -0.481071 
331 1 1.6087 6.38104 8.48593 0.528461 0.185703 1.38323 
332 1 6.37159 2.05354 8.19452 0.688551 1.78771 0.379024 
333 1 5.79728 8.08548 5.25325 0.357068 -0.231263 -0.499773 
334 1 4.05563 6.17325 0.588834 -0.25261 -0.85688 -1.32528 
335 1 0.148307 8.24133 6.81794 0.556396 0.296758 1.21163 
336 1 2.41975 3.56356 6.26555 0.599206 0.430706 -1.06382 
337 1 1.05938 1.46459 9.19225 0.710612 -0.845117 -0.80579 
338 1 4.62975 3.24609 6.44333 0.0360605 0.377969 1.80172 
339 1 2.46627 1.17288 7.90242 0.711595 -1.28961 -0.352038 
340 1 8.38632 0.327407 6.6808 0.236347 -0.554877 1.60641 
341 1 1.84064 1.99884 6.00999 -0.883414 1.40631 -0.520643 
342 1 4.09213 2.57778 6.07776 -0.35899 -0.647972 -0.203255 
343 1 5.88431 9.13859 3.10797 0.566209 -0.22788 0.0480967 
344 1 3.85249 4.45164 4.4687 0.268235 -0.243668 0.512111 
345 1 8.78167 3.09112 5.68977 -1.23604 -1.78331 -0.672974 
346 1 5.35104 8.42283 3.52879 -1.91442 0.969939 -0.182715 
347 1 5.48267 0.825702 3.39398 1.0489 -0.292847 1.54728 
348 1 0.986285 1.00832 7.13126 0.0710566 0.0949867 -0.00298773 
349 1 5.47628 3.29771 1.43739 0.704226 -0.277383 0.678987 
350 1 3.81221 2.68183 4.18885 -0.110454 0.384948 0.33219 
351 1 1.28241 6.47932 5.82032 -0.201201 -1.08615 1.06815 
352 1 8.68773 1.68948 1.61762 0.09484 -0.326242 1.10627 
353 1 9.35441 5.32127 4.02328 0.405436 -1.57957 -0.00664633 
354 1 2.52347 6.24561 8.12853 -0.332632 -0.172004 -1.33026 
355 1 2.17839 6.14074 9.24672 -0.467477 -0.545094 0.928356 
356 1 0.00770894 1.50906 4.83299 -1.45121 -0.196791 -1.30753 
357 1 9.18178 6.15318 8.37812 -1.08389 -1.70085 -0.164944 
358 1 0.864019 9.35351 5.86047 0.478031 1.49564 0.52384 
359 1 5.04053 4.82007 2.24277 -0.242675 0.814573 0.502679 
360 1 3.46289 0.784974 9.14936 -0.116307 -1.16847 -0.1468 
361 1 4.77205 5.05043 8.61129 -0.0126691 -0.579038 0.519949 
362 1 3.79122 8.07181 4.06552 0.514178 -0.644522 -0.0166601 
363 1 6.94102 3.08922 6.11228 -1.45583 0.829936 0.107862 
364 1 4.6817 8.56527 7.15308 -0.164599 -0.814621 0.125826 
365 1 3.45593 5.3195 5.48726 -0.505715 -0.504151 -1.55195 
366 1 2.23243 5.36455 3.25369 -0.540153 -0.709253 0.0048484 
367 1 9.33933 2.82091 4.74399 0.28765 1.52037 0.653375 
368 1 8.80352 2.82233 3.77609 0.0114176 -0.173444 1.28165 
369 1 8.95102 5.54257 5.72373 0.377536 -0.722744 -0.368031 
370 1 2.28092 4.26749 5.59778 -1.85844 0.331923 0.731749 
371 1 6.49407 6.39339 9.06201 -0.875995 0.762257 0.415539 
372 1 1.44019 7.10852 6.67549 1.38104 0.708835 1.57157 
373 1 4.58761 2.26984 3.58558 0.5732 -0.837472 -0.169028 
374 1 1.32935 7.40187 5.67531 0.515369 0.0219944 -0.141742 
375 1 7.25419 2.59068 0.710971 -1.09216 -0.129197 0.387508 
376 1 8.38427 9.26775 5.01251 0.726495 0.719045 -0.878864 
377 1 4.74494 1.40248 3.16882 0.87922 0.894413 -0.485963 
378 1 2.0231 6.5812 1.525 0.956835 -0.640269 -0.794004 
379 1 1.92431 3.87341 8.12517 0.539087 -0.0111483 0.348311 
380 1 1.5365 1.98532 5.11543 -0.309248 -1.25296 0.80345 
381 1 0.836285 2.15864 3.61843 0.0107172 0.417163 -0.902528 
382 1 7.27243 1.79932 7.60431 -0.299537 0.889872 -0.334936 
383 1 5.71411 1.64738 0.516887 0.822701 0.532333 -0.379006 
384 1 4.5467 4.1544 6.13368 0.710825 0.187669 -0.635461 
385 1 8.28906 8.51926 2.14365 -0.894166 2.09916 -1.078 
386 1 9.05715 7.99832 2.40334 -0.230403 0.412862 1.33124 
387 1 0.985781 0.196679 3.59634 -1.09616 -0.336785 0.835916 
388 1 2.55919 0.727456 2.01024 1.06968 0.671129 0.225911 
389 1 5.31473 7.5763 8.35334 -0.0725093 0.231284 -0.893891 
390 1 4.5066 6.19212 2.44349 -1.18714 -0.222925 -0.217221 
391 1 5.65971 6.83324 8.87834 1.20622 -0.972622 -0.354941 
392 1 2.58536 7.63475 4.96234 0.643227 -0.671715 -1.33542 
393 1 0.0495522 5.25388 1.04489 0.189219 -0.110253 0.412238 
394 1 2.60418 8.62913 8.77428 1.75861 -0.381984 -1.0353 
395 1 6.62765 7.50811 8.64214 0.578164 0.622984 0.0371394 
396 1 5.01149 4.50906 3.16196 0.668226 -0.583785 0.185528 
397 1 1.52668 3.81609 5.96301 -0.785733 -0.619697 0.0379084 
398 1 3.14489 1.50287 0.366372 0.179859 -1.47906 0.132151 
399 1 7.65633 2.71687 4.72692 1.22429 -1.10513 0.426464 
400 1 4.99115 7.51964 0.0886091 -0.266285 -0.166079 0.31566 
401 1 5.47529 8.32659 0.496419 0.884489 -0.0770761 -0.877358 
402 1 0.605564 5.76675 2.54521 0.404259 0.383435 -2.38582 
403 1 1.81569 1.35054 6.7068 -0.837268 1.81401 -0.332887 
404 1 3.8522 0.0926824 8.61335 -0.313957 0.684191 -1.18094 
405 1 5.28049 7.55851 1.05504 0.494204 0.0610542 -1.35094 
406 1 6.00462 3.64706 0.75438 0.19701 -0.135148 0.598888 
407 1 4.47479 4.85341 0.383276 2.17845 -0.0517191 1.65357 
408 1 3.36293 5.1001 1.75557 0.036412 -0.49582 -0.544805 
409 1 8.80865 8.84565 6.78396 -0.23357 -0.351389 0.87333 
410 1 5.93372 2.87997 8.37899 -0.546531 -0.0648763 0.268888 
411 1 9.23036 4.58188 5.42296 -0.410698 0.389375 0.177307 
412 1 6.37187 1.82831 2.06778 -0.0263242 -0.322486 0.459831 
413 1 8.30295 7.33413 9.30909 -1.52413 0.729005 0.563617 
414 1 3.18474 3.95804 5.85305 0.309532 -0.292999 0.0637691 
415 1 7.21235 9.08513 0.95066 0.48605 -0.593688 -0.587546 
416 1 7.71787 0.114015 0.242748 -1.61696 -0.497456 -1.17374 
417 1 2.41639 8.32232 6.54939 0.420046 1.58212 0.168777 
418 1 2.58749 2.23777 0.773474 0.604502 0.363537 -0.0551975 
419 1 2.43062 5.26263 0.100444 -0.713857 -1.10518 -1.69497 
420 1 9.25622 7.21312 2.92122 0.484764 0.89467 0.11752 
421 1 2.0073 7.69879 7.22686 1.42974 -0.73193 -0.474717 
422 1 8.33264 2.30946 8.84767 0.459761 0.453868 -0.375355 
423 1 8.8068 8.979 1.45411 -0.61143 -1.34264 -0.77232 
424 1 5.90669 4.08482 9.3317 0.35839 -0.448903 -0.0273129 
425 1 1.62828 1.5251 7.62595 0.344529 -0.0162766 0.0287306 
426 1 6.1382 1.05281 5.53846 -0.0399883 0.942918 -0.346183 
427 1 4.51401 9.01228 6.33472 -0.958966 -0.0451609 -1.25875 
428 1 2.80844 0.418847 3.62309 -0.717998 1.62585 -0.402425 
429 1 2.22875 7.60314 5.84302 -0.793886 0.486092 -1.83542 
430 1 4.3635 3.82692 3.208 0.269808 0.187002 0.411835 
431 1 2.47794 6.85664 7.22211 -0.216424 0.0680855 -0.558797 
432 1 4.0314 2.23521 7.62326 0.0969213 0.250601 -0.0130676 
433 1 2.51116 5.15689 5.21322 0.312594 -0.90801 -1.04803 
434 1 8.48053 6.73581 8.06547 -0.968747 0.733525 -0.281793 
435 1 4.5695 8.89942 8.71268 0.560258 0.786857 -0.188868 
436 1 1.68248 8.60808 7.16737 -0.892327 0.333719 0.957554 
437 1 7.02731 8.94378 5.84798 -0.501874 0.828806 1.54126 
438 1 3.29061 0.313487 6.82323 0.280505 -0.757446 -0.578865 
439 1 1.08479 3.12843 3.31719 -0.952481 -0.555962 0.287039 
440 1 9.298 7.29715 3.88445 -0.258407 1.05729 0.0763709 
441 1 4.10619 2.36997 1.40733 -0.0655353 0.262258 -0.81263 
442 1 4.18677 6.84402 7.826 0.128701 1.7718 -0.165737 
443 1 4.3758 2.50071 8.5349 2.15545 -0.398019 -0.276941 
444 1 4.73988 6.7982 0.91052 1.04613 0.81686 0.914053 
445 1 3.98051 5.36224 1.08704 -1.72747 0.466226 1.60083 
446 1 1.00146 0.199058 1.20966 -0.201507 -0.761596 -0.659024 
447 1 2.03421 2.75769 4.86654 0.319487 0.19314 -0.320344 
448 1 5.52413 1.74209 3.58251 0.544068 0.712415 0.450617 
449 1 4.69339 1.9476 0.737925 0.0603132 -1.31566 0.69162 
450 1 7.75945 0.127009 5.75001 -0.587589 0.544937 0.72847 
451 1 1.77464 1.29912 8.55693 -0.692679 -1.63196 0.00461074 
452 1 2.45449 2.59001 6.52687 -1.21701 0.304121 1.39895 
453 1 6.37334 8.42512 3.51693 0.854937 0.491375 -1.04107 
454 1 0.425727 2.93826 3.96232 0.182719 0.366541 0.0495782 
455 1 4.68365 3.16969 3.84145 -0.519108 1.59616 -1.13282 
456 1 1.56059 2.19862 8.7945 0.760167 0.818094 -0.978074 
457 1 4.79666 1.80045 1.72307 0.818695 0.419838 -0.545653 
458 1 4.71044 9.30857 7.80054 0.652327 -1.64168 -1.19378 
459 1 2.3118 2.51998 3.99093 -1.10319 0.174328 0.130089 
460 1 0.61045 1.08733 2.84678 -0.49364 -0.74161 -0.139096 
461 1 0.877908 2.89875 2.34519 -0.238855 -0.322421 -0.226715 
462 1 4.42507 6.11653 8.44391 0.394924 0.141669 -1.00612 
463 1 8.84005 4.64442 1.51677 -0.0135087 1.58556 1.00067 
464 1 1.49692 4.15643 1.26526 -0.353819 0.267228 -0.537324 
465 1 3.06943 6.52752 6.49176 -0.865396 1.35513 -0.175087 
466 1 2.75336 5.82656 5.95431 0.416624 0.1556 0.901192 
467 1 1.92189 7.95997 8.84546 0.416373 0.582425 -0.322944 
468 1 3.14053 0.902413 5.90223 -0.498464 0.762136 1.2166 
469 1 1.75149 7.357 4.50737 0.378253 -1.54279 -0.77996 
470 1 0.557039 2.28882 8.90823 0.147413 -0.563271 0.0250925 
471 1 3.91963 2.67155 2.29322 0.616437 0.938131 0.0885057 
472 1 2.89357 4.63487 3.20707 -0.822773 0.117219 0.0651747 
473 1 8.24132 7.52957 2.19179 -0.0993147 0.224825 0.0571005 
474 1 8.10722 4.00118 1.37083 -0.0840482 0.82073 -0.060951 
475 1 0.596126 3.72551 2.73552 0.912018 0.935726 0.955717 
476 1 5.25989 2.18953 8.27451 0.141763 -0.347879 -1.56082 
477 1 0.948389 8.66219 6.53387 -0.221465 0.351431 -0.195385 
478 1 9.22956 0.496083 2.4274 -0.862363 -0.286248 -0.439275 
479 1 6.89172 6.69518 8.22244 -0.00899921 -0.0411417 -1.12037 
480 1 8.41296 4.05556 2.82387 -1.00889 -0.0788796 1.33278 
481 1 6.21302 7.73419 0.787014 -0.292611 0.0100105 0.73895 
482 1 0.381903 0.939537 1.27079 -0.677097 -1.24229 -1.25536 
483 1 5.71133 6.95673 0.431761 0.318147 0.446974 -0.523736 
484 1 2.03615 4.40839 6.53732 -0.758715 0.213728 -1.04676 
485 1 3.16057 8.62004 7.99858 0.20054 0.512248 -0.621748 
486 1 2.36334 5.95414 6.8401 0.825355 -0.331992 -0.509523 
487 1 4.77553 2.98381 5.50544 -0.406761 -0.270625 0.190266 
488 1 3.36259 5.56674 6.63153 0.870313 -0.555045 1.63801 
489 1 2.32647 5.96751 0.837949 0.337698 -0.386775 -0.836039 
490 1 6.43084 3.66959 4.37758 -1.33785 0.0509379 -0.160703 
491 1 7.41478 9.17874 4.9471 0.0774373 -1.10479 0.0550263 
492 1 1.01261 8.94763 1.95428 -1.23258 -0.484414 0.282017 
493 1 1.05147 8.84881 0.091263 -0.237206 0.547397 -1.03508 
494 1 8.84407 0.716187 4.8754 1.30751 -0.156957 -0.949758 
495 1 8.63764 8.15674 6.15339 1.79028 -1.6349 0.654209 
496 1 2.83067 5.95852 2.73743 -1.56623 -0.141097 0.690109 
497 1 8.63088 6.99074 4.60676 -0.252532 -0.426704 0.583447 
498 1 8.35419 6.52185 6.08705 -0.159695 -0.444341 1.61593 
499 1 4.64521 0.987358 2.24216 0.147665 -0.312379 -0.183681 
500 1 5.57454 0.451289 0.618863 0.452351 -1.30904 0.0882154 
501 1 3.69824 3.00163 9.15472 0.512452 0.681296 -0.579041 
502 1 1.1864 8.19188 4.426 0.352938 -0.498487 0.172118 
503 1 5.43282 3.29962 7.07433 0.496234 -0.397352 -2.32928 
504 1 2.80275 3.46527 7.92689 -0.608424 0.0962333 -1.17227 
505 1 4.93252 7.465 5.85797 -0.335227 -0.218888 -1.26855 
506 1 5.35228 4.39873 0.647726 0.293396 0.990925 -0.205646 
507 1 0.817013 4.83374 7.25519 0.221667 0.188246 -0.302032 