ITEM: TIMESTEP
1876
ITEM: NUMBER OF ATOMS
1000
ITEM: BOX BOUNDS pp pp pp
0.0000000000000000e+00 9.4000000000000004e+00
0.0000000000000000e+00 9.4000000000000004e+00
0.0000000000000000e+00 9.4000000000000004e+00
ITEM: ATOMS id type x y z vx vy vz 
1 1 7.59773 3.58036 3.55951 0.336721 0.186611 -1.03265 
2 1 8.58898 5.34774 1.86277 -0.330333 0.316224 -1.33844 
3 1 6.16662 2.69598 0.699991 -0.844743 0.985669 0.454682 
4 1 0.681204 2.07906 0.00431038 -0.657863 0.741253 1.16237 
5 1 5.82149 9.00955 1.3132 -0.417828 -0.787959 0.0217196 
6 1 7.6193 0.792123 4.87037 0.091055 -0.725938 -0.515065 
7 1 7.02061 6.39021 8.93315 1.21782 -0.357143 -0.0343435 
8 1 5.54203 0.273861 9.2624 -0.220891 -0.0310122 1.08525 
9 1 2.50097 3.54737 4.1356 -0.86041 -0.430762 0.896029 
10 1 4.2907 4.37321 1.01749 1.27521 -0.278493 -0.255558 
11 1 5.63799 2.715 8.99162 0.466955 -0.561403 0.713778 
12 1 6.61329 0.985221 6.79519 -1.19992 0.0540001 -1.2874 
13 1 4.51546 7.57582 2.86021 0.830384 -0.267698 0.255976 
14 1 4.45138 4.16621 5.49418 -0.511777 -0.328566 0.868672 
15 1 8.66584 5.44598 6.76794 0.813456 1.68696 -0.157207 
16 1 7.44838 0.631438 1.60841 0.988801 1.46427 -1.55418 
17 1 0.524435 4.91469 9.00697 -1.63431 -0.466647 -0.550451 
18 1 7.13313 9.39582 0.2491 0.986559 0.486896 -1.26424 
19 1 7.19683 8.06504 6.96171 0.175971 0.134037 0.276367 
20 1 8.22866 1.21649 1.55753 -0.572186 0.0805488 -0.0489035 
21 1 0.724588 5.55048 4.94835 -0.310353 -0.0903929 -0.00315468 
22 1 1.3446 4.98468 4.44554 1.57606 0.386454 -2.0094 
23 1 6.43465 1.00884 3.63654 -0.53944 -2.11137 -0.431159 
24 1 0.805358 1.83207 7.82274 -0.445499 0.158015 0.479128 
25 1 4.48998 8.52087 2.82599 -0.476105 -0.428189 -0.355544 
26 1 6.93371 0.507069 2.37858 1.80164 0.143263 -0.1471 
27 1 4.03072 2.08251 4.33266 -0.176898 -0.48064 -0.329132 
28 1 1.90795 0.24928 2.17272 -0.730239 -0.525537 0.68622 
29 1 5.68026 6.48888 0.936723 1.22167 -0.209454 0.338683 
30 1 5.06915 0.27919 6.73136 -2.05244 -0.848581 0.48871 
31 1 5.93666 5.0058 3.7329 -0.0114544 -0.300627 0.359048 
32 1 4.18955 4.03462 7.11775 -0.222931 -0.402206 -0.348406 
33 1 1.78373 3.07174 3.05076 -0.889663 0.118816 0.0800082 
34 1 7.93128 8.51493 3.03619 -0.917963 -0.186581 -1.89072 
35 1 7.30362 4.11627 7.42074 0.608459 -1.74191 -1.02861 
36 1 1.99623 3.7973 6.58392 0.168068 -0.290187 0.346834 
37 1 3.272 1.57678 4.11183 1.47062 -0.16521 -0.0659699 
38 1 6.88843 1.31047 4.484 -0.718025 -0.644716 -0.33291 
39 1 3.39671 6.73531 7.04796 0.351793 0.490352 -1.88589 
40 1 8.28931 8.41745 3.95948 -1.4257 0.206075 -1.37945 
41 1 6.24352 4.87045 5.46293 0.94666 -1.53956 -0.903776 
42 1 3.55982 1.32143 6.5369 0.895201 0.32375 0.136899 
43 1 9.11356 8.38396 6.15164 0.610316 1.30102 0.0840686 
44 1 8.99586 1.34518 9.27562 -0.772142 0.349639 0.243317 
45 1 5.23804 2.12759 4.06129 0.606647 -0.566067 -0.205576 
46 1 6.91576 4.16961 9.34374 -0.355393 -0.020741 0.539518 
47 1 7.85298 6.72588 6.01269 -0.515147 -0.546995 0.866734 
48 1 3.56558 3.82572 2.57171 1.21062 0.564039 -0.651458 
49 1 9.08892 4.83316 8.56017 0.39004 -0.352129 -1.34118 
50 1 0.155663 1.80045 3.79476 -1.08121 0.703795 0.187356 
51 1 6.61623 3.29988 3.38752 -0.397077 -1.40199 -0.648773 
52 1 5.96484 6.97456 4.07393 -0.902617 1.80529 -0.048241 
53 1 7.89134 0.550351 0.765528 -0.494539 0.674936 -0.0383175 
54 1 7.73133 4.52176 3.36628 0.0954679 -0.301548 -0.0189536 
55 1 7.59098 9.09875 3.7808 -0.919458 0.324389 0.828159 
56 1 5.58166 7.87675 7.37739 0.0294268 -0.484213 0.246859 
57 1 8.06391 7.36655 1.76246 -0.456855 0.0232167 0.122405 
58 1 7.15042 0.744282 6.06107 -0.174203 -0.522615 0.3637 
59 1 4.70565 6.53162 9.07416 0.426021 0.167443 -0.471041 
60 1 7.75395 7.64306 3.80226 0.165031 -0.146208 -0.652532 
61 1 2.26069 4.2911 5.80861 0.735865 1.44815 0.146659 
62 1 0.621169 0.894167 4.86511 -1.11733 -0.282945 0.226445 
63 1 5.67983 5.8453 5.33378 -0.299429 0.833088 0.313344 
64 1 5.91051 6.2632 2.71067 0.619411 -1.17202 -0.0476961 
65 1 8.94924 1.82468 6.91654 0.463704 -1.28257 -0.328728 
66 1 4.77154 6.6263 5.48518 -1.00132 1.97166 -1.64823 
67 1 7.92715 3.51902 5.51181 -0.6621 0.0350036 -1.95593 
68 1 8.79834 1.2573 2.3369 -1.62171 0.810274 0.795889 
69 1 9.29545 7.41532 5.75016 -0.349997 -0.321027 -0.142072 
70 1 6.27465 6.21876 4.64429 0.0181398 -1.23979 -0.397366 
71 1 3.99607 1.22585 0.0234295 2.01067 0.538868 0.677525 
72 1 9.19744 6.48494 8.9332 -0.165115 0.787273 0.0806059 
73 1 0.25493 5.79286 3.0921 -0.242917 -1.4918 -1.01908 
74 1 1.39742 2.22151 3.17719 0.155065 -1.08098 -0.685458 
75 1 8.10649 4.80456 7.25832 -1.88816 0.169395 -0.373301 
76 1 3.48218 1.02163 7.56253 -0.213821 1.34638 0.738773 
77 1 2.69433 6.08966 6.98549 0.223753 0.619518 0.351646 
78 1 8.21131 8.28153 2.12409 -0.103851 0.159603 0.907747 
79 1 6.6192 1.80525 0.679715 -0.672268 -0.721397 0.0264736 
80 1 7.34363 2.66606 3.54865 -0.0258453 -0.287795 -0.0131616 
81 1 6.58582 9.08567 4.23462 0.197196 1.41103 0.493754 
82 1 6.90327 5.52647 8.47106 1.47874 0.336949 -0.383791 
83 1 2.97089 6.62482 3.55481 -1.47462 -0.640519 -0.941533 
84 1 8.93474 5.73376 8.33437 1.08867 0.24928 0.197606 
85 1 8.25571 8.7598 4.87198 0.48314 -0.182165 -0.340641 
86 1 1.6196 1.68918 3.95579 -0.16372 -1.28466 0.12079 
87 1 2.85947 5.52416 2.53374 -0.175472 -0.930926 0.449947 
88 1 4.94308 5.34259 6.82564 0.652762 0.0979468 1.05872 
89 1 6.11659 4.09727 1.74201 0.252634 -0.53787 -0.00480273 
90 1 7.25858 1.8084 3.17765 0.104268 -0.476182 0.611348 
91 1 6.79946 8.98575 2.56345 -1.57567 0.26517 0.221399 
92 1 4.03745 0.497711 6.89657 -0.608167 -0.587625 1.18361 
93 1 8.63819 2.15204 1.94699 1.00525 -1.26789 -0.914621 
94 1 7.86197 8.26421 7.61201 -0.00225411 1.00048 1.44315 
95 1 8.01743 1.79976 7.02761 -0.634506 0.286321 -1.41164 
96 1 8.42092 2.89484 4.94665 -0.749717 -0.304711 -0.0461154 
97 1 7.8393 2.64273 8.36882 -1.39841 -0.539188 1.0227 
98 1 0.965688 9.16588 6.77776 1.4268 0.521218 0.0882848 
99 1 9.13789 0.56235 8.72751 0.977266 0.552365 1.55343 
100 1 0.711735 0.682634 6.50132 0.303721 0.865243 -0.936986 
101 1 6.53789 2.43377 3.02878 0.383301 1.20288 0.518335 
102 1 5.46441 3.49054 7.67364 0.464601 -0.383416 0.108171 
103 1 1.17329 4.92993 1.02923 1.71181 -0.057102 -0.618206 
104 1 6.31985 7.89386 6.6319 -0.013038 -0.529961 -1.02937 
105 1 3.68722 2.68497 9.16377 -0.00523172 0.66422 -1.10805 
106 1 0.0457323 4.07206 3.84841 -0.542525 0.466872 -0.116107 
107 1 2.26123 2.33488 7.01566 0.149006 -1.06455 1.60271 
108 1 2.62851 7.38579 4.04179 0.233112 0.0774535 -0.0185506 
109 1 6.51785 9.31608 6.02522 0.138686 -0.900876 0.0755942 
110 1 6.28591 4.88374 0.262034 0.338434 0.41072 0.724696 
111 1 6.18276 6.46341 7.37791 -0.404795 -1.0324 -0.102396 
112 1 3.75181 3.20617 6.84395 -0.423739 0.250715 -0.124373 
113 1 1.69158 8.94949 4.94801 1.1296 -0.382898 -0.581869 
114 1 0.802254 7.10161 6.51816 0.109735 -1.32479 -0.339708 
115 1 0.679327 5.89413 8.92095 -0.0644336 0.658215 -1.27328 
116 1 5.00298 5.86404 6.01361 -1.03073 -0.428303 0.401773 
117 1 7.21758 4.91744 6.91915 1.14781 -0.301305 0.174483 
118 1 2.01607 1.36115 5.56777 -0.630133 0.557063 0.896409 
119 1 6.45481 2.9708 2.2062 1.2789 0.944939 0.679844 
120 1 5.11803 3.53656 9.21219 -1.69309 -0.479978 -0.958838 
121 1 6.46637 6.33165 0.386235 -0.458906 0.430529 -0.415514 
122 1 2.42357 7.35191 4.96252 -0.170165 -0.038295 -0.250829 
123 1 7.8707 7.28661 0.0608407 -1.04065 1.20631 -0.406383 
124 1 6.0765 1.03027 0.482188 2.43418 -0.105105 -0.54125 
125 1 0.177714 5.2711 6.75754 -0.561874 0.440743 -1.11264 
126 1 1.21079 3.43452 3.76276 1.05726 -1.0518 -0.481181 
127 1 6.88611 3.29284 0.389717 0.7584 0.87219 -0.648344 
128 1 6.7452 5.64764 5.22441 0.242997 -1.02714 0.777691 
129 1 3.14394 8.75682 3.85605 -0.876367 0.0110263 0.889687 
130 1 5.98816 1.11034 7.47069 -1.17299 0.331559 0.128445 
131 1 0.16473 1.52714 0.610246 1.01886 -0.476242 -0.269781 
132 1 2.60424 9.0846 4.61387 0.378466 -0.394708 -0.760012 
133 1 8.09847 6.2943 5.15065 0.717956 1.31178 0.871513 
134 1 2.9572 6.10143 8.64198 0.138434 0.248827 0.967356 
135 1 9.18016 4.65207 2.2689 -0.442159 -1.72 0.353893 
136 1 2.62706 6.8384 6.41912 0.378013 -0.424043 0.603563 
137 1 7.47215 2.8591 5.02571 -0.73944 0.538554 -0.413966 
138 1 4.97645 4.31049 7.54979 0.0976139 1.08365 0.593318 
139 1 6.60565 5.34335 4.33221 -0.069064 -0.654299 0.157257 
140 1 3.64422 5.58337 9.06628 -0.263232 0.893819 -0.292304 
141 1 8.98281 3.50476 6.71822 1.21779 -0.0693987 0.154266 
142 1 2.47404 1.16169 3.76926 -0.262627 1.16512 0.57935 
143 1 2.58469 2.87396 3.50727 -0.460773 0.16221 0.391915 
144 1 3.75898 5.20517 8.13184 -0.0577811 0.111307 -0.569559 
145 1 5.60305 2.66578 6.32896 0.49533 -1.12688 -0.497478 
146 1 1.86609 4.22266 4.27019 0.0105907 0.796731 -0.239743 
147 1 0.854176 3.54687 7.9164 0.839493 0.489291 -0.673113 
148 1 9.23026 6.88968 3.27231 0.0605497 -2.22875 -1.38955 
149 1 3.36467 2.00092 5.89336 0.472897 0.539882 -0.318437 
150 1 9.00438 0.53509 3.95306 -0.516424 -0.723687 0.678579 
151 1 4.37456 9.24691 4.71321 -0.942126 -0.927713 -0.592703 
152 1 5.85793 4.84159 1.14804 0.519847 -0.591077 0.532631 
153 1 4.86434 6.62763 1.58516 0.90269 0.16956 -0.717437 
154 1 8.93225 5.78869 5.20667 1.20533 0.717847 0.243539 
155 1 5.23325 2.77948 0.446223 1.07688 0.301836 0.713848 
156 1 4.79433 5.16627 2.55994 0.0630814 0.974324 -0.378419 
157 1 0.592054 0.475713 3.04928 0.645946 -0.648614 0.689124 
158 1 6.18972 7.52068 1.82313 -0.48416 0.444037 -0.616445 
159 1 2.41439 4.21129 7.48654 0.129737 1.60411 -1.05709 
160 1 3.45173 2.99093 3.13451 0.163589 -1.31056 0.437932 
161 1 0.424492 2.20391 7.02379 -0.510301 -0.49245 0.303462 
162 1 4.40566 8.01094 6.2919 0.540075 -0.113706 -0.372775 
163 1 4.60663 0.66033 5.13211 1.29257 -0.860933 1.33533 
164 1 3.84314 1.22895 4.79542 -1.96488 -0.183749 -0.304272 
165 1 7.14024 3.2627 5.96044 0.829033 1.4098 -1.08344 
166 1 7.05895 5.07335 5.99378 -0.572936 1.17201 -0.412037 
167 1 7.45927 1.40972 0.952697 -1.41366 -0.0260273 1.7718 
168 1 3.72057 7.12395 7.92033 -0.799436 -0.29725 1.03835 
169 1 6.26487 1.45497 5.23949 -0.921521 0.488957 -0.09652 
170 1 2.66279 9.01168 2.22353 0.510403 -0.365187 -0.463416 
171 1 4.09426 7.04978 4.68099 -0.460931 -0.495037 -1.63898 
172 1 4.70324 8.29526 7.15135 0.156867 -0.0171748 0.459184 
173 1 5.86694 8.05672 9.37332 0.886714 -0.31178 0.216852 
174 1 1.80182 3.80556 9.29541 1.06493 -0.412154 1.6301 
175 1 4.04515 2.72254 8.24434 0.595761 -1.4945 1.4231 
176 1 3.67559 7.83615 2.46545 0.416362 0.538256 0.513786 
177 1 5.09736 6.39972 6.83401 -0.376972 0.388988 -1.17597 
178 1 5.63268 1.74578 5.99017 -1.24057 -0.451382 0.428921 
179 1 5.4118 4.97445 9.19543 1.67389 -0.727567 0.0458199 
180 1 3.22208 4.34983 8.0678 -0.354607 -0.620707 -0.460706 
181 1 6.40592 6.48443 5.52993 -0.307793 -0.401084 -1.28811 
182 1 3.93107 7.56621 6.99017 -0.855155 0.0762988 -0.715737 
183 1 1.92201 2.14167 0.341214 -0.362703 1.51402 -1.60712 
184 1 3.20589 2.06725 4.93055 0.476926 -0.15582 -0.961252 
185 1 2.74368 2.89146 1.63081 1.47381 1.37516 -0.173065 
186 1 4.61519 4.30144 0.0742886 -1.28328 -0.0257199 0.286086 
187 1 3.14616 0.0782197 2.92929 -0.0924808 0.181657 1.57249 
188 1 9.28545 1.93775 7.76112 -0.871952 0.182816 -0.147097 
189 1 3.52519 4.352 4.56004 -0.569659 -0.663348 0.414904 
190 1 0.593189 5.23176 5.86721 -0.26451 -0.466488 -0.251654 
191 1 6.85047 7.42567 2.82892 0.834635 -0.617493 -0.799195 
192 1 3.44292 5.52882 1.69979 -0.327639 -0.414619 0.650114 
193 1 5.98715 1.59069 4.34284 -0.68937 -0.0428632 -0.757813 
194 1 3.80364 1.11551 8.47337 -1.13826 -1.92934 -2.1588 
195 1 0.0922308 4.05713 4.78194 1.68988 -0.998668 -0.254817 
196 1 6.77549 2.71801 7.42872 0.838979 -0.630758 0.865055 
197 1 3.22253 3.91015 7.14803 -1.02956 -0.410014 -0.43218 
198 1 4.97374 8.92501 2.08906 0.981519 -0.213975 -1.11854 
199 1 5.06383 7.836 0.508213 -0.0564494 0.928513 0.940392 
200 1 6.0274 2.5485 4.57395 0.154853 -0.778057 -0.000496411 
201 1 3.20636 2.34408 2.38714 -0.0786636 -0.542492 -0.934642 
202 1 0.431424 3.2844 4.28508 1.45962 -0.158875 0.271685 
203 1 0.806957 1.76545 4.50781 -0.302719 1.73801 0.812252 
204 1 8.48962 8.16559 6.86786 -1.34871 -0.810588 1.01648 
205 1 5.074 2.75368 8.18988 -0.340065 0.567446 -0.722299 
206 1 5.89922 4.26 6.14508 1.13194 -0.236613 -0.581174 
207 1 3.28833 2.76731 0.836315 -1.09154 0.538085 0.655231 
208 1 4.18883 3.55442 3.2547 1.6483 0.390831 0.152796 
209 1 5.31415 6.93895 7.58138 -0.690349 -0.354601 -0.418735 
210 1 6.18904 2.37993 5.6014 0.503205 1.05787 -0.731992 
211 1 2.98346 3.6411 1.0753 -0.428504 1.39913 -1.36595 
212 1 4.29942 5.20805 3.39188 0.212649 -0.960285 -0.829832 
213 1 1.95585 3.78271 2.41584 0.413926 -2.07851 0.579285 
214 1 0.498498 2.54437 5.43174 -0.598812 0.136505 1.56072 
215 1 2.22077 6.53765 4.38854 0.724142 1.12797 -0.344015 
216 1 7.00345 5.91189 3.69731 0.358809 -0.635358 -0.61049 
217 1 3.68376 1.9169 7.89998 1.21978 0.592567 0.229566 
218 1 3.58457 6.22174 2.34788 -1.5953 1.91295 0.209556 
219 1 5.37302 6.00261 4.43026 -0.204288 0.385562 -0.931468 
220 1 2.63049 5.29424 3.43581 0.360085 -0.810769 0.0275812 
221 1 8.01814 3.32742 6.43237 0.237444 0.807883 -0.432766 
222 1 1.10587 2.29369 0.794315 -0.801025 -0.828665 -0.380694 
223 1 1.11111 0.997487 5.66768 -0.164747 -0.808306 0.696801 
224 1 8.57647 8.88132 7.58295 -1.18926 -0.496304 0.289707 
225 1 7.57044 6.81214 2.40548 -1.01355 -2.17777 -0.362773 
226 1 4.38517 5.83165 8.51375 -1.3505 0.597035 0.00411988 
227 1 7.09883 8.88019 7.53782 0.600353 0.93866 1.42794 
228 1 4.97123 4.95696 0.69288 -0.594713 0.381616 1.03315 
229 1 3.95785 4.94818 5.21548 -0.248981 -0.23014 0.753716 
230 1 5.6371 5.03998 7.40582 0.235784 -0.274391 1.2941 
231 1 7.74065 0.202955 8.96363 -1.02434 1.26986 0.555891 
232 1 2.28208 5.12228 4.38905 0.779231 -1.28014 1.22311 
233 1 1.64675 1.19255 6.44324 0.459914 1.31882 1.1064 
234 1 8.28522 8.59816 1.13117 -1.53247 -0.135392 -0.445509 
235 1 0.144636 2.32973 1.09117 -1.31807 -0.591416 -0.730827 
236 1 8.5154 7.05923 2.59023 0.119899 0.880439 -1.77384 
237 1 1.52721 1.20439 4.77085 0.332352 -0.747044 0.164232 
238 1 0.275905 6.29759 8.11169 -0.160743 -0.507736 1.24614 
239 1 6.0261 7.25381 0.474746 -1.32762 -0.0137426 0.4971 
240 1 3.47285 3.62149 3.91441 -0.241143 0.633058 -0.843204 
241 1 6.66353 8.82456 5.18872 -0.476844 0.973313 -0.589019 
242 1 3.44115 5.10244 3.88631 -0.536979 -0.226675 0.0852511 
243 1 7.4614 1.33108 2.29721 -0.0713387 0.793886 -1.73626 
244 1 3.17282 4.52428 5.59125 0.459968 0.447238 0.304599 
245 1 6.15616 8.08114 8.48128 -0.382547 -0.122248 -0.602177 
246 1 1.29067 8.75207 5.8908 -0.767334 0.870222 1.33361 
247 1 7.91666 2.20092 2.5747 -0.104093 -0.762849 0.369763 
248 1 8.19377 0.180835 5.31176 0.528991 -0.229941 -0.518496 
249 1 5.62193 1.07288 6.6133 -0.031587 -0.247937 0.0312466 
250 1 2.43671 4.56894 2.82177 -0.28293 2.00894 -1.77127 
251 1 6.86364 0.66377 0.880707 -0.521336 0.942993 -0.593491 
252 1 1.27612 0.316723 4.5132 -1.58099 -1.30336 -0.35016 
253 1 7.26562 0.875965 3.17485 0.43986 0.720416 -0.273066 
254 1 2.58389 4.29311 4.87015 1.44353 -0.940472 1.13557 
255 1 1.56959 3.19824 8.48521 -1.5454 0.0438626 0.157179 
256 1 0.993069 2.79062 2.57028 -0.284404 1.05819 0.0610502 
257 1 7.76829 8.82992 6.80677 -0.262612 1.11001 -0.278691 
258 1 4.22217 1.46232 7.18121 0.579309 0.57317 0.345775 
259 1 5.01683 3.66605 2.80279 -0.817096 -0.35326 -0.905294 
260 1 3.38576 6.20509 6.25241 -1.74881 0.752315 0.101717 
261 1 4.17649 1.94035 8.79861 0.64252 -0.3792 -0.246036 
262 1 7.62656 5.43409 3.15396 -0.809055 0.0314279 -0.682007 
263 1 4.30752 4.3989 2.80336 -0.795018 1.01878 0.0672655 
264 1 9.00339 3.00492 1.68024 1.30672 -0.544193 0.905201 
265 1 4.17938 5.34746 1.12462 1.00753 -1.69926 0.259255 
266 1 2.84012 0.82416 6.89122 0.951914 -0.0677826 -0.0799101 
267 1 4.51052 7.46648 1.26704 0.803799 0.90193 -0.713388 
268 1 7.80343 5.93924 8.38996 -0.887751 -0.462733 0.00969583 
269 1 4.58135 3.22812 7.46551 0.252162 1.03136 -0.457853 
270 1 2.40377 8.21386 3.58378 0.263041 -0.821049 -0.0623451 
271 1 2.15523 1.40896 7.23771 -0.592579 -0.289906 -0.24007 
272 1 3.84477 5.16873 6.38612 -0.118111 -0.824549 -0.106626 
273 1 2.82669 4.12376 8.91872 1.05777 -0.579198 0.579585 
274 1 9.06296 4.9013 6.05554 0.868346 0.371201 0.313172 
275 1 5.06111 1.86371 6.79501 0.330743 0.0514098 -0.0677221 
276 1 2.6838 4.4651 6.60908 0.920912 -1.3146 -1.50781 
277 1 8.76548 6.59275 5.78196 -0.174979 -0.38397 -0.0357323 
278 1 8.84883 1.23612 5.41724 -0.640742 0.486282 -1.60476 
279 1 5.7848 3.51012 8.53801 -0.72595 0.498563 0.182943 
280 1 9.3237 3.5209 8.26036 -0.212816 0.479117 0.537256 
281 1 5.66717 2.86866 2.76531 0.782594 0.430117 0.507052 
282 1 7.2108 3.33759 6.9195 1.1254 0.408868 0.282516 
283 1 4.26864 5.98533 6.58957 2.08499 0.390332 1.0186 
284 1 0.0754066 8.95092 7.15643 -0.103313 -0.656673 -1.36694 
285 1 9.11268 2.26592 0.0729771 -0.935938 0.397783 0.835564 
286 1 1.0814 3.8772 6.96931 0.403887 1.04405 2.49413 
287 1 7.409 9.23843 4.75393 0.446775 -0.224336 -1.64259 
288 1 5.36747 5.57449 3.18338 -0.126716 -0.392961 -1.92499 
289 1 4.74205 9.23526 3.8231 -0.605881 -0.560809 -0.898732 
290 1 7.00937 3.7761 2.07128 -0.469576 1.06915 0.646558 
291 1 8.89821 2.94312 0.698759 -0.0304125 -0.494484 -0.618111 
292 1 3.50562 8.86149 4.80478 1.40303 -0.716917 -0.900963 
293 1 5.04346 5.14712 4.0267 0.0325221 0.600396 -0.0111211 
294 1 6.86645 4.90804 3.49432 0.0966862 -0.586416 0.873708 
295 1 2.37777 0.649475 6.08401 0.46715 0.980628 0.533354 
296 1 7.13549 2.33177 5.74192 0.566529 1.04251 0.353389 
297 1 7.60146 2.18072 4.36468 -0.247846 0.389087 -0.0289216 
298 1 3.24984 5.50669 5.62813 -0.0192331 -1.64919 0.587455 
299 1 7.53419 8.38896 5.31599 0.348459 -0.26085 0.604264 
300 1 2.93536 5.34577 6.47588 -0.482037 0.961872 -0.255163 
301 1 5.77578 5.24873 2.29907 0.564761 0.000246587 -0.100739 
302 1 6.16134 7.20786 7.99793 -0.450341 -1.39173 0.153821 
303 1 6.77536 7.85303 5.43383 0.642259 -1.37956 0.256431 
304 1 0.35228 6.88576 7.35539 0.788403 1.12114 -0.434767 
305 1 3.20074 9.03953 5.69835 -0.434681 -0.310111 0.961547 
306 1 8.86275 3.52578 3.32747 0.211729 0.106774 -0.331582 
307 1 5.4906 0.987028 4.99078 1.61239 -0.562096 -0.208604 
308 1 3.89088 9.04243 3.30002 1.01698 0.994977 0.0746854 
309 1 0.175529 4.08535 2.9225 0.609359 -0.133801 -1.03836 
310 1 7.37721 6.46361 1.5416 -0.0220615 -0.371292 0.080737 
311 1 4.45978 7.38991 8.7072 -0.431747 -1.10046 0.249992 
312 1 5.53045 2.98318 5.26435 0.494548 1.47325 -0.0565216 
313 1 0.238205 1.07622 8.0834 0.437179 -0.747865 0.331179 
314 1 2.23141 2.94659 6.16712 0.716222 0.689373 -1.08466 
315 1 5.90712 1.78139 3.37342 -0.982974 1.07947 0.977963 
316 1 6.93966 7.13665 0.18691 -1.31553 1.9904 0.249774 
317 1 7.11324 7.41551 1.82852 0.569433 0.650157 -0.192957 
318 1 7.01594 4.97312 2.53072 0.805613 2.0288 0.838038 
319 1 2.29519 0.587472 2.99679 0.643272 2.13983 0.672193 
320 1 6.43595 1.91164 7.75476 -0.967721 -0.716074 0.933304 
321 1 0.92773 9.28458 3.75681 -0.106737 1.18807 0.0860561 
322 1 1.91276 3.95056 3.36487 0.135718 0.250199 0.810142 
323 1 2.69433 7.5767 5.83189 0.735245 -1.14023 -0.221573 
324 1 2.49021 2.09378 4.04163 0.815542 -0.0372625 0.640556 
325 1 3.82143 2.278 6.94486 -0.688836 -0.998362 0.13506 
326 1 7.29002 3.07115 2.69312 0.366911 1.35738 0.15723 
327 1 1.09006 2.3625 8.58465 -0.221441 -1.35187 0.262792 
328 1 3.54447 1.97576 0.381458 -0.0169046 0.379759 -0.0769833 
329 1 5.00941 6.87784 4.27829 -0.613427 0.186537 1.07255 
330 1 4.93148 5.1365 8.03581 -0.67295 1.38462 0.247462 
331 1 6.59556 3.30821 1.31518 0.209392 -0.40972 0.0483733 
332 1 1.23749 1.09223 7.30691 0.635219 1.32739 0.658096 
333 1 8.11365 2.10343 3.54066 -1.24008 0.00898561 1.1302 
334 1 3.56665 5.73577 7.13581 -0.653674 -0.370199 0.268499 
335 1 6.50006 8.03336 7.58533 0.148676 -0.121195 0.16749 
336 1 5.5481 5.12102 6.1059 0.147012 0.722993 -0.0281534 
337 1 4.55006 3.20372 5.42153 0.109045 1.81753 -1.48704 
338 1 2.05858 6.00154 7.67904 -0.197219 0.70991 -1.9847 
339 1 5.26419 0.611928 5.85076 1.34553 0.945528 -2.02272 
340 1 0.778959 2.5162 3.81433 1.78416 0.680213 -0.0627657 
341 1 0.324043 1.60469 5.45415 0.226523 0.217471 -0.660381 
342 1 0.165432 1.93426 8.64306 -0.433306 0.702144 -0.822967 
343 1 0.457159 5.32934 8.15662 0.224428 -1.78558 1.11813 
344 1 1.56746 1.95467 2.2663 0.928685 0.4618 0.10251 
345 1 9.04816 7.99799 7.60958 -0.156951 0.0372344 -0.224669 
346 1 5.01257 0.102826 8.37284 -0.453068 -0.238951 -0.0423398 
347 1 0.382596 0.779049 1.18901 -0.105947 0.828739 0.705602 
348 1 6.53923 6.84189 1.22823 -0.658812 -0.425957 -0.993532 
349 1 8.03543 4.93646 6.26164 0.356674 0.380974 -0.554701 
350 1 9.24314 5.59127 4.29779 -1.05474 -1.8179 0.842846 
351 1 1.9467 0.440737 6.97802 -0.380326 0.373073 0.377181 
352 1 5.17512 4.21854 1.36097 -0.609072 0.286533 -0.665801 
353 1 8.92385 4.4749 6.88587 0.474374 -0.347787 0.950908 
354 1 4.7528 9.1011 9.21045 -0.889437 0.301344 0.313285 
355 1 1.95441 6.58102 5.38081 -0.193646 -0.0613213 0.861713 
356 1 0.0059181 6.6214 5.06518 -0.184351 -0.647832 -0.406045 
357 1 7.74187 7.85324 8.67908 1.08513 1.20691 -0.633246 
358 1 4.9783 4.38454 6.55814 -0.408919 0.131289 -0.172455 
359 1 6.29117 5.6912 6.02856 0.735547 -0.567525 0.15046 
360 1 8.06625 9.08562 0.331003 -0.696557 0.148858 -0.450008 
361 1 8.56434 9.1275 8.86932 1.69231 -0.190962 -0.841815 
362 1 1.59218 4.0788 5.20469 -0.0833944 0.801854 0.105389 
363 1 2.63643 5.95749 5.02613 -0.29195 0.480781 -0.371757 
364 1 8.24445 6.41852 9.09059 -0.820746 1.26284 0.756861 
365 1 7.56994 4.78302 8.82018 1.04995 -1.01551 0.131168 
366 1 0.70669 1.67825 2.43136 0.564862 0.222655 0.0281112 
367 1 5.76993 1.96294 0.174791 0.674947 -0.207841 -0.688432 
368 1 6.58827 2.59543 6.47243 0.0696969 -0.192344 -0.23185 
369 1 5.9132 9.01171 2.27935 -1.08159 -0.278876 1.51784 
370 1 6.06655 1.98345 8.59981 -1.18426 0.384466 -0.131892 
371 1 3.74719 3.50422 7.79038 0.895123 0.702065 -0.677841 
372 1 9.27153 7.21357 8.14231 -1.18957 -1.42203 -0.728515 
373 1 0.39663 4.36503 8.16977 -0.731744 0.37944 0.510054 
374 1 5.39314 6.4915 3.48582 0.33974 0.0974658 -0.410561 
375 1 7.20244 4.23829 4.12575 -0.0969628 -0.679474 0.795774 
376 1 8.26609 5.06015 8.16858 -1.0673 -0.535882 -0.244474 
377 1 0.211675 2.37805 2.04517 -0.193811 -0.261469 -1.36021 
378 1 8.08205 7.85659 4.6805 0.342752 0.838859 -0.274279 
379 1 4.91126 2.39471 5.75108 0.305179 -0.120399 -0.873406 
380 1 2.93322 3.60128 6.23577 0.521166 -0.184508 0.948158 
381 1 3.06342 2.67932 8.45883 0.885132 0.914541 1.38079 
382 1 4.58732 1.51074 8.0588 1.28119 -0.0414064 -0.401307 
383 1 7.00506 8.37552 3.33862 0.436206 1.16763 0.865937 
384 1 2.72489 0.201326 3.77841 -1.3949 0.878221 -1.50973 
385 1 3.61893 7.25516 3.88421 0.483764 -0.0419512 1.25855 
386 1 8.87805 4.70748 4.40796 -0.179415 -0.401407 0.332745 
387 1 3.54632 8.12901 5.86389 0.550072 -0.180288 0.265221 
388 1 5.14669 7.4375 2.1041 0.0609452 -0.0244453 1.80572 
389 1 6.04322 0.245117 6.78902 -0.667577 0.32066 1.19936 
390 1 7.20977 6.04565 5.96444 0.434855 0.285042 0.0129012 
391 1 4.39096 3.60679 6.27713 0.554507 -0.204451 -0.29179 
392 1 2.93256 5.0857 8.64897 -0.745731 0.0568243 0.683412 
393 1 4.56333 6.64989 8.12285 0.434127 0.280101 0.314023 
394 1 4.197 4.35042 8.09307 0.289943 -0.00883953 -0.260728 
395 1 6.79782 5.76444 6.8002 1.00603 0.823433 -0.116778 
396 1 7.4128 6.81117 3.38063 -0.728205 0.654703 0.0243399 
397 1 5.7414 5.14903 4.68432 0.43289 -0.12243 1.12737 
398 1 5.32983 4.39887 2.29188 -0.202897 1.7316 0.80617 
399 1 0.582557 4.94153 2.79383 0.750673 -0.384815 -0.171668 
400 1 0.524539 0.818964 3.93954 -1.61438 0.627351 0.0407098 
401 1 4.27545 1.8948 6.23659 -0.150916 0.178243 -0.214776 
402 1 3.634 4.06014 1.63914 0.819777 -0.162617 -1.37502 
403 1 8.60578 7.78655 3.26499 -0.496571 -1.31402 0.829243 
404 1 5.24185 3.68891 5.83897 -0.398836 -0.935705 0.961565 
405 1 1.71564 5.77113 4.87504 0.294672 -0.431643 0.699388 
406 1 4.08486 8.08718 4.9235 -0.303057 -1.00632 -1.15691 
407 1 8.16431 2.71352 1.26326 -0.831415 -0.373232 -0.155242 
408 1 7.32653 7.5217 7.80307 -0.760007 -1.32873 -0.645964 
409 1 8.81943 1.98596 2.93181 0.532355 -0.845662 -0.242657 
410 1 7.24929 8.18976 2.37625 0.879737 0.625264 -0.97395 
411 1 6.3666 4.43156 4.57743 0.897455 -1.06302 -0.440444 
412 1 7.8134 8.00597 6.22268 0.896177 0.136151 -0.558022 
413 1 6.70184 3.3771 8.79558 -1.26961 -0.563358 -1.39624 
414 1 0.94482 2.56366 6.26553 0.37211 0.217347 -0.127096 
415 1 6.01695 3.45721 0.092285 -0.911798 -0.00896335 0.328496 
416 1 6.80004 0.48813 5.2088 0.0573886 0.283876 0.117272 
417 1 6.68055 2.09766 3.92719 -0.906262 0.572014 -0.0135069 
418 1 6.18102 3.35344 6.01372 0.377664 1.456 0.784845 
419 1 8.01014 0.997076 5.73064 0.241824 -0.988239 -0.386779 
420 1 8.5356 7.34878 6.32469 -0.0270169 -0.534417 0.961699 
421 1 4.43216 0.693479 4.19636 0.400638 -0.794055 0.489181 
422 1 2.91239 5.58618 7.83549 0.768834 -0.886666 -0.885567 
423 1 2.31048 9.03276 3.11492 -0.408443 -1.60649 -1.94967 
424 1 4.5165 3.51859 8.45015 0.673155 0.660262 0.706461 
425 1 6.13328 8.86581 7.86014 -0.883411 1.18266 0.363792 
426 1 5.61918 6.53974 6.03777 0.0559434 -1.36608 -0.223143 
427 1 7.54407 2.51375 6.59695 -0.58295 -0.00508749 0.371519 
428 1 5.68671 5.58274 0.5382 -0.599668 -0.688212 -0.160005 
429 1 7.54627 4.139 6.46273 -0.509999 -0.262599 -0.529687 
430 1 0.359075 0.860089 2.17044 0.592043 -1.01845 0.297617 
431 1 8.21224 0.0774612 1.53051 0.337546 -0.465267 0.207748 
432 1 7.52793 5.17674 4.09007 0.102445 -0.481811 0.715359 
433 1 2.23148 2.74337 7.8977 0.862398 -0.350373 -0.448645 
434 1 0.693863 5.46415 0.374879 -0.664451 -0.858649 -0.190237 
435 1 8.83162 6.01764 3.51638 -0.248414 -0.25491 0.795943 
436 1 8.29726 5.79951 5.95956 0.0961569 0.220114 0.360837 
437 1 3.97247 1.12979 5.71817 -0.459105 1.4214 -0.497527 
438 1 6.04434 2.07787 2.27638 1.03692 -0.689835 0.726761 
439 1 1.24312 6.5149 7.2484 0.514741 0.946005 -1.79554 
440 1 2.89746 6.69336 5.52901 -1.84599 1.17398 -1.61671 
441 1 5.78643 4.16679 7.07755 -0.866933 -0.811208 -0.803568 
442 1 8.38408 6.40277 6.74029 -1.49717 1.47181 -1.75432 
443 1 7.68325 2.00452 1.63998 -0.535354 0.476045 -1.86808 
444 1 9.31567 3.1967 5.11194 0.703858 0.737709 -1.74493 
445 1 6.01857 7.91864 3.4763 1.60171 -0.566971 -1.12792 
446 1 8.45628 4.10366 6.09206 0.335335 0.829681 -0.940506 
447 1 5.45695 7.35261 1.23082 0.600738 -0.640005 1.08635 
448 1 1.56994 4.3446 1.72071 0.625396 0.205882 0.660522 
449 1 7.378 1.75022 8.57988 0.235379 -0.386733 0.242255 
450 1 0.375887 0.0234288 4.53465 0.844948 0.556484 0.742233 
451 1 3.65954 4.24172 6.35809 1.00153 0.412619 0.203836 
452 1 8.47461 4.92087 5.3409 0.490026 1.22064 -0.349946 
453 1 3.37416 7.46206 5.1755 0.838641 0.534917 0.395724 
454 1 7.63154 3.70091 8.895 -0.844931 -0.105748 -0.785192 
455 1 4.0633 4.37921 3.77013 -1.00003 -0.964705 0.324448 
456 1 8.9581 9.03738 4.31028 -0.732269 0.30121 0.456287 
457 1 3.92838 3.44755 0.992069 1.25134 -0.294165 -0.0352219 
458 1 0.382647 2.70702 8.01579 2.01874 1.52846 1.57026 
459 1 5.72716 8.68951 5.00828 -0.309279 0.271498 -0.55334 
460 1 6.13356 8.81241 3.2196 0.945922 0.78425 0.123195 
461 1 1.94046 2.59468 1.20971 -0.0857331 0.0454805 0.212002 
462 1 0.461712 3.17186 1.34306 -1.25085 0.290431 0.0345317 
463 1 4.31185 6.72793 7.24 -0.344199 0.56881 0.289922 
464 1 4.75352 1.51149 4.63059 -0.308451 0.235452 0.91912 
465 1 0.279052 4.82219 1.45195 1.22036 0.994672 -0.407185 
466 1 2.40948 5.97747 5.9977 -0.312867 1.29354 -0.504342 
467 1 5.194 8.55574 7.96644 0.0041711 0.926039 -0.729868 
468 1 6.0536 4.30363 8.94789 -1.369 -0.207961 0.186828 
469 1 2.493 1.42866 4.73038 0.729977 0.328004 -0.533109 
470 1 2.85525 8.29741 5.2096 -0.00177339 1.27426 0.604607 
471 1 8.2747 7.47494 7.93263 0.429241 -0.462557 -1.24599 
472 1 5.74946 6.67986 1.87727 -0.83381 -0.408444 0.217058 
473 1 4.98231 8.27211 5.55931 -1.76859 0.342415 -0.735144 
474 1 7.00892 8.49978 6.13659 1.2835 0.340191 0.379574 
475 1 8.8127 4.25508 7.83729 -0.00330005 -0.191791 0.295323 
476 1 3.01868 7.56738 3.18072 -0.371533 -1.35428 0.282965 
477 1 4.48289 8.09817 1.98374 -0.844697 -0.552549 -0.10979 
478 1 6.40721 4.0795 0.777131 1.50834 -0.1792 -0.637256 
479 1 1.05594 2.65849 4.68865 -0.295469 0.716907 0.996648 
480 1 8.79094 7.06273 7.27712 -0.193503 0.498858 -1.11647 
481 1 9.3051 4.01232 5.71374 2.283 0.345411 1.64469 
482 1 7.23374 6.69693 5.17256 -0.131341 -0.941322 -0.215338 
483 1 8.199 3.82651 7.22068 -1.8726 -0.284546 -0.182222 
484 1 5.5093 4.30778 4.22087 0.209072 0.256283 -0.184054 
485 1 4.77801 3.79559 3.94084 -0.276671 -0.713262 0.743871 
486 1 4.14932 3.48035 0.00884541 0.670838 0.604571 -0.972937 
487 1 3.81719 6.62484 5.481 1.07742 0.0608489 -0.81141 
488 1 6.19878 0.805924 5.92587 -0.614054 -0.259148 -0.559795 
489 1 9.24655 5.55954 9.2351 0.730548 0.139871 -0.294336 
490 1 8.49959 7.98761 5.54013 -0.414269 -0.636445 0.371122 
491 1 3.36254 0.851084 3.48734 -0.366191 -0.0335489 1.41938 
492 1 1.28355 3.46498 6.04553 0.667447 -0.351037 0.351384 
493 1 5.39083 8.1398 6.44307 0.282469 1.21572 0.700321 
494 1 4.35446 0.62122 7.84271 -0.73946 1.21191 1.19029 
495 1 0.668147 4.74589 7.34414 0.0634793 0.309939 -0.105952 
496 1 8.513 0.5185 0.0540038 -0.636653 -0.911526 0.076275 
497 1 5.96259 5.15531 8.36085 -0.092949 0.467521 0.479884 
498 1 1.47098 4.57939 2.68391 0.600031 -3.32718 1.05954 
499 1 8.43319 9.17209 2.45911 -1.03031 -0.0810703 0.493962 
500 1 3.80433 5.2768 2.57925 -1.52331 0.305969 0.235665 
501 1 4.79023 5.6512 0.0610874 -0.497348 -0.651324 0.14463 
502 1 6.80208 7.53264 3.79101 0.689734 0.506078 0.38238 
503 1 3.53033 3.5263 8.68524 0.714064 1.24952 -0.329479 
504 1 5.31931 5.7788 8.67313 0.113144 0.301739 -0.248508 
505 1 2.45191 2.18796 5.5242 0.480518 -1.16726 -0.337774 
506 1 8.45721 3.62545 1.22536 0.684341 -0.238056 -1.45246 
507 1 6.20302 6.18413 8.32131 -1.62759 -0.423773 -0.26274 
508 1 2.51898 2.77307 4.72999 -1.47222 -1.93146 1.09964 