ITEM: TIMESTEP
2602
ITEM: NUMBER OF ATOMS
1000
ITEM: BOX BOUNDS pp pp pp
0.0000000000000000e+00 9.4000000000000004e+00
0.0000000000000000e+00 9.4000000000000004e+00
0.0000000000000000e+00 9.4000000000000004e+00
ITEM: ATOMS id type x y z vx vy vz 
1 1 6.55656 3.68062 3.31966 0.851625 1.75341 -0.638964 
2 1 5.94123 5.83014 5.51111 -0.495678 0.129756 0.184729 
3 1 7.94945 7.40803 7.43675 -0.31317 -0.556872 -1.25271 
4 1 7.72234 4.93805 7.48307 -0.689312 -0.358427 1.54518 
5 1 2.49452 3.64936 6.40012 0.463109 1.15163 0.459782 
6 1 7.202 7.61774 1.11702 -0.347574 -0.224724 -0.164576 
7 1 7.51621 4.64517 5.23996 -0.56507 -0.0835471 0.620626 
8 1 1.78498 3.15075 6.79643 -0.607959 -0.53367 0.986003 
9 1 5.08755 8.22769 7.60152 1.26869 -0.198417 -0.563584 
10 1 2.89897 4.15887 0.192645 -0.205833 0.745374 0.858758 
11 1 5.93818 6.71804 8.14692 0.241879 -0.13932 -0.424116 
12 1 3.78617 8.11914 0.456883 -0.0654272 0.345613 0.267066 
13 1 6.00515 6.21764 2.55387 -0.44886 -1.93652 -0.110612 
14 1 3.99607 7.15125 6.78023 -1.07253 -0.924898 0.953586 
15 1 4.81397 8.09117 1.75284 -0.581195 -0.462814 -0.174315 
16 1 7.11711 7.90763 9.14002 0.358735 0.991579 0.618279 
17 1 4.4459 5.00585 6.31198 -0.745542 -0.739162 -0.67577 
18 1 6.6049 1.96395 6.37577 -0.717545 0.635305 0.411594 
19 1 2.61429 0.643826 4.60366 0.637445 -0.0224572 0.665334 
20 1 3.62932 6.28965 2.22458 0.76682 -1.29203 -0.0149316 
21 1 5.15742 6.31943 5.88429 0.287483 2.24679 0.692328 
22 1 6.85056 6.92996 1.70535 0.836069 -0.705197 1.09384 
23 1 1.97266 6.05287 8.32101 -0.739529 -1.44449 -0.251509 
24 1 5.47712 2.49601 4.7273 1.37141 0.502968 0.93701 
25 1 2.14222 5.70488 1.51331 -0.0180189 0.94796 0.266267 
26 1 0.117791 7.94799 8.22066 0.230329 0.169861 0.000505187 
27 1 7.80205 0.225624 1.52868 1.35576 -0.727924 -0.00626155 
28 1 5.57319 8.11217 4.30649 1.22821 -0.714887 -0.861258 
29 1 7.60482 7.67979 8.30819 -0.933477 0.0180368 -1.42063 
30 1 7.96683 6.47049 0.110975 1.2479 0.161385 -0.888078 
31 1 2.79487 2.46451 7.85372 -0.801005 -0.725054 0.938213 
32 1 6.93633 8.48805 5.23764 -1.69453 -0.233044 0.181183 
33 1 8.46544 5.98462 3.02477 -1.32016 -0.105335 0.207297 
34 1 8.57374 5.36549 1.50854 0.00767424 -1.20041 -0.417401 
35 1 6.66523 5.85573 4.74655 0.808576 -0.543052 -0.59443 
36 1 8.4702 5.39213 4.52252 0.666041 1.08276 1.68364 
37 1 9.1704 5.59357 8.79672 0.113631 -0.625207 -0.327279 
38 1 7.80507 0.752763 0.739223 0.0885532 1.09787 -0.43978 
39 1 8.01601 8.41427 7.80007 -0.575603 -1.57264 -0.628935 
40 1 8.4401 6.30468 1.73927 0.248404 -0.0497237 -0.683216 
41 1 1.02296 6.38083 8.19895 0.207454 0.227525 0.822472 
42 1 1.01262 1.57004 2.73828 1.13334 -0.172228 -0.259333 
43 1 6.9278 1.71018 8.06678 -1.32127 0.847461 -0.107573 
44 1 5.92268 6.87134 5.69238 -0.0710808 -0.658067 0.957858 
45 1 7.0192 9.15809 5.90968 -0.638945 -0.246005 0.202005 
46 1 6.31862 3.71419 9.37538 0.0637854 -0.0639777 -0.0308042 
47 1 3.69846 2.58935 8.28988 2.332 -0.157206 2.20164 
48 1 1.17088 3.76209 5.37553 -0.00333621 -0.171445 -0.422768 
49 1 5.85894 4.22684 3.67977 0.40523 0.413316 2.2312 
50 1 6.29355 2.22999 2.52813 1.14187 0.742047 -0.457031 
51 1 3.44515 3.83786 8.86588 1.26839 -0.17666 0.110489 
52 1 2.79752 4.57983 8.73037 0.416618 0.725549 0.332544 
53 1 3.53804 0.73431 2.55453 0.741679 -0.982386 0.298054 
54 1 4.51052 0.0439077 3.56139 -0.858252 0.123824 -1.69666 
55 1 2.83634 7.97587 2.72406 -1.55412 0.436875 0.382379 
56 1 4.82995 3.66441 5.13038 -1.07034 -0.574786 0.74954 
57 1 6.4045 4.2123 8.57624 -0.759515 -0.940033 -0.123568 
58 1 7.19159 4.93123 0.679188 0.394946 0.433445 -0.156077 
59 1 7.60008 6.50135 6.42284 0.380415 2.13692 -0.765414 
60 1 8.63361 6.70205 4.37921 -0.95727 1.03834 0.367385 
61 1 1.95431 1.5746 5.64297 -0.565451 0.346648 0.629551 
62 1 2.6852 4.67648 7.36673 0.534062 0.102239 -0.0703096 
63 1 1.89334 1.42587 3.10257 -0.382998 -0.301769 -0.62189 
64 1 5.23442 5.38334 0.00967425 0.783088 -1.85025 0.35129 
65 1 3.39503 4.25036 1.82444 0.0110485 -0.213706 -0.706266 
66 1 4.6182 2.66692 5.16974 -0.18326 -0.607501 -0.324296 
67 1 7.76147 4.78016 4.29031 0.690943 -2.00674 -0.630158 
68 1 5.69952 7.68843 1.91921 0.513932 0.506063 0.783665 
69 1 3.7284 2.89554 5.62477 -1.01955 -0.794415 1.1167 
70 1 7.01764 4.27899 7.45821 0.541776 1.65152 0.0997749 
71 1 5.19533 4.71824 5.04221 -0.715337 0.0939533 -0.969258 
72 1 4.60978 0.990981 7.03178 -0.0362602 0.162166 -0.0444856 
73 1 5.64814 5.13939 8.60087 -0.622894 -0.346074 1.06115 
74 1 5.95208 9.04187 2.90386 1.25329 -0.478176 0.250756 
75 1 0.579369 3.55913 4.03654 0.17669 0.062474 1.71386 
76 1 7.48396 8.66497 8.56307 0.143662 -0.849043 0.469456 
77 1 2.78488 4.98049 1.65303 0.885234 -0.626959 -0.116767 
78 1 2.08228 8.7478 4.21449 0.410124 -0.317149 1.10235 
79 1 1.75839 7.02867 8.5301 0.186036 0.58993 0.0114367 
80 1 2.89961 9.15719 4.51211 0.0991745 -0.862602 0.321821 
81 1 5.88352 0.501518 0.691312 0.323689 -0.304197 -0.356911 
82 1 0.617668 1.01444 1.90933 -0.171467 0.00455882 -1.62361 
83 1 3.69364 8.9659 1.89341 0.59305 0.018863 -0.53707 
84 1 2.70552 5.3839 0.781379 0.732762 -0.949106 0.0352857 
85 1 3.04074 6.20349 8.23376 -0.207328 -0.598912 1.20783 
86 1 8.70321 3.47491 8.02869 1.4662 -1.64451 0.346408 
87 1 3.62486 8.9837 5.09046 -0.109728 0.885305 0.210779 
88 1 2.89217 1.6334 3.83795 -0.169937 0.117098 -1.03556 
89 1 1.13788 2.50187 6.53443 0.141789 -0.229271 0.758323 
90 1 5.54004 6.32753 7.34292 0.802138 0.372822 0.972123 
91 1 2.86005 7.76181 1.80048 1.27152 -1.15934 0.278172 
92 1 5.17029 8.76942 1.15907 -0.995976 0.762268 -1.37082 
93 1 3.39367 2.03021 1.28166 0.485803 -1.65204 -0.382124 
94 1 6.3407 2.7086 7.8989 -0.011829 -0.431632 0.936636 
95 1 6.91116 2.51433 1.05439 1.33886 -1.66438 0.200343 
96 1 4.22938 6.69089 5.92655 0.10382 0.268443 -0.590002 
97 1 6.94374 2.89084 4.2398 -1.33464 -0.520966 -1.26431 
98 1 6.97616 5.03211 6.77482 0.79217 -0.874147 -0.192642 
99 1 7.26082 1.9563 8.92142 0.166172 1.04092 -0.851079 
100 1 4.9657 2.64493 9.29754 0.0848491 -1.10542 0.651936 
101 1 8.30493 2.11849 5.95495 0.171032 0.90896 1.7894 
102 1 8.51186 0.523438 6.2739 -1.35632 1.49502 -0.0630092 
103 1 6.92321 2.29485 7.26758 0.84251 -0.133049 -0.890408 
104 1 4.98593 2.11048 0.738886 -1.25526 0.037637 -0.6671 
105 1 7.90335 1.74643 8.21825 -0.182611 -0.170316 0.850632 
106 1 5.8136 4.54912 9.30867 0.474399 -0.067582 1.30636 
107 1 7.58144 1.36569 2.3285 -0.749053 1.46069 -0.0891244 
108 1 2.81217 7.96999 0.461345 0.448827 -0.0440094 -0.383202 
109 1 4.63634 0.846279 2.14944 0.286059 0.532991 -1.32285 
110 1 0.97427 6.6041 3.16162 -0.69424 -0.317651 -0.612689 
111 1 0.740414 7.26869 8.50812 -1.37013 0.342364 1.18686 
112 1 6.64487 6.80861 6.41364 0.229765 -1.70473 -0.166771 
113 1 1.79587 0.813574 5.07598 -0.599256 -0.890103 -0.799741 
114 1 7.27517 4.35976 1.40949 -0.800569 0.380173 -0.881686 
115 1 0.824311 7.25437 3.90048 -1.49118 -1.50688 -1.17743 
116 1 6.77577 7.2054 0.356033 -0.0449835 0.486472 0.492713 
117 1 6.27646 5.1044 3.85327 -0.541016 -0.708249 1.36004 
118 1 0.573565 8.75588 1.13888 1.47049 -0.014232 0.487862 
119 1 5.77287 7.63176 8.31345 0.766521 -0.828768 -0.12634 
120 1 0.287592 0.132469 1.6371 -1.89705 -0.438199 -0.811933 
121 1 1.93218 4.04115 7.15883 0.520972 0.770245 0.37659 
122 1 4.32967 8.88986 7.50291 0.873003 1.11589 0.519403 
123 1 8.55852 7.80225 8.26349 1.15582 0.0480738 -0.365147 
124 1 5.00089 8.91452 2.92936 0.1749 0.219798 0.106046 
125 1 3.04213 1.52634 8.0695 0.885519 0.967839 -0.223693 
126 1 3.10955 1.91345 8.96109 -0.78253 -0.426882 0.187244 
127 1 5.06359 6.34833 0.141208 0.263724 -0.502869 -0.164781 
128 1 7.00764 8.54486 1.30966 -0.0218999 0.793622 -0.358594 
129 1 8.18852 4.38444 5.83264 -0.886912 0.0463287 0.0179604 
130 1 4.4321 9.02089 5.77659 -0.581437 -1.57275 -0.314224 
131 1 3.95301 2.25241 9.17721 0.60829 1.58216 -0.111536 
132 1 1.69847 0.26844 4.27105 0.365217 0.11731 -0.947358 
133 1 6.14378 8.94408 4.45402 0.8942 0.309521 0.527488 
134 1 2.88822 0.529387 0.623359 0.790336 -1.00102 -1.4017 
135 1 4.46517 0.021299 4.90932 -1.31159 -1.20713 -0.115472 
136 1 7.26919 7.30309 2.51989 1.0146 -0.000759738 -0.265293 
137 1 5.82477 5.4405 4.63372 -0.212652 0.847454 0.478657 
138 1 7.17101 3.2258 5.11379 0.397781 0.764352 0.904193 
139 1 3.65739 2.99356 1.23453 -0.599697 -0.13074 -0.616679 
140 1 7.01615 7.63951 7.40483 -0.198717 -0.948042 1.24826 
141 1 8.52328 8.41261 0.510148 0.516096 -0.0628743 1.09536 
142 1 0.0558136 6.3569 8.28007 1.00988 -0.761138 -0.23604 
143 1 3.4853 6.68403 8.97142 -0.557077 0.539938 -0.508682 
144 1 5.60015 1.09297 5.62596 -1.01631 0.537011 1.00279 
145 1 7.72562 7.38134 0.313827 -0.524493 0.125814 -1.75533 
146 1 6.22155 0.871462 1.51121 -1.37716 0.699203 0.252663 
147 1 7.47746 1.51312 7.33247 -0.886522 -0.14447 -0.42489 
148 1 1.42266 6.35252 9.09967 0.164544 0.910421 0.850553 
149 1 7.23295 6.7266 7.25844 0.248844 -1.03112 -1.57003 
150 1 5.00149 9.20741 8.10198 -0.699807 -0.349508 -0.852226 
151 1 3.54709 2.92384 7.38704 -1.53442 -0.2474 -0.539559 
152 1 2.54405 6.34595 0.906649 -1.08906 -1.04421 -0.161449 
153 1 6.58921 8.13735 0.536983 0.153051 -0.58586 -0.317574 
154 1 0.202683 7.13467 7.71273 -0.610105 -0.573863 0.954973 
155 1 7.40623 0.405803 9.35629 0.554726 -0.717408 -0.151943 
156 1 5.95798 0.917517 8.7166 -1.19255 -0.856368 -1.21764 
157 1 1.57598 1.90843 0.800591 1.0948 -0.181401 -0.330075 
158 1 5.83224 0.431093 4.88985 -0.00437887 0.415148 0.986451 
159 1 7.61746 7.98901 1.89797 0.987491 0.159767 0.944779 
160 1 4.16081 5.42783 8.08921 -0.27368 0.653285 -1.35209 
161 1 5.76571 1.49524 4.78387 0.716791 0.0772731 0.465599 
162 1 6.71982 7.58981 3.29926 -0.173312 0.115047 0.100404 
163 1 5.91459 6.46396 4.75745 0.0441623 -0.20739 -0.546133 
164 1 0.32262 0.66174 5.12031 0.217321 1.12318 -1.67097 
165 1 5.81737 5.39378 7.21796 -0.603713 0.232496 -0.251685 
166 1 7.65228 4.69496 2.2436 -0.731796 1.34981 -0.247449 
167 1 7.42531 7.69474 4.98717 -0.326219 0.207087 0.687249 
168 1 0.809412 3.05003 8.36262 -1.46761 0.678964 0.6044 
169 1 7.65698 6.83914 3.40725 -0.150334 0.100055 0.362055 
170 1 8.91291 3.77349 1.75764 -0.720787 -0.0930298 0.0288509 
171 1 6.11969 5.23568 2.38163 0.517915 0.468087 0.0141629 
172 1 8.21021 6.84197 5.68357 -1.56014 0.627357 -1.23266 
173 1 6.71859 4.45498 2.17887 -0.0952741 0.897585 -0.136669 
174 1 0.69327 2.43588 2.46634 0.383767 -1.79183 1.95722 
175 1 4.608 2.71258 2.18645 -0.306091 -0.524931 0.201328 
176 1 2.58804 6.15479 2.22271 -0.469319 0.590013 -0.39586 
177 1 3.38107 1.56065 2.13908 -0.438404 -0.143493 0.312712 
178 1 7.33922 2.58288 8.08426 0.633249 0.06626 0.439111 
179 1 7.62443 2.58725 3.58813 0.630163 0.613353 -1.0542 
180 1 2.76663 8.73255 2.00823 0.839261 -0.229304 -0.720975 
181 1 9.0895 4.25631 7.72371 -0.541282 -0.701208 0.741625 
182 1 8.90222 9.09394 9.37578 -0.623116 -1.21037 0.327989 
183 1 8.08813 3.63114 5.13469 -1.02766 -0.0038612 -1.89481 
184 1 8.74459 7.80505 3.27827 -0.881811 0.798637 -0.0844351 
185 1 7.0604 5.44446 2.28736 -0.757645 0.182482 1.13518 
186 1 1.11646 8.88053 4.285 -0.676289 0.429822 -0.974932 
187 1 9.05689 0.128845 6.99807 -1.43563 0.70446 -1.12476 
188 1 8.94883 8.56853 7.77372 -0.357862 -1.65067 -0.0135457 
189 1 2.29196 8.26864 1.22373 0.327598 -1.28368 -0.354181 
190 1 3.7943 8.30156 4.28714 0.240575 -0.326049 0.822499 
191 1 5.14283 6.15713 1.49252 -0.571552 0.0245236 -0.949647 
192 1 9.31023 8.54171 6.89285 0.511004 0.865685 -0.33554 
193 1 2.29564 8.75406 2.89617 -0.555577 -0.604035 1.10602 
194 1 3.34445 4.64894 0.908795 0.0743534 -1.00605 -0.86816 
195 1 9.05563 6.64847 6.08803 -0.0984095 0.562326 1.24249 
196 1 5.75727 8.92546 7.4836 0.847941 0.5627 -0.194847 
197 1 4.87841 4.47442 0.114055 1.46156 0.0710885 -0.146568 
198 1 7.70078 8.19195 6.93599 0.400329 0.671678 0.776474 
199 1 4.55645 0.965814 8.64691 -1.54413 -0.121802 -0.213352 
200 1 3.92702 1.56841 4.00012 0.471928 0.130062 -0.246043 
201 1 6.86873 4.56134 5.97998 -1.23859 -2.54044 -0.691099 
202 1 0.361089 8.07448 3.65363 0.0716882 0.135235 -0.627919 
203 1 6.8565 6.97413 8.09921 0.180984 2.05955 0.689304 
204 1 7.3812 7.39975 6.56459 1.50603 -0.0248339 -0.9849 
205 1 4.75936 1.36451 6.1474 -0.133765 1.33616 0.0630753 
206 1 5.07151 2.82006 3.93648 1.32887 -0.095182 0.131876 
207 1 6.55271 0.828057 7.96544 -0.948129 -1.16349 -0.277045 
208 1 4.62776 2.28737 8.46053 -0.133982 0.641618 0.210717 
209 1 6.12895 0.194637 5.78824 0.692658 -1.1753 0.263577 
210 1 4.87592 6.28055 3.12548 -0.0329692 -0.832508 0.296495 
211 1 4.13133 2.03124 5.75259 0.850568 0.620781 -0.0727639 
212 1 6.57114 0.166636 6.63889 0.143079 0.59629 0.451137 
213 1 3.31298 4.24376 7.97817 -1.3025 0.158991 -0.0171954 
214 1 6.24636 8.61587 6.03439 0.719981 -0.639516 0.365645 
215 1 1.82463 1.99692 2.37024 -0.366493 -0.552396 1.51433 
216 1 7.37669 2.31454 4.88907 -0.578744 -0.0748772 -0.0907785 
217 1 7.60505 5.56274 0.12091 0.175428 -0.172053 0.247435 
218 1 3.99306 8.17617 6.73393 -0.314845 -0.91763 0.380046 
219 1 8.69925 3.59515 7.06469 -0.46279 -0.19771 0.133252 
220 1 1.6865 9.03641 1.23908 1.09158 -0.239509 -0.154445 
221 1 2.37715 2.38115 0.0202804 -0.079322 -0.695706 -0.000929178 
222 1 0.351369 3.36364 4.95466 1.4423 0.63527 -0.0328704 
223 1 7.00592 4.4424 3.80216 0.320887 -0.0235738 0.0337339 
224 1 4.15682 0.878248 3.31143 0.894012 -0.527937 -0.637163 
225 1 6.19855 8.15229 9.05452 0.0721912 0.58535 0.472929 
226 1 2.50475 2.0437 0.921701 -0.860962 -0.589693 0.833323 
227 1 9.0252 8.07942 9.05801 -0.561978 0.0357646 -0.541771 
228 1 0.0854993 8.80469 8.6561 -0.254103 -1.5793 -0.915435 
229 1 0.230025 3.51164 1.09076 -0.39235 -0.869373 0.791241 
230 1 9.11231 4.76234 5.51827 0.755523 0.1188 -0.258517 
231 1 3.0302 8.76567 3.64052 -0.0557068 -0.0554868 0.851049 
232 1 8.84472 7.71354 7.34079 -0.234297 0.600476 0.365534 
233 1 2.1448 0.56953 1.40802 1.58774 -1.22213 -0.205418 
234 1 6.60041 7.64941 5.58807 -0.203566 0.496882 0.894862 
235 1 5.81609 0.922866 3.99519 -0.713225 -0.483228 0.513624 
236 1 8.7706 4.74845 9.29299 -0.968312 -0.175546 -0.245547 
237 1 0.719146 5.68172 8.78664 0.256413 -1.5866 0.411165 
238 1 6.22418 3.13456 4.94506 1.3599 -0.44044 -0.169267 
239 1 7.48472 3.7376 2.03627 -0.304884 0.309455 -0.198083 
240 1 4.93843 3.68256 2.19194 -0.478648 -0.35863 1.06872 
241 1 0.581374 5.95773 2.29376 -0.626048 0.483131 -0.0711396 
242 1 6.11616 8.10849 2.68524 -0.0240182 0.0371461 -0.574663 
243 1 8.58566 2.73127 3.75561 -0.339353 0.862604 -0.809207 
244 1 3.44379 8.18063 8.25759 -0.210355 0.363988 1.45908 
245 1 5.35045 6.96723 2.49761 0.416591 -0.27541 -0.580057 
246 1 8.94168 6.59853 0.0348369 -1.70916 1.47236 0.232639 
247 1 6.4177 6.52548 0.946438 1.07912 -0.0870762 0.0621334 
248 1 6.21347 4.9856 0.677907 -0.0646925 -0.529831 1.76256 
249 1 9.21216 4.04523 4.47086 -1.47474 0.448157 -1.16133 
250 1 4.45541 8.43441 8.35323 0.101125 2.03402 0.476474 
251 1 4.21951 0.0590796 2.63482 -0.92 0.461306 0.282552 
252 1 8.70393 5.10067 6.29218 0.459393 -1.16253 0.114309 
253 1 0.333007 2.1826 6.03162 0.261974 0.620011 0.0393431 
254 1 7.43845 8.93059 2.08173 -0.118657 0.665325 -1.39352 
255 1 7.58077 2.8375 8.96721 0.394376 -0.757439 0.452506 
256 1 5.73194 5.37823 1.54272 -1.74254 -0.631724 -0.621281 
257 1 1.04464 3.77868 7.51459 0.0129308 0.570775 -0.334399 
258 1 0.190232 3.08147 1.95126 0.0102889 1.16172 0.972826 
259 1 0.141666 9.30355 7.81992 -0.308507 -0.529047 -0.693463 
260 1 5.27538 8.89897 4.90425 0.0317816 1.46826 0.622318 
261 1 4.45538 7.05161 7.5903 0.0203936 1.01508 -0.660071 
262 1 3.24658 7.84889 3.63271 -0.527114 1.29721 -0.0729896 
263 1 8.29454 4.02666 2.46537 -0.977998 -0.214336 -0.397456 
264 1 6.43422 7.72498 6.616 0.44576 -0.359194 0.168401 
265 1 0.471209 1.77848 4.39056 0.761852 -0.916026 0.0797489 
266 1 3.65611 4.86906 7.27352 -0.210159 -0.936256 -1.05963 
267 1 5.95849 3.35667 8.56053 0.184524 0.950425 -0.814471 
268 1 3.78789 8.59646 9.0342 -0.108096 1.82968 0.612861 
269 1 7.08936 8.5134 7.68328 0.0640799 -0.302868 0.0865877 
270 1 7.63106 4.3671 6.63915 -0.48047 1.38295 -0.677217 
271 1 6.50886 3.74275 4.26518 0.779671 -0.335557 0.015637 
272 1 5.58737 6.06869 8.77945 0.191232 -0.190695 -0.0685116 
273 1 0.537259 6.01976 1.0517 -0.282128 -0.470625 0.79196 
274 1 7.07338 6.44701 4.13913 0.422315 0.289704 -0.345027 
275 1 3.82344 3.8458 7.25348 0.557781 -1.07832 -0.503565 
276 1 8.23098 4.47 1.51826 0.819126 -0.699081 0.0447208 
277 1 8.81376 7.21354 1.66622 -0.0868037 0.18797 1.36302 
278 1 6.51229 8.63824 6.92997 0.582238 -0.156974 -0.167417 
279 1 1.09797 0.103811 5.01763 1.22742 0.215551 -0.147405 
280 1 0.847658 3.41484 6.66742 -1.00949 -0.837094 0.625826 
281 1 3.47017 6.89292 3.71109 0.79955 0.34727 -1.60953 
282 1 1.15948 1.05359 0.31845 0.568114 -0.638213 0.35584 
283 1 8.87118 1.35701 5.95662 -0.749143 0.112752 -0.681454 
284 1 6.23867 7.44689 1.14354 -0.284452 0.473234 -0.75734 
285 1 0.0538113 6.19773 3.10401 -0.013371 0.636272 0.268275 
286 1 2.25844 4.89814 0.0855513 0.809784 0.714372 -0.0720386 
287 1 2.8243 0.110489 2.71211 0.167603 -0.970482 0.533489 
288 1 1.00969 6.56204 1.67425 -0.239894 -0.127892 -0.762848 
289 1 3.79372 0.845365 0.757672 2.12647 -1.36806 -0.650583 
290 1 7.61995 5.24973 1.4737 -0.163608 0.00459998 -0.808794 
291 1 8.16883 7.74467 1.09742 -1.15342 -0.115045 -0.0406974 
292 1 3.22463 4.27945 6.62414 -0.597341 0.64383 -0.629528 
293 1 4.40016 0.719361 5.5552 0.338317 1.05738 -0.760075 
294 1 8.3756 3.44335 6.01364 -0.305686 0.582325 -0.61778 
295 1 1.32627 8.17082 1.30392 -0.716914 0.225037 0.444677 
296 1 3.59242 0.554943 4.94783 -0.896697 0.357545 1.00913 
297 1 3.79302 2.25322 4.83484 0.514683 -0.499302 1.38734 
298 1 1.88407 7.76765 4.38492 -0.174021 -1.501 0.307743 
299 1 1.84082 2.46753 1.54246 0.369409 0.74308 -0.0716344 
300 1 0.207239 4.06194 6.96198 0.440798 -0.310749 -1.14758 
301 1 9.01793 4.28294 3.04425 -0.767934 -0.379962 -0.542526 
302 1 0.680325 5.07576 0.866785 -0.758598 0.478392 0.403452 
303 1 0.333882 4.97442 9.35798 -0.508925 1.75685 0.261821 
304 1 0.349423 0.883773 0.949604 0.293342 -0.895875 -0.320476 
305 1 1.08304 5.68559 0.269478 0.41363 0.281724 -0.15585 
306 1 9.08813 3.54232 3.66693 -0.505825 1.03396 1.5837 
307 1 1.39811 2.3227 3.19098 1.4754 1.18639 -0.336737 
308 1 1.22221 7.33958 9.32317 -0.135375 0.787219 -0.687566 
309 1 5.94803 0.502364 7.28594 -0.352333 0.127784 0.309841 
310 1 1.30869 1.06059 1.23747 0.209952 -0.927596 0.850383 
311 1 1.80142 2.84527 0.668685 -0.240407 1.64022 1.05714 
312 1 5.35924 0.411008 3.27754 -0.0540692 -0.19568 -0.654574 
313 1 9.07994 2.30349 3.03111 -0.567996 -1.82419 0.358163 
314 1 6.23721 3.78814 7.73389 0.120745 1.8071 -0.0647473 
315 1 5.19571 9.34122 0.392184 0.121932 0.35263 0.0347548 
316 1 6.5994 5.66155 3.11564 0.706078 -0.182031 0.554619 
317 1 0.42185 6.36248 5.49604 -1.69219 -1.47312 -0.178258 
318 1 7.54629 8.30628 0.517044 0.249519 -0.190473 -0.971361 
319 1 5.00817 1.60414 1.62267 0.705049 -0.765355 -0.944821 
320 1 5.59231 1.92895 3.95934 -0.356347 -0.8742 -0.574037 
321 1 8.36823 6.81716 0.906143 -1.08651 0.188525 -0.276274 
322 1 2.96444 1.15849 1.36112 0.0988534 -0.253666 -1.28703 
323 1 4.06639 6.86154 2.9809 -0.289735 -0.364695 -1.20935 
324 1 3.01675 3.33682 8.15748 0.622697 -1.15888 -1.43032 
325 1 4.32619 2.28271 1.4072 2.00148 1.0603 -0.256082 
326 1 4.21517 9.05512 0.324546 0.741937 -1.29226 1.16443 
327 1 7.39831 6.69636 0.906853 -0.106874 -0.641262 1.0343 
328 1 8.39617 2.76599 6.66377 0.298456 0.633482 -0.769558 
329 1 7.89454 3.21543 0.37518 -0.298635 0.233114 0.713935 
330 1 5.26727 5.25664 5.83521 -0.721701 -0.112865 0.508498 
331 1 8.55366 1.55372 2.34008 -0.307904 0.357388 -0.0527182 
332 1 1.04065 0.970668 4.49527 -0.096373 0.389202 -0.673187 
333 1 4.74256 8.2671 0.435254 -0.591087 -0.505116 0.874158 
334 1 0.685152 9.01012 3.41775 -0.979088 0.0445087 -0.282676 
335 1 7.93248 8.99777 9.3671 -1.35788 -0.676824 -0.496476 
336 1 1.69389 3.06082 5.84216 -0.478086 1.14069 0.260259 
337 1 3.23991 5.43967 2.39981 -0.607656 0.515293 0.685685 
338 1 1.21963 0.273242 1.74313 -0.382064 -0.835589 -0.387654 
339 1 5.00366 6.56804 8.1879 -1.4166 1.15671 0.575883 
340 1 1.55856 3.62467 8.33233 0.602299 -0.959038 0.429283 
341 1 1.39632 1.88889 4.7288 0.426441 -0.336069 -0.00956364 
342 1 1.40879 7.21205 1.10132 0.412456 1.67273 0.772021 
343 1 3.98672 3.47214 2.0181 0.123432 0.590364 1.0538 
344 1 8.45505 4.48823 4.88502 -0.818443 0.150518 1.67617 
345 1 0.973192 3.32387 0.490417 0.0482546 0.152825 1.33599 
346 1 7.9253 1.09226 5.75854 0.761646 0.301531 0.758302 
347 1 3.90246 9.1357 6.67309 -0.252648 0.642156 -1.33491 
348 1 4.0887 6.18923 0.150031 0.518801 0.950142 -0.0257952 
349 1 6.28541 1.23674 0.183729 -0.236759 1.0725 0.594893 
350 1 3.54521 0.123026 3.32074 1.10355 0.755 0.0396285 
351 1 3.62233 0.73882 8.44525 -0.043886 0.396448 -0.742892 
352 1 0.197359 3.34088 7.60773 0.0765263 -1.45413 0.839784 
353 1 1.23588 5.42594 7.98341 -0.95804 0.113676 0.223988 
354 1 2.48182 6.5302 8.99927 -0.891122 0.0782219 0.450464 
355 1 7.56649 1.79084 1.17604 0.609915 -0.576228 -0.3037 
356 1 2.85042 2.32059 4.54007 0.687005 -1.03734 0.635813 
357 1 3.9801 3.92099 1.1222 1.06628 0.115278 0.844469 
358 1 3.09159 6.033 0.17412 0.829731 -0.355161 0.352013 
359 1 8.55559 8.13131 6.48253 0.772016 0.0175319 0.315432 
360 1 0.157474 8.70173 4.37746 -2.24064 -0.200384 0.19408 
361 1 2.44816 7.084 2.3758 0.807295 -0.68296 -1.54166 
362 1 7.10978 8.24414 6.18723 0.946829 0.840102 0.463325 
363 1 8.22617 3.47404 3.25117 -0.0614383 -0.923979 0.531311 
364 1 9.33986 0.281585 3.38367 -0.810698 0.139196 0.649011 
365 1 8.17904 3.59211 1.19393 -0.877627 -0.337393 0.115127 
366 1 6.98105 6.28995 0.14512 -1.00422 0.0563706 0.328969 
367 1 7.97988 0.187764 8.60759 0.720369 -1.61271 -0.111417 
368 1 5.14301 5.62918 7.97049 0.0960294 -0.552336 0.447083 
369 1 5.97057 4.27644 6.1456 -0.900021 -0.0163481 0.213963 
370 1 9.29902 5.98734 4.745 1.89545 -0.0711299 0.91402 
371 1 6.795 5.22597 7.64711 0.740565 0.193838 0.855754 
372 1 7.68873 7.773 3.26666 -0.816633 -1.14976 -1.32568 
373 1 9.06759 6.86339 5.17533 -1.70366 -0.0872219 0.860886 
374 1 2.05039 0.0122154 2.16143 0.048366 0.0306224 -0.173094 
375 1 8.53454 3.03004 9.04186 1.39355 -1.67842 -0.22775 
376 1 0.347003 5.59952 3.95558 0.0781366 -0.187256 -1.13668 
377 1 1.60056 3.09518 9.1522 0.983438 -0.48144 -0.10833 
378 1 1.05072 4.47686 6.82896 1.27069 0.82917 0.228334 
379 1 8.76496 0.658398 5.32062 -0.528214 -0.195857 1.95569 
380 1 6.9203 8.86922 9.31834 -0.976404 -0.701262 -1.99912 
381 1 5.67104 9.20868 6.55748 0.999022 -0.00364381 0.197463 
382 1 0.49116 5.32779 5.31257 0.766727 -0.346019 0.460715 
383 1 4.41974 5.7531 5.67704 -1.99619 2.74476 -0.171435 
384 1 0.142268 5.36486 1.61193 0.70416 1.26806 -0.309636 
385 1 8.72536 4.68074 3.91441 -0.349849 0.718998 -0.116509 
386 1 4.59515 3.22697 5.96842 0.277146 -1.20771 -0.170925 
387 1 6.51323 1.37659 7.16741 1.1132 -0.520483 0.323279 
388 1 4.32758 8.49764 2.44941 0.753142 -0.945945 1.89008 
389 1 0.137559 2.19112 1.54298 -1.28513 0.63042 0.51824 
390 1 3.88759 7.33176 8.35636 -0.463324 1.06545 -0.119649 
391 1 5.34796 1.01097 0.0704096 -1.16104 -0.322415 -0.0161824 
392 1 7.62325 2.83534 5.87587 -1.40143 -1.31938 0.978307 
393 1 3.82919 1.2358 9.26063 -0.633944 0.7104 -0.986242 
394 1 9.23058 9.15168 5.27507 0.428387 0.737138 -1.17908 
395 1 6.78272 3.84633 6.6291 1.53527 0.859804 0.0640188 
396 1 4.55979 3.63093 0.41812 -0.722094 -0.0570571 -0.382209 
397 1 3.15782 1.92014 7.15569 0.460546 0.543899 -0.0213566 
398 1 2.86862 3.67805 7.28432 -0.89294 0.799876 1.2619 
399 1 7.26996 4.09236 2.88355 0.38493 0.108825 -0.560401 
400 1 0.835065 6.73284 0.53076 -0.440159 -0.563598 0.337372 
401 1 8.67136 7.48043 0.295007 0.231186 -0.545854 0.503869 
402 1 6.05692 4.72101 7.88696 1.32498 -0.891394 -0.691275 
403 1 9.1038 1.74474 7.52526 -0.636848 0.622825 0.557039 
404 1 5.88704 6.74956 1.737 0.209285 -0.318693 -0.629074 
405 1 9.37769 7.53641 6.57739 0.338176 0.062812 -1.34389 
406 1 5.48027 8.9124 3.74961 0.0458273 -0.810335 2.2182 
407 1 7.23634 0.452416 2.32047 0.556699 -0.474836 0.0984622 
408 1 4.75972 5.26301 1.58893 -0.0577119 0.903044 0.586596 
409 1 4.14615 3.15419 9.03117 -0.698767 0.977626 -0.300939 
410 1 8.51355 2.49891 0.51573 0.120725 0.53251 -0.857776 
411 1 4.48741 0.553121 0.100728 2.13424 1.25074 0.365323 
412 1 6.45659 4.63637 3.04944 1.06709 0.0407928 -1.81723 
413 1 8.20396 2.1113 7.36212 1.08496 0.737145 1.1341 
414 1 4.37804 8.4132 5.06097 0.0693214 0.817664 0.711267 
415 1 8.52212 6.2784 8.61512 0.807611 0.923358 0.273959 
416 1 7.57429 0.384867 6.3291 -0.218077 -0.883619 0.0519295 
417 1 9.06284 6.75172 7.03215 0.487015 1.61861 0.56981 
418 1 3.7729 4.74428 8.70903 0.102001 0.522365 -0.963825 
419 1 2.08608 5.86222 0.205248 -0.990317 0.503221 0.12655 
420 1 5.12131 6.91736 5.08423 1.07574 -0.373308 1.05888 
421 1 8.02004 5.83383 7.90092 1.04258 -0.46294 -0.805464 
422 1 1.9079 7.59409 1.80535 -0.215516 -0.642601 -1.0218 
423 1 7.68228 3.4213 6.68794 -0.878753 0.238818 -0.717514 
424 1 0.112718 7.19007 3.24699 0.978011 -0.354485 -0.514931 
425 1 8.34078 7.19575 6.56884 -1.27812 0.327819 0.277219 
426 1 8.10247 5.33455 3.61343 -0.406137 -0.0981588 0.443316 
427 1 2.6042 0.030329 9.23216 -0.0265006 -0.343557 0.91447 
428 1 6.46964 5.98894 1.73897 -0.831468 0.826317 -0.0188236 
429 1 2.06694 1.51112 1.58153 0.663737 1.45298 1.11087 
430 1 3.78251 7.8745 2.85227 -0.176466 0.403334 -0.0730683 
431 1 3.05335 2.02086 5.45783 -0.379905 -1.38453 0.720496 
432 1 4.2548 0.686398 4.26726 -0.803231 -0.0927483 0.244662 
433 1 0.496524 6.6528 6.50315 -0.822499 0.622803 0.2878 
434 1 5.24523 2.75566 6.90604 0.397591 0.325253 0.512562 
435 1 3.38525 7.19184 2.39067 0.936438 0.335724 -0.40185 
436 1 5.86024 7.49246 0.263781 0.518245 -0.755981 -0.0885631 
437 1 0.660082 8.10888 9.07263 1.34466 0.186296 -0.0456373 
438 1 6.76437 6.99511 4.86995 0.984042 0.117378 1.27457 
439 1 3.92902 7.15725 0.301396 -0.415146 0.198066 1.06331 
440 1 8.79532 0.879682 0.744401 0.310636 -0.274868 -0.848136 
441 1 6.52574 1.53108 5.47217 0.312307 -0.438645 -0.290234 
442 1 4.16419 5.96038 6.6029 -0.668176 -0.332317 0.875871 
443 1 0.945401 2.65525 1.2081 1.10301 -1.76365 0.248677 
444 1 6.14685 5.23442 6.29903 -0.00974428 0.486962 -0.123678 
445 1 5.93182 6.17327 6.42693 0.408736 -0.0415184 -0.270343 
446 1 0.4818 2.01716 3.41386 -0.242523 0.659508 0.739135 
447 1 5.33594 3.61497 9.26159 -0.820924 1.23571 -0.32482 
448 1 1.08699 1.84596 1.77006 -1.32921 -0.890377 0.108412 
449 1 2.7303 8.58836 5.30204 0.35145 0.176402 -1.19847 
450 1 8.37986 4.96117 2.79863 0.72399 -0.163686 -0.0304365 
451 1 0.382634 1.5547 0.0130017 0.298576 0.187968 -0.34563 
452 1 3.60455 8.56226 5.93478 -0.239146 -0.242768 1.17077 
453 1 0.644777 8.63609 5.21058 1.16112 -0.411415 -0.398832 
454 1 9.12334 2.81332 5.53195 0.143844 -0.878081 -0.434709 
455 1 4.58153 6.45031 2.2299 -0.512205 0.363828 0.106064 
456 1 7.34924 4.30844 8.35268 0.160953 1.02713 -0.181291 
457 1 7.16145 0.62781 7.21565 0.834952 -1.01586 -0.932108 
458 1 8.16545 6.46526 7.19225 0.574122 0.965492 -1.19675 
459 1 3.61714 1.22422 5.78465 0.457605 2.57284 -0.302628 
460 1 0.824492 7.97464 4.52649 0.416106 1.30809 0.363133 
461 1 0.515802 0.225606 4.20071 1.73854 -0.847384 -0.953181 
462 1 6.13546 3.1988 7.0052 -0.132899 -0.507058 -0.288609 
463 1 9.16548 7.86855 1.03801 -0.0942321 0.0362348 -0.149923 
464 1 5.72562 6.67373 3.35768 1.94241 -0.47649 0.166629 
465 1 4.34231 4.42808 1.91886 -0.88656 0.150955 0.132939 
466 1 8.27722 3.91398 9.27041 0.9149 -0.17136 -0.327062 
467 1 6.93108 5.37978 5.52081 0.331924 -0.0301323 0.82626 
468 1 4.62151 3.21184 1.3463 0.998245 -0.692389 -0.44172 
469 1 2.41221 7.31052 1.05036 -0.691016 0.795005 0.354817 
470 1 8.41238 0.514094 9.36853 0.497094 0.906091 -0.215029 
471 1 9.18224 7.47184 4.15367 -0.611485 0.517363 0.0359711 
472 1 6.3912 3.4361 5.85264 0.723923 0.100423 0.519856 
473 1 5.91082 7.41921 4.9052 -1.35627 -0.51521 0.49189 
474 1 7.24346 3.42375 1.08116 -0.527864 -0.415006 0.465489 
475 1 0.360458 7.31459 5.71359 0.518759 1.27584 -0.640089 
476 1 7.56383 2.30908 0.369551 -0.668291 0.000336605 -0.134154 
477 1 3.7187 7.58724 5.98799 -0.313003 1.0295 0.222329 
478 1 5.04871 0.147846 7.21727 1.37611 1.10248 0.973249 
479 1 5.00623 4.25127 5.9352 1.33669 0.423736 0.406558 
480 1 7.4548 5.22892 8.34566 -0.491775 -0.999374 0.00498679 
481 1 5.73301 3.92641 5.30922 -1.82307 -0.00252263 0.705936 
482 1 9.16887 7.1671 8.66977 0.817488 -0.137917 1.18228 
483 1 6.70005 6.35054 5.55133 0.261161 0.309137 0.0843418 
484 1 4.21477 8.60107 1.18241 0.642962 0.374774 -0.378234 
485 1 4.66538 7.74931 4.41824 1.09762 -1.27067 0.320887 
486 1 0.48282 3.93332 8.30179 -1.21945 1.25432 -0.136942 
487 1 7.40019 3.95966 4.56285 -0.838333 -1.41417 0.621604 
488 1 2.70405 1.82742 2.81405 0.21752 0.0904075 -1.30609 
489 1 2.31421 8.07453 3.57815 1.56795 -1.34582 -0.811804 
490 1 7.56497 6.08168 8.74758 1.53904 0.253813 -1.07109 
491 1 8.18064 1.40808 6.63808 -0.427533 -0.268122 -2.03362 
492 1 2.72088 2.87272 5.87012 0.899101 -0.28974 -1.00663 
493 1 6.10349 5.78837 8.01723 0.583956 1.44748 -1.73046 
494 1 4.4685 4.01261 8.77878 -0.819219 -0.991421 -0.25193 
495 1 9.36586 0.0279783 0.740429 -0.054695 -0.723233 -0.139161 
496 1 0.165137 8.26059 1.83328 0.35816 -0.360576 -0.681746 
497 1 2.35004 7.51725 9.14323 0.53559 0.643345 -0.22211 
498 1 4.81448 3.79425 7.79009 -0.45543 0.0465265 0.0731192 
499 1 9.1455 1.7644 0.689813 0.0483624 1.14072 0.00382306 
500 1 1.75563 5.05368 7.20667 -0.155898 -1.72576 -0.258689 
501 1 4.60548 0.303816 6.38258 0.161755 0.844042 0.129042 
502 1 9.01844 2.24201 4.75104 0.192618 -0.247191 -0.785892 
503 1 3.25424 8.42917 1.20707 -0.146435 0.758895 -0.0105744 
504 1 8.96237 4.70154 2.09818 0.428363 -0.320825 0.389822 
505 1 7.18668 1.00145 1.535 -0.402006 -0.628134 -0.0482033 
506 1 1.28305 1.58133 6.34316 -0.263877 0.829485 -1.0118 