ITEM: TIMESTEP
2592
ITEM: NUMBER OF ATOMS
1000
ITEM: BOX BOUNDS pp pp pp
0.0000000000000000e+00 9.4000000000000004e+00
0.0000000000000000e+00 9.4000000000000004e+00
0.0000000000000000e+00 9.4000000000000004e+00
ITEM: ATOMS id type x y z vx vy vz 
1 1 9.015 6.34018 6.51839 -1.65869 0.0296573 -0.481873 
2 1 1.88667 3.37324 1.32556 0.130503 0.215752 0.604172 
3 1 5.50275 8.95084 1.87612 -0.509198 -1.26954 -0.0247607 
4 1 4.96116 6.56175 6.08561 -0.00270494 1.40815 -0.379095 
5 1 5.31194 3.72846 8.5264 -0.677462 1.05198 0.314823 
6 1 5.24338 8.20417 6.59535 0.9338 -0.891812 0.0924857 
7 1 6.10632 1.94709 2.38966 1.0198 -1.24788 -1.21355 
8 1 5.22805 4.53969 0.478317 0.0433464 0.59012 0.499124 
9 1 9.17861 3.1768 7.4665 -0.797497 1.24133 1.32253 
10 1 6.62243 1.91173 5.61889 0.73995 -1.28866 -0.420067 
11 1 1.16254 7.19981 8.40184 -0.0873339 0.357259 -1.10071 
12 1 7.75057 5.52485 4.64212 -0.230109 -0.107504 0.413774 
13 1 7.57305 4.89316 3.87477 1.38904 0.477211 -0.0542656 
14 1 0.504321 1.99205 3.1282 0.164541 -0.960171 -0.525478 
15 1 9.20743 0.403678 6.68447 -0.908586 -0.679898 -0.607058 
16 1 2.3303 3.09006 8.89713 0.138695 -0.320173 1.26309 
17 1 4.09406 6.53968 6.55491 -0.698459 0.926537 0.152745 
18 1 6.40982 7.53532 2.17322 0.433629 -0.194701 1.20098 
19 1 4.73324 7.52333 6.02357 -0.803595 -0.00521158 1.27949 
20 1 8.75932 6.80962 8.3091 1.5259 0.230426 0.739937 
21 1 7.59659 7.63638 0.997505 -0.0156212 0.554651 1.12271 
22 1 6.50103 9.36476 3.91644 0.792536 -0.644285 0.270928 
23 1 6.7516 5.437 0.0796985 -1.03113 0.958128 -0.0352066 
24 1 6.26229 2.76046 5.88633 0.256524 -0.739673 -0.469941 
25 1 0.237498 1.10514 4.67393 0.441785 -1.64024 0.656116 
26 1 1.78231 5.74801 7.76525 0.727747 0.718795 0.349732 
27 1 5.61806 7.37644 2.64345 0.14947 0.489387 -0.668708 
28 1 4.33082 8.76965 4.99714 -0.0494313 -0.973286 -0.477879 
29 1 7.12118 3.25737 8.90537 -1.23104 -0.464125 -0.218877 
30 1 4.04362 4.84218 7.86272 -1.61658 -0.194391 0.258831 
31 1 9.23563 7.85591 5.95211 0.0961536 0.179485 -0.254253 
32 1 5.89571 6.95718 6.09501 -0.722318 -0.402778 0.681939 
33 1 9.2637 2.47116 8.39104 0.614295 0.488653 -0.55812 
34 1 1.99712 0.450767 8.92684 0.716358 0.527074 -1.20414 
35 1 8.45276 8.46974 9.28374 -0.128392 -0.529986 -1.31755 
36 1 3.01189 1.50254 8.08485 0.302711 -0.313331 -0.934947 
37 1 3.54845 1.01774 0.23349 0.926444 0.0882789 -0.0300641 
38 1 5.88952 5.44231 2.84625 -0.968951 -0.792294 -0.141267 
39 1 1.24336 4.17226 7.39958 -0.221343 0.907459 0.505689 
40 1 3.29433 6.16913 9.3344 -0.712276 -0.113561 0.354302 
41 1 6.40738 0.534547 6.42706 -0.549577 -0.0506896 -0.0546362 
42 1 0.739549 7.32558 5.91332 0.411719 -1.28991 -0.379621 
43 1 2.80913 2.77898 6.04968 1.06089 0.651427 -0.169916 
44 1 7.99593 4.48763 0.423001 0.962711 1.01713 -0.609545 
45 1 8.8926 0.922827 3.84441 -0.626993 -0.364757 0.210983 
46 1 5.64769 1.48388 1.67082 0.20988 0.549773 0.0844183 
47 1 8.93843 2.78969 3.84873 -0.314534 -0.0411962 -0.484632 
48 1 6.00408 2.83046 8.5118 -0.999451 -1.05705 -0.924141 
49 1 3.19538 9.39025 7.81083 0.559724 0.645003 -0.348057 
50 1 7.51927 6.00348 5.53023 0.528011 -0.713162 0.116589 
51 1 8.77156 3.60548 4.45456 -0.569769 -0.482368 -0.109937 
52 1 8.27572 3.66385 7.08982 0.749375 -1.41606 0.441292 
53 1 4.96295 5.12431 8.08705 2.35593 -0.185667 0.178862 
54 1 3.15701 5.02248 1.15477 -0.0961481 0.0750571 0.199415 
55 1 4.42859 5.64578 7.49248 -0.485403 0.482619 -0.255659 
56 1 0.649662 5.63838 9.28593 0.536916 -0.238767 -0.31292 
57 1 0.109497 1.71391 7.88654 -0.158625 -0.0760228 -0.237942 
58 1 8.66041 0.789751 1.95042 -0.28663 0.628562 1.13201 
59 1 9.1995 8.01693 0.755643 -0.33759 -0.779109 0.442924 
60 1 8.77567 5.14544 8.45064 2.15365 0.210666 0.123747 
61 1 4.89766 2.89737 1.11554 0.716733 -0.882656 -0.914831 
62 1 6.37825 7.50905 3.88183 -0.303679 0.376986 1.40959 
63 1 4.88341 6.37586 7.1094 -0.0828338 -1.01419 -0.270519 
64 1 9.14117 9.00946 6.05519 -0.617086 -0.183637 -1.42069 
65 1 0.144824 4.66074 6.71173 0.210225 -0.60987 0.766845 
66 1 3.73645 2.76671 9.25646 0.364467 -0.287467 -1.94404 
67 1 6.48809 7.02622 3.01387 -1.31455 -0.223613 -0.466104 
68 1 6.99025 8.98394 1.85743 -0.0190018 0.517265 0.108517 
69 1 3.95071 7.16723 8.22773 0.951533 0.764535 0.174101 
70 1 4.79481 9.282 8.88336 -0.243083 -0.355043 0.422864 
71 1 6.32421 2.40067 6.81492 -0.246549 -0.56158 0.130487 
72 1 7.19424 3.35574 0.48766 -0.538003 1.35158 1.1725 
73 1 5.46196 2.79879 6.54772 0.681247 -0.309545 -0.131449 
74 1 1.50717 2.15565 0.730276 -0.59889 0.894537 -0.692121 
75 1 8.54587 0.0671868 1.29655 0.11702 0.0315423 -0.554228 
76 1 8.64259 5.14909 0.66426 -1.32811 0.367814 1.20853 
77 1 1.74661 3.66711 8.10999 -0.222097 -0.647259 -1.09592 
78 1 8.11557 9.07331 5.95615 -0.112956 1.0331 1.25639 
79 1 9.33411 2.34569 1.40613 1.17382 0.819538 -1.10546 
80 1 8.13231 6.15584 7.01535 -1.87549 -1.13395 -0.556431 
81 1 9.19108 1.82433 3.74423 1.20966 0.226939 0.132025 
82 1 5.00773 8.336 8.84581 -0.140495 -0.876438 1.02745 
83 1 5.91616 3.61984 6.46563 0.437887 -0.329233 1.26463 
84 1 7.29095 1.7383 8.42201 -0.375608 -0.187528 -0.620693 
85 1 8.82866 5.5016 6.97457 -1.20555 1.45521 -0.518399 
86 1 1.07358 5.52343 4.30755 -0.540855 0.624489 0.527467 
87 1 7.65147 8.83919 6.7685 0.202606 -1.18851 0.35063 
88 1 5.7225 4.43899 8.06389 -1.77845 -0.687643 -0.658557 
89 1 6.04746 5.85873 3.90319 -0.217306 -0.557331 -0.409506 
90 1 9.10091 5.46559 9.26736 -1.11542 -2.30199 -0.887115 
91 1 0.131016 7.01788 8.87348 -1.04341 0.558309 -0.133686 
92 1 7.46012 3.8308 5.97036 -0.104446 -0.512441 1.92386 
93 1 7.04433 8.88633 4.52771 -0.512435 0.26607 -0.644613 
94 1 7.86759 9.28251 0.536357 0.197939 2.14353 -0.247869 
95 1 6.93836 0.819748 5.62711 1.21727 -0.39909 -0.486155 
96 1 6.63661 9.0491 6.171 -0.969255 0.405927 1.95825 
97 1 6.95713 0.325133 7.89401 -0.00140815 -1.41497 -1.07461 
98 1 5.39447 2.70483 2.97785 0.0588539 -0.0751129 0.94894 
99 1 1.97744 8.46433 5.59167 -1.18327 0.0425591 0.109747 
100 1 4.20875 8.3644 1.09407 0.598798 0.2998 -0.682706 
101 1 6.16355 4.72318 0.424572 1.45858 0.00253655 0.631982 
102 1 5.05626 8.73846 3.42946 -1.30186 2.02335 -1.07696 
103 1 6.26132 3.74618 8.56214 0.966562 -1.15368 1.09845 
104 1 4.08246 4.98188 0.718624 1.3781 -0.602673 -0.445373 
105 1 8.12339 5.30006 1.44282 0.254516 0.420308 0.664972 
106 1 7.42463 8.8602 7.93406 -0.587121 0.268074 0.935135 
107 1 0.97183 0.707867 0.168912 0.379167 -0.877432 -0.825032 
108 1 6.97718 7.12205 1.54284 -0.336865 -0.558855 0.659347 
109 1 6.22913 0.0133256 2.28665 0.706847 0.256077 0.685724 
110 1 0.518738 4.99743 1.45889 -0.214857 0.776362 -1.09424 
111 1 1.2497 7.85244 7.71771 -1.14942 1.25987 -1.24127 
112 1 7.40289 0.759775 2.9964 -0.33919 -1.79384 1.22931 
113 1 7.90756 8.73255 4.15864 -0.664514 0.995322 -0.11163 
114 1 6.22807 8.62726 1.30028 0.573761 2.01352 0.203525 
115 1 3.21275 7.0564 6.82444 0.350992 -0.128898 -0.453626 
116 1 0.104867 0.428242 1.56261 -0.379184 0.101528 0.853729 
117 1 6.9537 8.06837 1.60938 -1.17508 0.116305 0.411809 
118 1 0.79017 2.21611 5.22306 0.321911 0.0669896 0.426779 
119 1 9.15517 4.98724 5.18159 -0.148018 -0.901806 -0.803927 
120 1 6.80275 8.11453 0.673006 -0.896236 0.655655 0.294029 
121 1 9.35492 4.40498 8.41355 -0.611545 -0.161136 -1.71412 
122 1 1.4333 8.09385 8.6253 0.629162 0.798043 -0.0831521 
123 1 2.16734 2.19941 0.0197554 0.663128 0.0167013 -0.422405 
124 1 7.07884 0.730015 0.856104 0.224714 1.71912 0.754175 
125 1 5.65876 1.12229 6.69586 -0.745094 -0.602908 -1.12677 
126 1 3.68225 0.0667748 9.29493 -0.400865 0.266748 -1.76941 
127 1 8.40994 4.82843 4.52626 0.0752763 0.55492 -0.68392 
128 1 1.80564 0.325652 0.447792 -1.08645 -1.02394 0.155544 
129 1 7.88053 6.93979 1.63316 -0.783386 -0.283607 -0.366276 
130 1 1.61321 8.98536 4.84288 0.12448 0.902737 0.479372 
131 1 6.52969 3.67932 5.74848 0.385 0.82161 -0.823024 
132 1 6.54394 1.48447 6.49868 -0.185047 -0.504416 -1.91203 
133 1 7.44859 1.30019 6.27326 0.732479 0.31845 0.235534 
134 1 2.28575 9.17983 7.40464 -0.927911 0.135898 0.24581 
135 1 0.00373953 7.27859 6.68322 -0.521409 1.43811 -0.159002 
136 1 2.37007 9.17129 8.35886 -0.956856 1.10175 -0.81044 
137 1 8.52798 0.697527 2.9576 0.0978884 1.87019 -0.758208 
138 1 2.47602 3.41074 5.34836 0.0617379 -0.681001 0.10941 
139 1 5.77558 6.79318 3.62027 -0.35826 0.754893 0.0800175 
140 1 4.01243 5.36858 1.57926 0.417769 0.0941747 0.0765913 
141 1 0.701733 2.90917 2.31142 1.03463 -0.616398 -0.0270605 
142 1 1.27603 1.42781 4.7904 -0.403645 -1.3429 -0.148114 
143 1 8.61431 4.23236 1.10398 0.847388 1.08668 -0.223108 
144 1 2.92781 0.793215 4.76361 -0.0439144 0.032861 1.27036 
145 1 0.732837 8.7146 8.8623 1.11818 -0.31444 -0.20987 
146 1 1.22413 3.04829 5.09619 -0.310872 -0.398438 0.407715 
147 1 0.904871 7.46115 6.86483 -1.02699 -0.151305 0.464701 
148 1 2.56393 5.29336 7.44139 -1.09976 0.856487 -1.12748 
149 1 5.40763 2.30987 3.87831 0.889413 1.4372 1.09586 
150 1 3.13029 3.97159 5.77715 0.0661687 1.0549 0.938677 
151 1 7.82578 8.78791 2.29207 -0.0904639 0.420911 0.409539 
152 1 7.66734 5.38441 0.575286 0.681039 0.254514 0.273003 
153 1 1.82842 8.34515 7.10798 -0.686665 -0.590545 -0.906064 
154 1 8.35441 1.57482 3.32365 1.34532 -0.963143 -1.53816 
155 1 5.78243 5.00562 1.97882 0.039239 1.35951 -0.0600828 
156 1 1.56016 8.123 0.161585 -0.292557 -0.407517 0.609575 
157 1 8.72954 9.27794 2.30692 0.974711 -0.485599 0.805966 
158 1 3.06551 4.74089 8.08904 -0.832796 0.33626 -0.0328882 
159 1 3.9432 4.33212 1.49656 0.0416986 0.206485 1.21825 
160 1 0.176836 2.26482 9.29564 2.32884 0.361003 -0.115388 
161 1 0.0390444 7.36658 1.39885 -0.207739 0.0733644 -1.48101 
162 1 8.61215 2.70545 4.77692 0.804725 0.868889 0.6458 
163 1 7.60131 0.147922 1.42303 0.774605 0.21139 -0.679263 
164 1 6.34931 4.98326 7.50116 0.640583 0.02422 0.857045 
165 1 6.63351 7.53231 8.58593 0.0688841 -0.305506 -0.31095 
166 1 4.24221 2.66678 5.48378 -1.16267 -0.320975 -0.691289 
167 1 3.61012 7.67648 7.48098 1.38645 0.309492 -0.233958 
168 1 3.91809 3.98457 9.24918 1.70536 1.00344 0.761542 
169 1 8.18684 5.98708 3.00919 0.693137 -0.345148 1.07743 
170 1 7.09199 4.18029 8.46305 -0.326781 -0.292971 -1.38983 
171 1 2.61892 0.84076 0.179681 1.18446 0.635236 1.04023 
172 1 8.75204 5.40025 2.43251 -0.114562 -0.615565 1.77922 
173 1 0.340037 6.05858 3.93296 0.167752 -0.586299 0.330775 
174 1 7.67911 3.02796 4.39828 0.333636 -0.514665 -0.864703 
175 1 2.44841 8.57877 6.43204 0.342911 -0.646206 1.62221 
176 1 1.41947 4.9776 5.51554 1.14412 -0.0957809 0.518937 
177 1 6.02732 1.13518 5.7868 0.147704 0.266746 -0.566837 
178 1 5.84078 8.18743 0.545776 -1.33446 0.271169 0.213927 
179 1 2.95665 4.00651 7.50302 0.956433 0.491731 0.658339 
180 1 4.46902 2.7001 1.9288 -0.279786 0.819672 -0.809461 
181 1 4.75708 2.99784 3.79059 -0.674907 -0.0991947 1.18732 
182 1 3.83716 2.61972 3.61859 0.0696217 -1.38135 -0.714023 
183 1 9.10129 2.89539 2.16131 0.112286 0.206098 1.1189 
184 1 0.883525 4.16506 8.52777 -0.67146 -0.682998 -0.63114 
185 1 7.08969 4.54101 2.04028 0.59956 1.47751 -0.354421 
186 1 8.63557 9.03392 6.9023 -0.992042 0.992463 -0.453184 
187 1 0.870997 3.43625 7.88715 1.50012 -0.417625 1.10115 
188 1 1.17504 5.87791 5.20715 -0.133934 -0.381293 1.4487 
189 1 6.32391 3.12672 0.0249305 -0.409505 0.0149064 -0.698545 
190 1 6.85834 7.20754 4.65298 -0.397227 1.14966 -0.97228 
191 1 3.98906 8.03559 5.63837 -0.517817 0.172021 -0.113985 
192 1 1.18341 7.29768 4.97507 -0.151648 -1.72549 -0.242884 
193 1 6.27158 3.79372 0.763498 -0.0357246 -1.67366 1.23464 
194 1 7.47412 2.68457 1.20483 0.0816827 1.71154 1.32188 
195 1 6.15509 0.975125 2.36963 -1.57828 0.133501 0.735494 
196 1 5.47905 1.74874 3.06893 0.778386 -0.279809 -0.023496 
197 1 0.123025 9.16381 7.29378 -0.416687 -0.694341 0.453524 
198 1 0.904771 4.05872 0.154802 -0.852925 1.56818 1.07504 
199 1 7.89911 0.34285 2.30974 -1.52802 -0.693987 0.667533 
200 1 8.49819 8.62738 0.803246 -1.09425 -0.385145 1.8679 
201 1 8.5736 3.07672 8.16053 0.971376 0.143144 0.00641209 
202 1 0.533407 8.58499 7.93936 -0.964348 -0.197856 0.0491867 
203 1 7.94907 0.782676 3.77881 -0.441183 -0.254674 -0.626923 
204 1 4.26315 8.41662 6.47617 1.16716 -0.514109 -0.646488 
205 1 0.858093 1.65383 0.183762 -0.138427 0.683017 -1.00941 
206 1 7.8849 1.93613 7.67919 1.2512 -0.0604523 -0.110993 
207 1 6.52699 5.05691 3.47402 -0.417715 0.434472 -0.271102 
208 1 3.11968 9.04079 6.90277 -0.2554 -0.853415 -0.591618 
209 1 4.99154 1.41474 3.79789 1.15673 2.92869 0.787596 
210 1 8.12206 4.9638 3.00444 0.20356 0.388125 -0.424354 
211 1 3.83621 8.16397 8.24725 0.468424 0.377326 -0.822924 
212 1 4.66731 7.12425 0.307114 -0.0687147 -0.189585 -1.01225 
213 1 0.560282 6.63426 5.21726 -0.577697 -0.608733 -0.126057 
214 1 7.71865 4.46258 1.32216 0.0299123 -1.25861 -1.25972 
215 1 8.5551 1.23111 0.119487 -0.132603 -1.30851 1.07151 
216 1 1.66433 1.89636 8.68957 -0.240212 0.79753 -0.717492 
217 1 8.79864 4.54199 9.31547 0.947601 -0.376135 -0.103744 
218 1 0.364557 3.19436 1.4669 0.566201 -0.489331 -0.0613618 
219 1 5.45576 8.33495 2.66615 -0.691597 1.12546 -0.0597638 
220 1 8.03674 3.99459 2.86762 -1.21051 0.0720664 -0.0717962 
221 1 1.11803 5.76337 3.37123 0.350926 -0.178631 -0.612443 
222 1 3.47636 7.09941 9.06686 -1.78519 0.549408 -0.087294 
223 1 5.56574 8.52412 8.12218 -0.724638 0.813434 -0.981913 
224 1 3.60376 5.8356 0.802039 0.952427 0.305624 -1.15916 
225 1 0.108485 0.291709 4.20135 -0.0611866 0.130768 -0.431153 
226 1 6.54741 4.08404 3.43383 0.412009 -1.23082 1.00619 
227 1 3.83906 1.13886 4.91568 -0.896997 0.208673 0.333052 
228 1 6.96942 4.35049 4.32959 -0.870423 0.338293 -0.0899605 
229 1 6.4371 5.61448 0.973632 -0.132362 0.466665 -0.456841 
230 1 8.24157 4.98563 7.6428 0.116197 1.2345 1.70016 
231 1 4.36635 1.37805 1.96234 0.871117 0.615339 -0.342924 
232 1 8.6535 2.0482 2.07569 -0.00668923 1.00535 0.0530031 
233 1 8.89172 7.65358 3.32653 -0.92472 -0.127653 -0.260454 
234 1 3.59207 3.36621 0.54985 -1.04848 -0.224581 -1.73687 
235 1 0.575339 6.35415 6.11365 -0.284218 0.143182 -0.305899 
236 1 5.62608 7.57255 4.52719 0.761912 0.336308 -0.554306 
237 1 3.23516 0.309671 6.22416 1.92574 0.602816 0.384426 
238 1 2.10313 3.68822 7.21938 1.68444 0.351419 0.387096 
239 1 0.868929 6.4514 0.430183 -0.407751 0.418947 0.457544 
240 1 6.2999 2.05872 1.05369 0.582816 -0.178242 0.08645 
241 1 6.41187 5.86692 4.85661 0.308008 0.213786 -0.104296 
242 1 4.48575 3.17697 0.284561 1.16449 0.972743 0.257176 
243 1 9.1594 8.86469 4.49866 1.07649 -0.113441 -0.326408 
244 1 3.54772 4.67368 6.30308 0.00169321 0.375646 -0.00561588 
245 1 2.95517 8.15615 5.71559 0.759115 0.624155 0.521583 
246 1 3.73807 4.78244 8.77177 -0.353036 -0.165629 0.169128 
247 1 3.31323 8.13412 6.67185 0.0637863 -1.349 -0.557897 
248 1 8.24321 5.18242 5.40505 -1.49796 0.858335 0.575914 
249 1 4.27928 7.3382 1.17728 0.344935 -0.671076 -0.0684217 
250 1 8.6979 7.44982 5.24246 -1.58668 -0.549945 -0.141212 
251 1 9.27582 6.75169 3.38172 0.451379 -0.390975 -0.354705 
252 1 9.09562 1.617 8.76814 0.426946 -1.41849 0.189148 
253 1 6.98177 5.15167 5.08829 0.521388 0.147835 -0.152245 
254 1 8.96084 0.863687 0.915068 -0.629455 -0.473981 -0.971173 
255 1 8.96161 6.34001 2.55568 -0.141808 0.358456 -1.25181 
256 1 4.92648 2.79393 7.33515 0.0906875 -0.563881 0.0377203 
257 1 4.7769 0.47812 3.37203 0.484262 -0.704123 0.893532 
258 1 6.20304 2.90809 2.25711 0.0805521 0.152637 0.240597 
259 1 2.11699 1.09945 6.4088 -0.145201 -0.072973 -0.429458 
260 1 5.79746 4.34045 5.83395 -1.17919 -1.60721 -0.321162 
261 1 8.21331 4.51546 6.05043 -0.0801936 1.15009 0.313055 
262 1 2.02059 5.08781 6.25456 0.507677 0.378195 -0.383459 
263 1 7.64282 8.93361 8.94951 -0.972469 -0.793942 1.67516 
264 1 7.59682 4.4559 5.25234 0.850386 0.490584 -0.251684 
265 1 5.49555 7.76329 3.52894 -0.202001 -0.0993962 0.668003 
266 1 1.37152 0.365721 6.37075 -1.69785 -0.430067 -0.734315 
267 1 5.01882 1.95285 7.95648 1.39268 0.29212 -0.572247 
268 1 2.76199 3.01349 6.99503 0.993722 -0.703768 0.597495 
269 1 9.39457 4.09694 1.60142 0.514132 -0.691986 0.233852 
270 1 7.21473 6.33518 4.68167 1.34579 -0.342149 -0.168883 
271 1 8.63703 4.52388 6.90204 0.18758 0.565657 -0.154444 
272 1 4.39374 0.348435 4.83424 -0.294974 0.743279 -0.370255 
273 1 0.719837 0.17097 7.90749 0.966647 -0.58174 1.22137 
274 1 6.07607 7.68017 6.70655 0.467412 -0.327145 0.68582 
275 1 4.88997 7.37209 1.94283 -0.260725 1.32266 -1.57342 
276 1 4.04953 7.50092 6.65566 -0.305713 -0.748901 -0.673274 
277 1 8.50001 7.24302 6.36146 -0.182536 -1.20732 1.31771 
278 1 0.943406 2.82691 6.00566 0.343073 -0.0265681 0.0608809 
279 1 5.36306 6.99359 5.29532 0.0343213 1.63187 -0.424214 
280 1 1.87894 0.586975 4.80099 -0.382827 -0.176585 0.08761 
281 1 1.79454 6.49744 8.35399 0.346111 -0.468405 -0.316842 
282 1 6.23774 2.65154 4.18616 1.41653 -0.276873 -0.120052 
283 1 8.91088 1.48635 7.04897 0.752262 0.913311 -0.201366 
284 1 4.50484 2.39869 6.38201 1.80811 1.02246 -0.955293 
285 1 8.4817 9.24389 5.07961 -0.751285 -1.16505 -0.632796 
286 1 8.19396 6.04743 2.0006 -0.140955 -0.217175 -0.217182 
287 1 1.23189 2.49785 9.29643 0.0407516 -0.425254 1.01929 
288 1 0.207979 2.10974 2.26029 -0.828908 0.408354 -0.726873 
289 1 1.10611 5.83464 7.09752 0.594774 -0.895597 0.323729 
290 1 2.88138 2.7646 0.240665 -0.364522 0.548019 1.23033 
291 1 5.93839 6.87759 8.96957 -1.32923 0.880842 0.1995 
292 1 8.61675 2.2085 9.36262 0.733237 0.399571 -0.313667 
293 1 0.457109 2.57699 3.90849 0.321103 -0.369417 0.123519 
294 1 5.62685 7.97983 1.77409 0.596665 -0.00336886 -1.06642 
295 1 8.99655 4.98763 1.5801 0.0744044 0.490829 -0.245441 
296 1 4.21634 1.9385 4.21763 0.167578 -1.52927 -1.7234 
297 1 1.27192 1.06464 8.68174 -0.490893 -1.10071 1.01443 
298 1 2.52183 1.37634 7.25702 -1.2771 -1.21774 0.8434 
299 1 6.58914 6.06944 3.07247 -0.395068 0.420217 -1.05812 
300 1 3.34607 8.04427 9.08502 0.44847 1.05534 -0.167647 
301 1 1.4473 6.6686 5.69294 -0.827709 0.110356 0.159447 
302 1 5.05034 3.64712 6.88374 -0.615498 -0.0341335 -0.628771 
303 1 7.3583 5.88244 6.52878 -0.740362 -1.08204 0.254791 
304 1 3.76054 1.6582 3.43383 0.0436752 0.167419 -0.0145394 
305 1 6.3908 4.30865 5.06224 -0.225378 1.50128 -0.00232969 
306 1 3.98757 1.84511 0.0310554 0.461535 -1.58827 0.372523 
307 1 5.43909 3.06005 4.50047 0.177723 -0.250651 0.490452 
308 1 1.67906 4.24648 6.54002 0.750351 -0.115093 0.809729 
309 1 2.14341 3.89471 9.37511 -1.4346 1.37174 0.492048 
310 1 7.35294 4.59067 7.63311 -0.329474 -0.343536 1.3285 
311 1 1.02573 5.42222 2.15546 1.19021 -1.0156 -0.749912 
312 1 4.75358 1.99065 1.33806 1.08611 -0.714616 0.0470535 
313 1 5.14339 0.437884 0.313583 -0.0996532 0.48939 1.22045 
314 1 7.89914 7.08034 7.14792 0.027491 -0.679671 0.750097 
315 1 6.93703 5.18259 8.31827 1.48371 1.12754 -0.310777 
316 1 8.71866 8.56961 3.68301 -1.59524 -0.743328 -0.337447 
317 1 5.77472 5.48963 9.3707 0.507959 0.346347 0.201181 
318 1 8.80212 0.725965 8.71116 0.407548 0.81814 -0.321664 
319 1 4.52619 8.09424 7.30568 -0.852953 1.35403 -0.510276 
320 1 0.969576 1.10395 7.76353 0.423578 0.270308 0.784082 
321 1 4.63381 5.70375 6.49015 0.25436 0.44061 0.674221 
322 1 6.23744 7.43672 5.3009 0.433806 -0.270962 -0.229907 
323 1 1.51084 5.72989 0.301154 0.698346 -0.988267 0.649237 
324 1 7.26305 7.99433 4.25257 0.367096 0.694859 -0.338772 
325 1 8.7342 0.198731 0.262291 0.374533 1.69726 -1.32763 
326 1 0.00712838 6.07352 8.54004 0.388114 -0.352284 -1.04981 
327 1 7.15916 2.25946 6.35585 1.29444 0.459257 0.69265 
328 1 3.31854 3.75742 6.68043 0.308429 -1.57392 0.942108 
329 1 4.91155 2.29966 4.77369 -1.00044 1.0653 -0.773905 
330 1 8.80097 6.73954 1.72978 1.58332 0.708897 1.12579 
331 1 1.14406 4.84005 2.98755 -0.0940276 -0.912042 0.679801 
332 1 7.13156 3.64145 4.99845 -0.155946 0.194506 -0.266026 
333 1 6.80719 9.2306 7.10252 0.209839 0.819498 0.237123 
334 1 7.44522 3.91683 3.60165 0.592426 -0.604665 0.661482 
335 1 7.09842 2.51957 3.74448 -0.69504 -0.154713 0.651623 
336 1 6.30205 3.92197 1.93244 -0.44269 0.0779115 0.706063 
337 1 5.29543 0.688812 8.77919 -0.953141 0.662246 0.0593286 
338 1 8.00262 4.54279 8.46027 -0.500978 -0.32656 0.405301 
339 1 4.47615 4.91457 5.95147 -0.113568 -0.0787302 0.90835 
340 1 7.84035 5.50442 8.34098 0.532286 -0.121362 0.267451 
341 1 6.76675 2.39089 8.85447 -1.33456 0.899754 0.0944187 
342 1 8.37411 9.13689 7.79968 0.496424 -0.63791 1.37951 
343 1 4.93916 9.12695 6.46541 -1.40069 0.54168 -0.741711 
344 1 0.506912 1.55509 7.06051 0.933369 0.35789 -0.727447 
345 1 7.12995 6.17431 1.54971 -0.887126 0.0685126 -1.31959 
346 1 5.95107 3.6695 2.77923 0.227099 -0.525027 -0.214955 
347 1 7.11368 1.74915 7.19725 -1.73291 -1.27511 -0.769592 
348 1 1.58569 1.60535 7.03443 0.791436 -1.36721 0.758532 
349 1 3.02377 8.47972 7.72828 -0.279552 0.571322 0.615617 
350 1 6.97771 2.41382 0.413227 0.390637 -1.03062 0.135018 
351 1 0.866223 8.41326 7.05674 -0.396455 -0.389058 -0.601838 
352 1 6.31262 8.97585 0.195779 0.323972 0.10346 -0.0815159 
353 1 6.61949 6.57669 5.45012 -0.0888625 0.282135 0.889677 
354 1 9.32445 1.40955 1.66248 -0.84469 0.316501 -1.32259 
355 1 8.41758 2.43157 1.21199 0.616456 0.885946 -0.896206 
356 1 8.10186 8.31113 7.3957 -0.222468 -0.692963 0.87647 
357 1 1.07234 3.31715 0.801397 1.3162 -0.885215 -0.0364094 
358 1 0.305423 5.60627 6.63348 0.165415 -0.312295 0.735825 
359 1 6.42046 8.1467 5.93162 0.196773 -0.0923548 -0.699384 
360 1 5.34716 1.64476 5.37896 -0.142759 -0.830931 -0.0744768 
361 1 8.2471 7.63827 8.87769 -0.910045 -0.849954 0.100903 
362 1 6.64408 5.50957 2.19072 -0.16918 0.261994 0.496243 
363 1 0.0374693 3.4636 8.32822 1.17781 -0.17555 -0.264195 
364 1 5.22068 0.0907231 8.03217 -0.636717 0.695374 -0.214525 
365 1 4.11544 2.86133 4.54376 -1.49787 0.373636 0.355178 
366 1 5.47409 1.7774 0.770817 -0.0457154 0.0683871 -0.372401 
367 1 1.41911 8.88905 8.11009 -0.325123 -0.468675 0.588878 
368 1 1.49238 5.68961 8.73217 0.144067 1.6248 -0.233099 
369 1 8.65745 2.85873 6.73836 -0.195669 -0.615247 0.832022 
370 1 0.742957 3.96779 6.4366 0.293288 0.0363679 0.933943 
371 1 4.97876 7.01513 8.70244 0.619985 -0.151653 0.460352 
372 1 4.585 8.74623 8.08804 0.448417 0.631108 1.79193 
373 1 4.88687 5.74488 1.38346 0.150615 0.423885 -0.865929 
374 1 3.19234 3.71583 1.49307 0.770726 -2.39146 -1.07223 
375 1 7.83583 7.85366 1.96693 -0.292197 -0.754353 1.81128 
376 1 0.139958 5.81793 7.56811 0.362417 0.497238 0.171756 
377 1 6.84456 3.20655 6.4881 0.960907 0.953572 -0.936797 
378 1 0.712723 0.565409 6.9997 -1.00898 -1.49459 0.966013 
379 1 7.05725 1.4682 2.3769 -0.191579 -0.579498 0.0846287 
380 1 0.278187 7.7212 7.54908 -0.0691104 0.0327444 1.89885 
381 1 0.626305 4.47876 5.62692 -0.108762 1.03744 -0.334559 
382 1 4.05974 3.32326 1.3417 0.91886 -0.697986 -0.462657 
383 1 5.28388 5.21975 7.11072 1.36995 -0.270624 -0.644201 
384 1 8.3501 2.18869 8.45941 -0.0197017 1.27181 -0.733267 
385 1 6.1069 2.16025 0.084942 0.334087 -1.26306 -0.259785 
386 1 6.43119 1.2878 4.91425 -0.362088 1.1744 0.323192 
387 1 6.53885 4.06217 7.69522 -0.848637 -0.68469 0.030764 
388 1 2.07258 2.91712 4.62855 -0.432502 0.455555 -0.713525 
389 1 3.25445 1.99096 0.708415 0.138853 -0.604286 0.54357 
390 1 0.949719 4.96145 0.598067 0.645893 -0.0301031 -0.694634 
391 1 5.2057 1.04031 2.39854 -0.170867 -0.660475 -0.850672 
392 1 8.57755 0.562021 7.42482 0.539244 -0.562496 0.16388 
393 1 5.6071 0.78491 5.01777 1.25249 -0.305427 0.227899 
394 1 8.40931 1.28445 6.1563 1.55617 -0.176503 0.5271 
395 1 2.87793 4.9918 5.68939 1.37857 -1.02068 0.219463 
396 1 6.05687 0.809484 4.132 1.11716 -0.753201 0.899476 
397 1 8.89642 6.69791 7.38052 0.251792 0.993132 -0.454952 
398 1 5.75589 6.40838 2.69518 0.361715 0.678551 0.719061 
399 1 5.57642 3.36846 5.62952 -0.775501 -0.323804 0.0617693 
400 1 1.42644 3.74136 5.74799 0.0638449 0.721178 0.143175 
401 1 0.617765 1.26429 2.35982 0.233789 -1.76037 0.897113 
402 1 0.456723 6.1452 2.81729 0.428312 -1.49974 0.338449 
403 1 3.3749 3.02885 5.24877 0.348343 -1.03551 -1.09338 
404 1 0.481217 0.486746 5.95117 -0.915071 0.716689 -0.194494 
405 1 0.714067 5.01486 7.39569 -0.639931 0.76349 0.0718456 
406 1 0.261926 4.07357 7.51793 -0.681102 -0.326828 -0.820413 
407 1 8.13935 6.8203 2.53182 -0.40122 -0.0102108 0.879547 
408 1 0.492578 7.84513 8.56584 -1.1553 -0.244329 -0.0644494 
409 1 6.99776 9.03435 0.865031 -1.05793 -0.170684 1.19032 
410 1 8.61742 8.39314 5.49869 -0.243716 -0.26049 -1.01793 
411 1 8.273 5.81713 6.1269 -0.587614 0.223624 -0.678173 
412 1 3.88162 0.900548 5.8521 0.189739 -0.457372 -0.541691 
413 1 8.11119 2.91712 1.96792 0.383129 -1.1036 -0.107739 
414 1 7.08437 7.92316 5.22831 -0.920834 -1.17494 0.540285 
415 1 8.44113 6.02331 0.313299 0.00297146 -0.016223 -0.083688 
416 1 7.75287 3.04428 6.53475 1.8364 1.10459 0.0477891 
417 1 9.01831 8.46054 7.67647 -0.282627 0.465252 1.91568 
418 1 6.61015 3.14189 3.20549 0.156487 0.448878 0.455535 
419 1 0.342968 0.903861 8.4976 0.341614 0.940356 0.217687 
420 1 6.05191 5.14699 5.38103 -0.966228 0.152845 -0.172412 
421 1 2.34869 6.69972 6.5141 -0.469574 0.546127 -0.33875 
422 1 5.91317 2.37635 5.05974 0.145819 0.370635 0.0667209 
423 1 4.28513 3.65679 2.23423 1.20645 -1.23413 -0.713942 
424 1 6.97352 7.40166 6.03 -0.178911 0.751147 0.494669 
425 1 4.92679 5.4209 0.459942 -0.725347 1.06098 0.968691 
426 1 1.80964 0.0691982 5.61681 -0.366188 0.29528 -1.02437 
427 1 1.82707 1.94567 1.60391 -0.605672 -0.232395 0.373732 
428 1 0.549681 4.85123 4.69898 0.293184 -0.973466 -1.08287 
429 1 6.10293 1.64079 7.33957 1.42847 -1.91559 0.0460009 
430 1 4.86347 2.30537 0.29082 -1.09319 1.76005 -0.638107 
431 1 7.81397 6.82212 8.75995 -1.57131 -0.125559 0.451774 
432 1 9.33879 8.91502 1.17945 0.376387 0.119766 -0.804739 
433 1 1.88043 5.09158 0.909442 0.254268 -1.2718 1.22139 
434 1 8.42698 3.60503 6.13669 0.604437 0.679311 -0.574077 
435 1 5.48813 6.21799 8.45369 0.809597 0.85797 -0.164057 
436 1 6.76855 4.02954 9.36341 0.256284 0.590439 -0.881757 
437 1 6.97163 2.36777 2.7372 -1.20815 -0.50678 -0.271652 
438 1 8.51925 0.0605333 4.08731 0.968082 -0.550592 1.03749 
439 1 5.35679 4.17896 2.24041 0.496311 -0.664715 -0.465338 
440 1 2.62298 6.80267 0.179542 -1.14724 -0.823489 0.432279 
441 1 0.0513805 3.66084 0.707305 -0.0888216 -1.00015 0.994175 
442 1 8.01463 0.80733 0.783427 -0.0513498 0.493225 -0.442082 
443 1 3.50459 6.35056 8.40248 1.0078 1.82263 -0.638715 
444 1 1.47588 3.31613 6.60329 1.17024 0.772547 -0.835834 
445 1 6.52138 6.54801 2.17007 0.965888 -0.00148639 0.413838 
446 1 2.14497 8.28736 7.99445 0.115929 -0.4302 2.00469 
447 1 6.56532 1.21865 1.53597 0.640188 1.49287 0.39953 
448 1 5.62032 5.17911 1.07011 -0.235178 0.0838161 -0.596375 
449 1 7.13262 2.68271 7.23869 -0.712206 -0.0264277 -0.504616 
450 1 4.03532 2.10383 2.57293 1.0429 0.456286 0.38918 
451 1 6.96736 5.62804 4.09369 -0.800281 -1.69317 0.89828 
452 1 7.70833 0.210148 7.31106 0.443372 -0.977017 -0.615269 
453 1 5.89874 9.32867 4.64222 0.729636 -0.00506633 0.549535 
454 1 9.35248 8.32279 6.78939 -0.457085 0.295483 -0.238483 
455 1 4.33587 0.00373043 5.76027 0.340762 0.855289 -0.955823 
456 1 2.52966 0.661616 7.94892 0.549977 0.952 0.906565 
457 1 1.6627 5.01857 7.14455 0.839565 1.27708 -0.878402 
458 1 7.34219 4.80388 9.13339 0.749597 1.13401 -0.870964 
459 1 1.43305 1.22557 0.959901 -0.234078 -0.607662 0.887326 
460 1 1.87764 2.85894 5.82554 -0.359471 0.214618 0.489413 
461 1 9.16267 1.78 0.658816 -0.487435 0.31104 -1.11424 
462 1 5.63275 5.98569 7.54457 -0.886738 -0.18131 -0.754985 
463 1 6.89368 2.61201 4.85837 0.597124 -0.0215942 -0.712519 
464 1 7.96231 6.49135 7.88286 -0.365599 -0.0716715 0.894971 
465 1 6.97073 3.79369 2.62558 0.0498909 0.639207 1.31456 
466 1 2.37218 3.5863 6.30641 -0.0290321 -0.447987 -0.00758821 
467 1 1.2795 2.3541 4.3678 -0.2863 1.23737 -1.12148 
468 1 0.868814 6.43945 8.866 0.699763 -1.00896 -0.0937217 
469 1 0.0762147 1.03166 0.0329008 -0.183285 -0.359711 -0.5408 
470 1 7.61196 5.31137 2.28296 -1.02728 1.20001 0.151575 
471 1 0.987547 0.713503 4.16028 -1.43485 -1.04503 -0.582089 
472 1 0.5075 5.41044 5.72006 -0.950963 -0.83346 -1.23789 
473 1 0.196403 6.44588 1.12314 0.726494 -0.867527 -0.372693 
474 1 6.47875 1.39684 3.16114 -0.819026 -0.282494 -0.939191 
475 1 5.16401 8.83207 7.32737 -0.830098 0.0688017 0.315351 
476 1 4.04033 1.47626 0.956548 -0.582465 -1.10273 0.011358 
477 1 2.81981 1.97646 1.58151 0.33921 0.262443 -0.308923 
478 1 4.13098 2.65988 7.94879 -0.5089 -0.680197 0.91651 
479 1 5.5431 8.47397 4.9799 0.362093 -1.14365 0.259579 
480 1 0.278579 5.21576 2.71607 -0.110469 -0.462679 -0.551545 
481 1 5.74237 9.33386 0.887126 -0.66859 -0.28786 0.311252 
482 1 6.33742 7.58461 7.65952 0.87581 -0.56039 -0.4311 
483 1 6.31567 3.25094 7.23946 -0.354576 0.627078 -1.47604 
484 1 0.252001 3.06003 4.74573 0.351337 1.27337 -0.100748 
485 1 3.77012 4.64226 5.3643 0.107465 -1.10891 0.648995 
486 1 0.310725 6.7251 2.06551 0.962991 1.34405 -0.264153 
487 1 2.63708 3.55892 0.734765 -0.612117 0.705129 0.771565 
488 1 7.48711 5.1443 5.94658 -0.289265 1.17191 -0.0265291 
489 1 1.07416 6.47458 4.42653 -1.50207 -0.072504 -0.178557 
490 1 8.88031 0.529972 5.77849 0.37824 1.95507 0.0330779 
491 1 0.0540012 2.37396 6.93277 0.56156 -0.704061 0.987352 
492 1 5.76449 6.10286 5.58661 0.73791 -0.631358 0.0727402 
493 1 0.461713 2.03378 6.13666 -0.308375 1.35189 0.388194 
494 1 2.37852 5.9878 9.00536 -0.868187 1.87525 -0.471955 
495 1 8.69515 4.07995 7.81137 0.894336 1.76719 -0.610248 
496 1 8.55474 8.16937 4.58602 0.167121 0.10945 -0.975252 
497 1 7.77286 6.15178 3.90269 -0.919585 0.872733 -0.593008 
498 1 7.93003 3.54051 1.09104 0.709575 -0.108093 -0.136591 
499 1 3.24197 8.86861 8.62542 -0.651996 0.214064 0.70104 
500 1 7.40427 9.38431 3.67454 1.65789 -0.486414 1.20534 
501 1 0.600283 9.14259 6.50329 1.16041 -0.0088751 0.90334 
502 1 7.1938 6.21839 8.32603 0.520185 0.114795 0.164573 
503 1 7.59083 1.06746 1.64102 -0.697546 -0.209808 1.13752 
504 1 1.34573 5.78126 6.15212 0.0295877 0.210452 0.79822 
505 1 9.08877 2.77659 0.583184 0.691802 -1.04573 -0.0913429 
506 1 2.66575 6.82711 8.62483 1.14899 -1.26618 -1.19614 