ITEM: TIMESTEP
1533
ITEM: NUMBER OF ATOMS
1000
ITEM: BOX BOUNDS pp pp pp
0.0000000000000000e+00 9.4000000000000004e+00
0.0000000000000000e+00 9.4000000000000004e+00
0.0000000000000000e+00 9.4000000000000004e+00
ITEM: ATOMS id type x y z vx vy vz 
1 1 4.62681 2.89077 8.36622 1.28431 -0.84855 0.49267 
2 1 0.692799 4.66399 1.85317 0.0457525 0.0360155 0.304475 
3 1 4.85272 8.97648 4.95371 -0.0602387 -0.741548 -0.231925 
4 1 1.0066 0.121855 0.820271 -1.22689 0.179971 -0.954581 
5 1 7.43748 5.96533 5.80886 0.354294 0.0274209 -0.601821 
6 1 5.36138 2.28885 8.1911 -0.223821 -0.31053 -0.632646 
7 1 8.41496 5.15388 7.53439 0.518386 0.60636 0.481588 
8 1 2.78447 0.996401 2.05409 -0.110134 -0.221653 -0.808339 
9 1 0.821376 8.83312 2.40831 -0.548504 -1.27008 0.568679 
10 1 8.65609 5.24622 5.9372 -0.343504 -0.236662 -0.5486 
11 1 3.92512 5.64323 7.09655 -0.862722 -0.648833 1.14213 
12 1 0.654768 6.44152 5.51874 -0.179093 -0.587634 -0.367326 
13 1 8.86648 5.39503 0.151333 0.513885 0.219012 0.007666 
14 1 2.47295 5.24508 6.21196 -0.216644 -0.871384 1.45591 
15 1 8.66166 7.26955 0.716616 0.522261 0.540243 -0.308486 
16 1 6.0527 0.3627 1.48281 0.297039 0.536842 -0.222836 
17 1 8.77852 6.09037 7.53593 0.542971 -0.55451 -0.39984 
18 1 8.62935 4.99493 3.55473 -0.506205 0.477849 0.551921 
19 1 0.735349 2.37464 0.186889 0.292461 1.14117 0.54647 
20 1 1.154 4.51804 3.39948 -0.649626 1.33178 -0.583719 
21 1 7.76577 2.64333 6.52303 0.493454 -0.989302 0.724298 
22 1 6.64323 1.53376 7.31459 0.96036 -0.0185785 0.0892935 
23 1 0.248881 5.6783 0.653788 -0.754264 -0.592155 -0.15601 
24 1 0.530173 5.75635 7.31759 -0.210607 0.253901 0.472724 
25 1 1.09118 6.14996 4.24822 0.684786 -0.247474 0.591528 
26 1 7.09329 0.796496 9.06697 0.451503 0.11342 -0.496533 
27 1 9.36841 3.69404 7.49858 -1.01582 1.67381 0.739589 
28 1 2.10489 7.76535 2.23583 1.11137 0.586123 0.0558669 
29 1 4.47387 7.84955 6.5984 0.478195 -1.35712 -1.37388 
30 1 3.61673 5.54266 0.808016 0.203618 0.16004 -0.816686 
31 1 7.22995 6.72678 5.31181 0.054439 0.708185 -1.07836 
32 1 8.99354 1.51655 6.70415 -0.369363 -0.813484 0.327407 
33 1 4.07904 7.10725 0.490099 -0.355535 0.606637 1.1787 
34 1 4.38224 5.0643 1.2303 -0.206198 0.01653 -0.152757 
35 1 9.35278 9.38644 6.0679 0.354569 1.77998 -0.29674 
36 1 4.13234 2.75642 6.23261 0.629753 -0.740533 -1.29682 
37 1 6.30767 3.77317 4.39013 1.12498 0.824676 -0.185266 
38 1 8.91023 7.7527 6.18279 0.542639 0.722965 0.253333 
39 1 4.13217 5.17501 8.68988 -0.978568 0.230604 -0.220318 
40 1 3.67934 4.06738 7.58765 -1.4729 -0.741431 3.52149e-06 
41 1 8.71596 7.15825 2.07868 -1.59667 0.0948689 -0.946562 
42 1 0.404089 8.21552 3.7317 -0.385517 0.404523 -1.03927 
43 1 8.64941 5.94439 3.54339 -0.427618 -0.421826 -0.838932 
44 1 7.83013 0.666181 6.02553 0.810136 1.10907 1.6925 
45 1 3.15622 5.82714 6.6132 0.413988 -0.684657 1.73892 
46 1 3.39614 4.45097 5.6972 0.359953 -0.877445 -0.320159 
47 1 1.2871 3.0528 4.44426 0.0686496 -1.44029 -0.263168 
48 1 0.996517 2.37176 5.20998 0.940837 0.308792 1.31113 
49 1 9.08461 6.58038 5.30212 -0.718223 0.133682 -0.812656 
50 1 4.75951 1.357 3.18683 -0.117753 0.522438 -0.396321 
51 1 1.66998 1.43672 4.85614 0.0958681 -0.774859 1.3804 
52 1 4.33497 4.27704 3.60773 0.14917 0.592464 1.15092 
53 1 1.94784 1.48359 1.79833 -0.0715812 -0.945122 0.0770538 
54 1 5.90271 2.36435 0.676605 0.51178 -0.615907 0.628141 
55 1 1.09015 8.85326 3.43184 -0.468579 -1.13629 -0.931445 
56 1 5.17858 8.1371 5.24888 -0.594544 -0.625965 0.994239 
57 1 0.641637 2.10126 7.74327 0.0893834 0.737513 -0.233213 
58 1 0.310089 9.28626 3.10915 -1.53984 -0.316332 0.15319 
59 1 3.45359 3.57926 0.908216 -0.224664 1.43413 -1.53534 
60 1 3.27715 0.444444 1.4097 0.221841 0.491735 1.53365 
61 1 5.79916 8.99232 6.60165 0.414997 -1.32313 0.563564 
62 1 1.50459 2.8291 3.47381 -0.31392 -0.106312 0.348906 
63 1 6.05878 6.65384 2.67293 0.347419 1.12403 -0.969649 
64 1 3.51358 7.86422 4.63871 0.42051 0.860387 -0.0313021 
65 1 0.544764 3.04384 7.85808 0.609922 0.540731 -0.78197 
66 1 6.19086 0.881307 8.77524 0.390089 1.9076 0.748197 
67 1 2.92641 3.24338 0.194353 0.258008 0.82502 -0.284173 
68 1 6.41951 5.74706 2.63405 -0.87429 -0.0478039 0.920333 
69 1 4.56925 1.94395 6.71961 -0.545638 0.105817 -0.508141 
70 1 2.90441 7.57951 5.76129 0.850697 1.27327 -1.2999 
71 1 5.24786 8.28499 6.23917 -0.319775 -0.908782 -0.330489 
72 1 2.42902 4.52033 5.52673 0.494175 -0.265038 -0.192131 
73 1 6.11117 6.86825 5.22519 -0.235081 -0.312561 -0.0550229 
74 1 5.98932 2.1869 5.84992 0.365006 -0.0141713 -0.0483002 
75 1 8.36047 7.13245 7.66134 -0.179044 0.387512 -0.441706 
76 1 6.83857 1.55958 5.54427 -0.601037 -0.259324 0.651945 
77 1 9.34186 5.04572 8.8107 1.60466 0.326972 1.01461 
78 1 4.87327 1.73968 2.20026 -0.152521 1.0045 1.63876 
79 1 5.1621 2.54401 6.29594 0.349266 0.299382 -0.214551 
80 1 4.44827 8.50282 3.03755 -0.0588396 0.399657 0.877497 
81 1 8.63485 5.0628 1.78763 0.363689 0.516108 -1.86594 
82 1 0.593763 4.13705 2.70006 -0.535233 -0.297229 -0.551324 
83 1 5.76267 5.98355 3.29949 -0.319828 0.319244 -0.28473 
84 1 2.60275 2.57988 8.12918 -1.54219 0.70908 0.0742191 
85 1 2.9885 1.35177 5.96461 1.11112 -1.06184 0.445163 
86 1 5.69529 9.14626 3.27396 -0.194437 -0.00434843 -0.147083 
87 1 2.33778 6.82278 5.59092 -0.203744 -1.45288 0.739967 
88 1 2.23929 0.99419 7.39594 -0.094977 0.262831 -0.808098 
89 1 9.04107 4.19515 1.62334 -0.0777852 -1.23676 1.50278 
90 1 2.22601 4.28783 4.61151 0.0554726 -0.130132 -0.328043 
91 1 4.35652 8.57371 1.91777 -1.39141 -0.345541 -0.695007 
92 1 4.03503 7.45166 9.00676 0.757478 1.0133 0.61544 
93 1 6.38936 3.38248 8.9412 -0.488484 -1.05384 -0.0645914 
94 1 5.46557 7.75404 4.22811 1.34082 0.0858651 -0.334046 
95 1 1.06871 0.070643 1.74297 -0.921409 0.0733655 0.0915404 
96 1 4.64985 2.70445 1.44856 1.53534 -0.107732 0.76863 
97 1 0.672166 4.8522 7.66038 -1.43182 0.270382 -0.179193 
98 1 5.5046 0.201208 0.707031 -0.241057 0.501052 -0.210328 
99 1 3.13341 4.02381 1.66957 -0.222805 -2.03366 -0.0553574 
100 1 6.26417 4.45739 3.11001 -0.277976 1.06513 0.200934 
101 1 3.59598 6.11733 1.85756 -0.206326 -1.2775 0.723494 
102 1 1.463 6.25866 1.76485 -0.153307 1.84424 0.725373 
103 1 1.05646 8.38964 4.45594 0.310786 -1.0021 -0.214037 
104 1 2.0015 1.31912 0.565295 -0.109291 0.201617 0.488146 
105 1 7.77378 2.77134 7.45462 0.462085 -0.0685412 -0.69165 
106 1 8.26162 5.60226 4.36249 0.583669 0.566632 0.0671189 
107 1 2.75781 8.27058 4.17035 0.365917 -0.753675 1.40866 
108 1 3.65558 9.26342 0.788838 0.430482 0.0461657 0.211833 
109 1 0.721394 3.47632 8.73011 -1.30921 -0.0101687 1.2995 
110 1 3.57261 4.82363 0.00617855 -0.0864093 -0.927115 1.31509 
111 1 6.32217 1.86939 8.31122 0.281952 0.329366 -0.994065 
112 1 0.698887 8.80449 5.98576 1.58362 -0.0414861 0.0809393 
113 1 2.88043 0.247427 4.86436 -0.00817503 -1.33925 0.446374 
114 1 5.14808 2.45666 3.65993 0.619991 -0.986451 0.39111 
115 1 0.804107 5.08555 2.72186 -0.179691 1.3144 -0.436117 
116 1 2.37214 1.57369 2.69091 -0.391192 0.438308 0.838429 
117 1 3.97864 3.5669 8.52088 1.06858 -1.2528 0.509831 
118 1 0.881722 0.408869 3.72493 -0.429477 0.339003 0.0991383 
119 1 6.01815 0.224602 5.92025 -0.793551 -0.642096 0.675929 
120 1 7.86455 6.74146 2.29948 -0.528574 -0.351711 -0.242461 
121 1 5.59645 1.33205 2.70377 -1.04238 1.34034 0.208 
122 1 0.300781 7.82769 7.72714 -0.629836 1.38564 -0.745858 
123 1 3.54166 8.4517 2.70328 -0.837952 -0.550494 -0.185326 
124 1 7.27953 9.38425 0.266292 -0.236602 -0.0283538 1.26196 
125 1 9.32726 7.35931 1.394 -1.46602 0.621194 -0.810241 
126 1 3.66384 8.40685 1.21454 -1.76252 1.58105 0.32419 
127 1 4.96018 3.8346 8.44786 0.384103 0.727991 0.970198 
128 1 4.36622 0.343775 5.63054 0.750849 -1.0731 -0.662848 
129 1 4.48365 0.622942 7.12895 1.02337 -0.448003 0.291696 
130 1 4.99425 4.52241 4.28426 1.2699 -0.424668 -0.560648 
131 1 5.23112 1.76494 0.368988 -0.885204 -0.51959 -0.472639 
132 1 0.361085 1.49928 0.437352 0.184053 1.17609 -0.515451 
133 1 2.95349 6.10949 4.88625 0.239314 0.891461 -0.915589 
134 1 7.88419 3.29309 9.29037 -0.162811 0.53968 -0.332286 
135 1 2.61215 6.33753 1.60493 -0.542024 -0.37551 -1.78407 
136 1 4.7232 6.80933 9.2409 -1.34985 0.789975 1.77144 
137 1 1.03931 6.7215 3.41923 -0.662444 -0.208782 1.26381 
138 1 0.400413 6.51343 1.16109 1.19719 1.21831 -0.55389 
139 1 5.52397 2.11172 4.4821 1.42809 -0.0846661 -0.382301 
140 1 5.76368 5.66147 5.7662 -1.18415 -1.18412 -0.228935 
141 1 9.25908 7.85711 9.23721 -0.279725 -0.452364 0.736786 
142 1 6.65074 9.34754 8.92119 0.950048 0.500613 -0.899282 
143 1 3.67987 0.639735 2.23321 0.701978 0.780617 0.0294438 
144 1 9.33975 9.1944 5.03498 -0.00417123 -1.0208 0.440325 
145 1 6.31068 6.70529 3.6085 0.631966 -0.0888097 0.486653 
146 1 2.27749 4.23836 2.91328 0.551257 0.190283 -0.396324 
147 1 1.52423 6.32273 5.91402 0.708208 -0.840522 0.628449 
148 1 1.51299 4.7639 8.13132 0.702751 -1.70721 -0.787104 
149 1 4.44725 3.47804 0.873902 0.188654 -1.48272 -0.224175 
150 1 4.82646 7.72106 0.168753 -0.293302 0.224666 0.300371 
151 1 7.36492 3.65308 5.42081 -0.00533813 0.237743 1.20916 
152 1 7.62696 8.28162 7.23873 0.435398 0.773849 -1.69452 
153 1 2.25506 4.89969 2.11623 -0.922896 -1.10907 -1.01314 
154 1 1.61177 6.30076 7.02363 1.5452 -0.910156 -0.264032 
155 1 9.29396 6.97432 7.55238 0.233678 -1.04058 -0.793121 
156 1 7.8035 5.29504 1.38151 0.278766 -0.409193 0.32543 
157 1 2.93529 8.0034 1.70893 -0.67872 -0.290842 -1.68031 
158 1 2.31065 5.25832 8.02338 -0.51043 1.30008 1.07215 
159 1 1.71174 7.29614 3.04617 0.305448 1.41297 0.629874 
160 1 5.67382 8.21894 7.14941 -1.21836 1.20306 -0.617698 
161 1 2.02033 2.17675 1.07251 -0.5041 0.451502 0.829803 
162 1 7.54535 2.67386 5.59776 -0.0906102 -0.563898 -0.478442 
163 1 2.33305 6.89597 4.62894 -0.461764 -0.838969 -0.931439 
164 1 6.67441 8.96055 6.13175 -0.756913 -0.826376 -0.384154 
165 1 7.10686 1.32246 8.15896 -1.24207 1.47271 -0.465357 
166 1 1.71048 2.26644 2.63797 -1.22346 0.366023 1.12389 
167 1 3.99623 8.12447 0.356065 0.159051 -0.44779 1.15712 
168 1 0.773883 4.58713 8.69565 -0.804548 1.09801 -1.33258 
169 1 0.543887 4.11489 6.82913 0.0604413 1.11568 -0.831204 
170 1 6.83211 7.90725 3.38709 -0.558384 -0.138039 0.735291 
171 1 0.0451195 4.95744 5.3889 0.172329 -0.511101 0.66326 
172 1 0.41101 8.52395 1.55261 -0.424774 -1.25745 0.336405 
173 1 3.19905 5.46706 5.62437 -0.95778 -0.807598 -1.08412 
174 1 8.23056 8.97451 7.50295 0.673036 1.38247 -0.269979 
175 1 1.18995 3.66621 6.26991 0.178542 -0.892505 0.128965 
176 1 7.32864 5.91123 4.75902 -1.09043 0.099906 0.983588 
177 1 0.79963 6.12858 6.47786 0.23041 -1.42179 0.27517 
178 1 0.325577 1.62876 8.48779 0.325561 -0.130994 -0.500102 
179 1 6.11186 1.16566 5.99541 -0.170062 -0.55462 -0.214722 
180 1 4.82264 2.80922 4.47563 -0.190225 0.0550299 -0.622127 
181 1 5.91624 7.55696 3.32431 0.881256 -0.387693 0.28112 
182 1 2.59335 0.0382273 1.95344 0.801018 -0.549518 -0.403786 
183 1 2.21962 5.82162 2.26513 1.31956 -1.47909 -1.16651 
184 1 4.72121 1.21629 7.84791 -1.18252 -0.0378652 0.517574 
185 1 1.1292 7.07955 4.27461 1.3856 0.339301 0.818068 
186 1 3.19416 1.85069 2.37169 0.888244 0.0569105 -0.409728 
187 1 5.3213 3.12624 7.7155 0.404086 1.06763 -0.772714 
188 1 6.06127 4.6818 6.26648 0.127991 1.3971 -0.332091 
189 1 4.63684 2.90715 7.02531 1.23006 0.0891662 -0.686495 
190 1 5.20752 4.08947 7.52649 0.196893 0.431861 -0.42532 
191 1 2.44436 3.71865 0.992785 -0.164339 -0.692689 -0.531968 
192 1 0.905379 3.62897 3.74855 -0.436084 -0.0966634 -0.0772136 
193 1 5.42608 1.04979 1.80427 0.290461 0.661062 0.16171 
194 1 9.20338 8.60817 7.4978 -0.664362 -0.173413 0.989311 
195 1 2.11084 6.16362 7.84126 2.02734 -0.840101 0.678338 
196 1 3.25066 2.97242 8.72163 0.102341 -1.13476 -1.30635 
197 1 6.98882 5.99886 3.85167 0.354618 -0.110088 0.81402 
198 1 3.11966 6.38955 5.85634 0.900044 -0.790703 0.269364 
199 1 4.74112 3.58527 1.88132 -0.399073 -0.118985 -0.755966 
200 1 2.75092 6.97402 0.621198 0.305324 -0.37289 -0.167207 
201 1 8.49175 8.18259 0.339724 0.030231 -0.254716 -0.673464 
202 1 0.728623 5.97652 2.40339 1.21034 0.591001 0.246872 
203 1 6.5233 7.48316 2.58214 -0.690097 0.144399 0.247668 
204 1 7.75789 8.61907 9.21604 -0.399202 0.49698 0.345334 
205 1 6.17708 1.57025 0.116449 -0.915248 -0.228148 0.927702 
206 1 5.23438 4.88862 5.62805 0.638152 1.09789 2.79927 
207 1 6.7031 4.36214 0.657507 -0.543602 0.0444919 1.12241 
208 1 3.45159 2.03591 5.43455 0.492407 0.103973 0.317921 
209 1 7.60194 8.31071 4.97713 0.503358 -0.619969 0.747996 
210 1 8.45362 8.94553 8.54859 -0.330728 1.60906 -1.70285 
211 1 8.86752 6.54092 1.39451 -0.69137 -0.00361262 0.144027 
212 1 8.20775 3.90013 0.612211 0.616211 -0.0600187 0.271836 
213 1 2.80412 6.35092 3.96934 0.669713 -0.39715 0.287083 
214 1 4.146 9.27557 2.52608 0.0765155 -0.441944 0.0405694 
215 1 1.93087 0.0918296 5.01044 -2.35337 0.26783 0.165864 
216 1 1.48038 0.663152 7.9608 0.502743 -0.459981 -1.32228 
217 1 2.89687 0.3177 3.57904 -0.501525 1.9035 1.07253 
218 1 0.652212 0.234617 9.34656 -1.06591 -1.15197 -0.192319 
219 1 0.201572 3.23634 6.73023 0.189804 -0.229365 -0.781956 
220 1 8.25903 5.97766 1.87818 0.106407 -0.936571 1.03283 
221 1 3.8168 0.229317 4.88528 1.63116 0.835966 -0.0778204 
222 1 1.27835 8.29436 5.37758 0.0548862 0.132771 -0.443268 
223 1 1.53277 3.97832 8.69809 -1.00234 -0.325485 1.04669 
224 1 3.05213 7.8063 8.3624 -0.494291 0.0719583 -0.00490885 
225 1 3.96174 1.21481 5.52712 -1.24453 1.16522 -0.662394 
226 1 0.307272 3.07616 5.09908 0.259536 0.320161 -0.127182 
227 1 5.22688 5.94896 1.43628 -0.60171 -0.793845 0.345141 
228 1 1.66808 1.724 5.74759 -0.139547 0.302378 0.59748 
229 1 5.06957 9.04556 2.47599 -0.666165 0.653014 0.12198 
230 1 6.10586 4.25367 7.16379 -1.31031 -0.763793 -0.0727895 
231 1 6.91113 5.33083 0.944705 -0.421583 -1.29398 0.350727 
232 1 1.67495 7.75507 0.903048 0.877675 1.70293 -0.299802 
233 1 1.07927 4.2182 0.126036 1.35984 -0.0543815 -1.25332 
234 1 0.772675 6.74826 7.20778 -1.08144 -0.314804 0.0656896 
235 1 7.74784 1.98746 8.49409 1.14658 -0.561234 0.24504 
236 1 0.303806 7.22753 3.72673 0.154514 0.506498 0.185482 
237 1 6.32355 0.837103 7.83732 -0.571171 -0.157171 -1.07589 
238 1 2.21327 9.26055 9.11453 -0.966369 0.694672 -0.401562 
239 1 5.43763 0.58212 7.54224 -0.53643 -0.0365447 0.52182 
240 1 6.13638 5.70499 1.69272 1.21125 -1.96016 0.861491 
241 1 2.51065 1.80049 5.27742 -0.409739 0.156707 0.566833 
242 1 3.08121 5.71591 7.68657 -0.418146 1.55769 -0.731607 
243 1 9.30714 7.51322 5.31284 -0.452313 -0.807961 -0.135214 
244 1 6.90062 4.35899 4.86139 0.910251 0.707276 0.893319 
245 1 5.58619 1.5441 3.67735 1.35395 0.626862 0.296552 
246 1 0.830361 2.48308 8.62785 0.73207 -0.275365 0.834832 
247 1 7.05375 5.0842 2.91512 -0.230521 0.687593 -0.143178 
248 1 7.50432 8.22572 1.54034 -0.505618 -0.854197 0.401292 
249 1 0.0773851 9.39996 8.64592 0.539497 -0.319564 0.823246 
250 1 7.73098 4.1881 6.27924 -0.0942377 -0.626933 1.03442 
251 1 7.7385 7.72705 0.713314 0.553726 0.0549696 -1.00732 
252 1 5.89567 8.66735 5.59188 0.037583 -0.00817835 1.49767 
253 1 3.81424 2.38088 7.0547 -1.61825 1.00815 -1.26215 
254 1 3.11905 5.54753 2.49728 0.108799 -1.67294 -0.670597 
255 1 8.51921 4.1547 7.5778 -1.19037 0.287193 -0.593179 
256 1 3.00389 1.4141 6.92176 -0.126282 0.00204583 -0.282516 
257 1 2.51695 2.85976 5.64036 -0.497426 0.00202228 0.773033 
258 1 8.06879 1.24731 6.7548 0.293707 1.62693 -0.370772 
259 1 0.728959 7.06236 8.12187 0.153572 0.485907 1.93223 
260 1 3.50381 6.71814 3.3654 0.602221 0.88842 -2.1631 
261 1 3.71707 5.031 7.79314 0.303547 -0.419473 -1.12064 
262 1 6.92187 4.5722 3.85453 0.0683347 0.288073 -0.811687 
263 1 1.05892 6.8628 2.45812 0.357921 -0.555197 0.231875 
264 1 8.63195 0.453743 8.76719 0.621593 1.07371 -0.943364 
265 1 1.90312 2.45216 5.00179 -0.359107 0.093432 1.608 
266 1 1.76513 2.37293 8.57981 -0.332016 0.754014 1.08445 
267 1 8.61118 8.29601 2.80573 -1.42576 -0.28418 -0.652995 
268 1 5.38471 5.0621 1.84072 -0.548403 -0.290602 0.47322 
269 1 8.58305 1.37332 5.8035 0.345757 1.32634 0.0087814 
270 1 2.44582 2.31408 1.95725 0.127296 0.389963 -0.298895 
271 1 8.72154 0.828101 7.35763 -0.546509 -1.14478 0.0102025 
272 1 9.01467 8.56208 5.71717 0.68698 0.455737 0.00834203 
273 1 9.02928 8.7725 3.58457 1.03179 0.0496039 0.107053 
274 1 2.1244 3.11944 7.51246 -0.274363 -0.363651 0.116526 
275 1 7.89928 7.27551 4.77448 -0.517289 1.29755 -1.24946 
276 1 6.15277 2.83258 8.20983 -1.13123 -0.320324 0.599991 
277 1 7.22939 3.38315 6.30635 -0.101563 -0.231584 -0.115627 
278 1 6.98746 6.45766 3.00052 -0.198319 -0.33198 -0.308464 
279 1 3.15244 4.4309 4.70187 -0.123575 -0.538448 0.193082 
280 1 1.26501 7.95581 7.90312 0.275242 0.738265 -0.843317 
281 1 1.90527 4.57271 0.537903 0.482767 0.679712 1.21552 
282 1 2.68598 0.580056 6.41761 -0.360073 0.921213 -1.70143 
283 1 7.60236 4.63995 0.722206 0.382454 -1.14314 -0.50253 
284 1 8.35402 7.33613 2.93599 -1.15924 -0.725939 -1.56989 
285 1 9.25169 4.61951 7.23846 -0.490289 0.516739 0.470834 
286 1 5.18452 1.28368 6.9518 -0.594689 0.434614 0.0163956 
287 1 1.36565 8.16268 6.31233 0.401144 0.0839988 -0.183794 
288 1 3.7615 5.12616 6.30742 0.536356 -0.147771 -0.63341 
289 1 4.3252 5.22351 3.7367 0.225178 0.996979 -0.974728 
290 1 2.27324 2.92952 6.58534 -0.484926 0.31746 0.743902 
291 1 1.23802 8.60071 0.979234 0.572241 -0.125703 0.315634 
292 1 4.0602 4.12506 1.45137 0.324866 -0.154566 0.764039 
293 1 5.73888 0.358637 2.4474 -0.0192753 0.0592923 0.195546 
294 1 2.47406 8.08255 9.19771 -1.8226 0.759996 -0.60505 
295 1 7.89842 1.04797 8.61916 0.261672 -1.74289 0.0215837 
296 1 8.10607 7.30321 3.84535 -0.702509 0.273283 -1.18062 
297 1 8.65127 7.10891 9.18957 0.429568 1.21317 -0.0309449 
298 1 1.6189 7.0273 7.77552 0.244567 0.387011 -0.104827 
299 1 4.52807 6.91171 6.44701 -0.320516 -0.965368 -0.472988 
300 1 6.04654 7.81026 5.02679 -0.701187 0.1354 0.440784 
301 1 9.07851 3.01747 5.86754 0.472806 0.103937 1.12509 
302 1 6.84301 3.10116 4.84445 -0.283933 -0.880111 2.2973 
303 1 3.72817 3.75936 0.0222605 0.234009 0.614006 -0.854088 
304 1 0.0953329 2.1607 5.5324 0.0361901 0.396551 -1.35885 
305 1 1.58371 5.51656 6.4523 0.481608 0.412958 1.31969 
306 1 1.15209 1.17933 6.3731 -0.398967 -0.645197 -1.53619 
307 1 1.90675 3.06802 1.50251 -0.0564752 -0.170578 0.601608 
308 1 0.201221 4.62632 4.45375 0.161396 -0.103937 -0.316133 
309 1 0.896013 6.34849 8.73876 -0.162486 0.0878243 -0.766701 
310 1 5.28837 7.41652 6.75815 0.194246 0.725459 0.311209 
311 1 3.12958 4.96663 7.03858 -0.0486862 -1.35238 2.01573 
312 1 8.56311 3.21841 7.71922 -0.0901895 -0.0566696 -0.466675 
313 1 3.80121 0.594777 7.81419 1.65705 0.196165 0.349958 
314 1 7.10522 5.18401 5.32406 -0.0416746 0.15232 1.32132 
315 1 3.88893 2.69922 0.823091 -0.490237 -0.544215 0.425612 
316 1 0.381058 0.393925 2.28369 -0.307696 0.679392 0.0255426 
317 1 4.55666 6.33202 7.19161 0.474009 0.0581027 -0.930566 
318 1 5.88411 1.18076 0.935966 -0.103753 1.27657 -0.637456 
319 1 8.03909 4.33414 1.52704 0.884637 1.07352 0.834614 
320 1 2.27666 7.89303 6.41906 0.157598 -1.30025 -1.25411 
321 1 8.05089 7.80658 2.18349 0.341457 -0.793967 0.330499 
322 1 4.60449 4.5384 2.08228 -0.345525 0.992772 -1.84305 
323 1 1.50373 3.71051 0.836355 -0.530722 -0.707105 0.318218 
324 1 0.388945 8.86485 0.567557 -0.450307 -0.862227 -0.0502667 
325 1 1.60656 2.70429 5.91644 1.33814 -0.45375 0.863007 
326 1 7.61906 4.52804 8.32231 0.787973 -0.722491 -1.06536 
327 1 2.86182 2.50365 0.784187 -0.0773231 1.29102 0.136227 
328 1 6.10748 0.840682 6.87896 -0.0275215 -0.902866 -0.375475 
329 1 2.99269 1.81321 8.63834 -0.199736 -1.09102 0.677058 
330 1 2.63124 5.41151 4.0265 -1.11111 -0.999217 -1.36227 
331 1 1.51911 3.6719 2.99621 1.08882 -0.579177 0.0928425 
332 1 9.38144 5.66666 2.98827 -0.587641 -0.39519 -0.231861 
333 1 2.43116 2.09146 6.18028 0.694254 -0.777217 0.339144 
334 1 4.64799 4.29179 5.17867 -0.0462257 -0.737928 -0.191549 
335 1 1.98723 4.71503 3.76036 -1.99379 -0.534995 -0.231678 
336 1 6.70575 6.64713 4.51157 -0.376111 1.08821 -0.347555 
337 1 6.6471 8.86421 8.02692 0.308362 -0.592846 -0.37986 
338 1 5.10261 4.7942 8.63488 0.339444 0.360201 0.42451 
339 1 6.26259 9.24525 4.23535 -0.506419 0.178532 0.0158094 
340 1 6.70573 2.72074 0.241596 -0.428458 -1.50048 0.220175 
341 1 8.56815 4.69619 8.36458 0.208413 -0.940725 0.741821 
342 1 8.34785 8.70994 1.90238 -0.161388 1.34279 0.33225 
343 1 1.2686 8.16518 1.87132 -1.17074 0.796905 -0.883057 
344 1 1.24469 4.3062 4.36664 1.09114 1.44043 0.818233 
345 1 6.06558 2.76741 6.59309 1.06473 -1.588 -0.677382 
346 1 3.74732 4.99913 1.91655 -0.176354 -0.962844 0.28396 
347 1 5.25795 0.730149 8.50519 -0.837686 -0.471676 0.82401 
348 1 4.31721 6.05075 1.21449 1.21422 0.577648 0.0764684 
349 1 3.28982 0.812678 8.70272 -0.154227 -0.209762 -0.998905 
350 1 3.16148 5.2535 8.53366 -0.534974 0.88536 0.597866 
351 1 1.59065 6.1721 2.87305 -0.305843 1.1505 -1.55346 
352 1 8.38088 9.24946 6.06975 -0.814462 -1.26221 -1.08827 
353 1 5.29574 2.26162 7.22922 0.465401 -0.0959956 1.67489 
354 1 3.23402 5.75304 9.35523 -0.424971 -0.116457 0.717524 
355 1 2.39531 0.702675 1.21832 -0.886316 0.105452 -1.23654 
356 1 1.49381 8.23975 2.8269 -0.0542509 0.382111 0.270063 
357 1 2.33292 4.53636 8.67581 0.0218774 -0.332998 0.134546 
358 1 3.18594 1.03908 2.97757 -0.0253608 -0.586732 0.201421 
359 1 5.7114 3.11018 5.77029 0.150581 -0.16025 0.917369 
360 1 0.802149 5.46425 5.81453 -0.564219 0.534423 0.191067 
361 1 7.657 5.10698 6.14699 0.990097 0.513918 0.0300864 
362 1 2.74647 1.60171 1.25029 0.37339 0.355491 0.480817 
363 1 0.163481 8.32263 2.83406 1.36262 1.15525 0.836892 
364 1 2.08407 6.80448 2.29421 -1.34384 -1.4804 -0.813732 
365 1 1.12313 0.945012 0.354118 0.0417242 -1.6497 -0.248224 
366 1 0.236899 6.57704 2.9823 0.0696601 -0.989609 0.970725 
367 1 4.63411 6.62874 5.55851 -0.137007 0.0668309 0.181813 
368 1 2.77259 6.50098 7.24821 0.0580148 -0.751653 0.00901564 
369 1 6.40401 7.52073 4.15078 0.353469 0.533301 -0.528443 
370 1 2.23669 1.70861 8.02033 0.331774 0.0745972 -0.182279 
371 1 5.51054 4.02149 5.86306 0.273477 -0.18981 -0.327261 
372 1 0.757594 0.802305 8.58558 -0.594199 -0.136898 -0.373725 
373 1 1.82679 0.354037 3.58838 -0.299301 0.999366 1.26251 
374 1 4.45094 8.6602 7.92661 -0.864081 -0.567875 -1.21458 
375 1 5.62719 7.50593 5.83122 -0.661507 -0.301476 1.23038 
376 1 4.25963 0.773347 8.64074 -0.491672 1.10702 0.112955 
377 1 8.02269 7.12935 1.43164 0.554515 0.589798 -0.0700391 
378 1 7.19302 7.01326 3.77521 0.159479 -0.251552 -0.283243 
379 1 5.24579 1.62363 6.04092 0.729858 0.0493297 0.190021 
380 1 3.6912 6.43105 7.66255 0.53808 -0.601342 0.282557 
381 1 2.47103 5.94237 3.18522 1.28924 -0.522936 0.0685155 
382 1 2.59646 9.28177 5.71543 0.489783 -0.606757 0.393006 
383 1 4.49982 8.32785 8.84508 -0.24423 -0.870163 0.481328 
384 1 3.15763 1.16327 5.02901 0.715318 -1.46303 -1.14757 
385 1 5.34546 4.28248 3.42224 1.09832 0.873443 0.0945984 
386 1 3.92132 2.30704 8.62747 0.463195 -0.84905 -0.707453 
387 1 0.377182 8.36816 5.17515 0.5097 0.145969 0.363562 
388 1 1.82865 8.34648 7.16636 0.204335 -0.319984 0.749925 
389 1 3.21382 2.55198 6.33457 0.119102 -0.470341 -0.265464 
390 1 2.33991 5.60922 7.09929 -0.30466 1.20443 1.46696 
391 1 8.37116 8.93764 5.1116 2.30158 1.78206 -0.914848 
392 1 5.10509 0.163955 1.63073 0.535834 -0.070616 0.249665 
393 1 1.57271 8.08573 0.0196971 -0.570726 -1.00343 1.33974 
394 1 7.56632 4.97825 4.49217 0.293934 -0.06602 0.0376735 
395 1 1.89401 9.29151 1.27585 -0.617606 -0.0751829 0.671816 
396 1 9.19859 5.44728 4.1927 0.776236 0.0474045 -0.888568 
397 1 5.10164 9.03586 8.55756 0.622367 0.261219 0.573222 
398 1 2.63427 7.15748 8.94801 -1.35504 -0.734059 0.785655 
399 1 1.16409 6.18834 7.8671 -0.0340931 -0.671334 -0.0725682 
400 1 6.91339 6.42653 2.05982 0.688758 0.397914 0.590648 
401 1 7.05626 4.58605 1.55351 0.459323 0.0912933 -0.411344 
402 1 2.39659 9.20503 4.17251 1.25748 -0.557849 0.103477 
403 1 7.45893 1.90699 7.0448 -0.701533 -1.58614 -0.151381 
404 1 6.35999 5.31231 3.54984 -0.168634 -0.162469 0.0494721 
405 1 4.78548 0.2504 9.19215 0.582467 -0.581816 -0.199349 
406 1 0.684596 4.19444 1.01467 -1.19104 0.311877 0.541971 
407 1 2.73169 5.09527 0.444922 0.225398 -0.760524 0.751259 
408 1 2.14089 8.71299 0.53173 -0.515344 0.5315 1.0982 
409 1 1.72472 7.51708 5.6838 -0.0143461 -0.772112 0.100687 
410 1 1.73376 4.54052 6.31818 0.344909 -0.950025 -0.29223 
411 1 8.76421 0.668138 6.38715 0.158727 1.52814 -0.384863 
412 1 7.95085 5.5121 0.477497 -0.870996 0.260452 0.082097 
413 1 6.77618 4.14463 7.98463 -0.690937 -0.426149 0.374848 
414 1 5.12371 3.48195 5.11526 -1.5694 0.125823 -1.78207 
415 1 3.37459 6.69658 9.32789 -0.0511444 -0.0460697 0.862917 
416 1 8.64019 4.27373 5.79615 -0.0413141 0.184624 -0.246796 
417 1 7.76671 5.54175 3.50971 0.843478 -0.304241 0.767184 
418 1 9.27442 7.41961 2.78971 -0.304101 -1.75682 -1.36904 
419 1 2.72694 5.95766 0.768017 1.33882 1.13454 1.8429 
420 1 4.02309 1.4544 2.6014 0.277266 -0.00449704 1.16213 
421 1 0.233331 4.88036 3.47951 -0.0770906 -0.313461 -0.711378 
422 1 2.75629 0.0834511 0.530419 -0.428493 0.694973 0.179276 
423 1 2.74572 4.18147 3.79054 -0.0682113 -1.71762 -0.199395 
424 1 1.07105 5.05378 0.78391 0.84827 -0.486202 -0.883732 
425 1 0.622189 5.59692 1.53995 -0.249669 0.991002 0.32202 
426 1 9.24407 1.99887 9.20884 0.45183 -0.854344 -0.0553255 
427 1 0.199728 1.20144 6.05228 -0.353087 -1.57936 -0.719518 
428 1 1.85905 0.357676 0.457865 -1.25408 0.0527833 -1.16821 
429 1 5.66881 5.15219 2.83412 0.8816 -0.0271843 0.116541 
430 1 3.80556 0.512732 0.0719937 -0.520751 0.246903 -0.0357944 
431 1 2.10501 3.7968 0.0358177 0.210961 0.782808 -0.253742 
432 1 5.02741 8.57705 3.8802 -0.668281 -0.312937 -0.803215 
433 1 5.26019 0.412717 6.57278 0.54272 0.950833 -0.364736 
434 1 0.945377 9.17888 5.08181 0.178883 1.0127 1.10141 
435 1 5.63282 4.26505 4.93034 -0.410338 -0.214402 -0.0185733 
436 1 8.3931 2.1185 7.06972 0.1213 -0.470316 -0.0521535 
437 1 2.96044 5.41925 1.54979 -0.878182 -0.374685 0.345585 
438 1 4.00542 7.76258 8.12843 0.375774 -0.183699 0.787549 
439 1 3.74905 2.97531 4.54213 -1.86528 -0.759309 0.367921 
440 1 4.2222 6.15653 3.77365 -0.197838 -0.14855 0.387712 
441 1 0.823998 0.314197 6.22044 -0.0106482 0.138737 -0.0973756 
442 1 2.09093 8.36958 1.48114 -0.116652 -0.262618 0.150836 
443 1 0.663336 3.39975 0.353457 0.188526 0.0414499 0.301809 
444 1 1.47409 0.849174 1.23296 -0.454811 0.0458658 0.163924 
445 1 5.20212 4.50115 6.64609 0.201187 1.91971 -0.643838 
446 1 4.82229 3.39859 6.02851 -0.58568 0.136444 -0.395674 
447 1 9.13322 5.45446 6.82561 -0.884556 0.519009 0.438401 
448 1 4.36382 1.81398 1.23063 2.02477 -0.573364 -0.282995 
449 1 0.645518 2.91517 5.9791 -0.0397101 0.908569 1.28771 
450 1 2.29712 7.4314 7.22931 -0.23249 -0.000375539 1.12714 
451 1 1.93954 7.19913 0.176827 0.630276 -0.743403 -0.596791 
452 1 3.03497 0.0923361 8.16327 0.456541 -0.71147 1.15186 
453 1 0.769622 5.0619 6.71342 -0.498364 -0.470996 0.534528 
454 1 6.09654 4.87536 1.18874 1.01326 0.211364 -0.487928 
455 1 1.14443 6.97686 0.736831 0.390541 -1.02289 -1.22004 
456 1 2.9847 8.63622 5.06729 1.11846 -1.14116 -0.326961 
457 1 8.63479 5.64776 8.45974 0.577573 0.352557 1.03937 
458 1 3.61717 3.82571 4.04942 0.964015 1.87299 -1.00804 
459 1 3.89146 8.14625 7.29001 0.135356 0.0839245 -0.855971 
460 1 7.57521 8.95017 6.53774 0.418466 -1.23231 -1.01697 
461 1 3.07526 4.58433 2.41228 -1.01768 0.948862 1.41698 
462 1 2.95781 3.50289 8.00044 0.807919 -0.207862 -0.402933 
463 1 0.700185 5.48027 8.36935 -0.682592 0.322821 -0.546953 
464 1 2.76479 1.7185 0.188833 -1.69886 1.33598 0.557074 
465 1 3.0522 7.56072 2.57721 0.426241 0.906832 0.805546 
466 1 3.02933 7.25755 4.11502 0.416205 0.329997 -0.661315 
467 1 3.25565 9.2483 6.52652 -0.954295 -1.20191 -0.893566 
468 1 1.33071 9.05826 7.63027 -1.06217 0.945204 -1.27714 
469 1 5.544 1.59632 8.80529 -0.0774713 -0.532181 -0.511526 
470 1 5.45364 5.94308 2.3638 0.420932 -1.80198 0.40281 
471 1 7.71051 3.71729 7.82008 -0.272137 0.197919 0.373714 
472 1 9.31852 2.46255 8.32358 -0.801831 1.17448 -0.371114 
473 1 1.17613 1.74221 0.910163 -0.203687 0.781519 0.45605 
474 1 3.60718 4.23781 6.64069 0.287047 0.543977 -0.503853 
475 1 4.55284 0.220042 0.687402 0.681339 -0.046641 -1.09151 
476 1 2.0898 1.30515 6.52198 -1.16582 0.179805 -1.13569 
477 1 4.13133 2.38554 3.8805 -0.880083 0.0914049 -0.683774 
478 1 4.43197 5.263 0.237315 0.742616 -0.254338 0.373523 
479 1 3.44543 2.98116 5.49164 -0.931132 -0.921152 0.314244 
480 1 4.61142 1.65271 8.71647 1.90581 -0.446991 -0.700438 
481 1 5.74348 1.55209 5.21232 -0.831649 0.0872065 0.989793 
482 1 5.88801 8.9071 1.98509 0.510992 0.668411 -0.16066 
483 1 1.16158 5.99389 0.874599 -1.22681 -0.541483 -1.17225 
484 1 0.858719 4.51554 5.91448 0.430984 -0.516207 1.44144 
485 1 2.33976 0.837292 5.49166 -0.162055 0.929484 1.12337 
486 1 1.57759 4.56899 1.44638 0.129521 1.34768 -0.204728 
487 1 5.46076 0.903884 0.0648385 -1.36671 -0.511327 -0.442981 
488 1 6.04742 4.69691 8.42454 1.31956 -1.65974 0.508054 
489 1 1.18969 3.40849 7.21655 0.512589 -0.232138 -1.04851 
490 1 8.14619 6.409 0.778388 1.21683 -1.94156 0.292083 
491 1 3.82126 6.14136 5.27595 0.812448 -0.306749 0.00132318 
492 1 1.13948 0.517082 7.09786 0.0879082 0.876234 -0.436278 
493 1 2.96161 6.48191 2.54284 0.992656 -1.17813 0.360753 
494 1 4.78946 7.00139 4.16604 0.252286 0.0105415 0.979102 
495 1 2.37766 8.00278 3.13224 -0.83205 -0.172503 -0.523223 
496 1 8.42191 8.13746 7.88469 0.979321 0.49329 0.167947 
497 1 0.203473 6.24111 8.07033 0.225871 -1.401 0.331716 
498 1 9.25099 8.9859 2.21304 -0.139494 0.542483 0.353454 
499 1 6.15116 7.08487 6.54976 1.34093 0.687792 0.394189 
500 1 4.55384 5.49362 2.16356 0.133969 0.216436 0.128309 
501 1 8.59957 2.12368 5.1727 0.446394 -0.556704 0.0506549 
502 1 8.49533 7.95945 5.14202 -0.514573 0.76044 0.39409 
503 1 5.18605 2.41685 5.32019 -0.902131 0.0365048 2.06561 
504 1 8.78588 6.58444 8.39668 -0.4056 0.499703 -0.206318 
505 1 7.26676 3.64965 8.65867 0.138139 1.54789 0.479366 
506 1 5.26352 0.761029 5.61968 0.76946 0.157927 0.130472 