ITEM: TIMESTEP
2156
ITEM: NUMBER OF ATOMS
1000
ITEM: BOX BOUNDS pp pp pp
0.0000000000000000e+00 9.4000000000000004e+00
0.0000000000000000e+00 9.4000000000000004e+00
0.0000000000000000e+00 9.4000000000000004e+00
ITEM: ATOMS id type x y z vx vy vz 
1 1 4.99535 2.63484 0.919825 0.329378 -0.190182 -0.530525 
2 1 0.507008 7.04757 4.46006 -0.0468075 0.694079 -1.93736 
3 1 3.78904 6.63712 0.877228 0.889494 0.847887 0.0801525 
4 1 8.42647 6.30787 1.72351 0.761915 -1.54272 0.92312 
5 1 6.88298 8.8734 0.517062 0.768765 -0.689187 0.356084 
6 1 4.04268 7.47759 7.88762 -0.0567909 0.073296 -1.0843 
7 1 7.51599 6.54121 1.51845 -0.638167 0.706232 -1.26213 
8 1 6.06746 8.68585 6.49591 -0.8188 0.243652 0.39998 
9 1 6.58249 4.84492 5.37012 -0.0365315 -0.429355 0.351273 
10 1 0.39625 1.52462 6.90173 0.238532 -0.566397 -0.750422 
11 1 2.38067 4.51884 3.50439 -0.0496692 -1.0874 -0.264342 
12 1 7.04627 7.99768 0.140068 0.607018 -0.150501 0.564293 
13 1 8.3559 9.1304 0.888116 0.403059 -0.980388 -0.808493 
14 1 3.46943 0.420435 0.795883 -0.396614 -0.465522 -2.19963 
15 1 9.21752 5.57051 5.59502 0.169679 0.557638 0.0951788 
16 1 6.03309 3.70245 2.87953 1.31748 -0.323743 0.595492 
17 1 4.2042 8.87316 6.24564 0.0410175 -0.502652 -0.629343 
18 1 3.81069 8.83637 5.35514 -0.700784 -1.18222 -0.278502 
19 1 0.241871 7.08134 7.57546 -0.182788 -0.158614 0.442186 
20 1 7.15389 4.07434 7.74394 -0.518823 -0.685409 0.286559 
21 1 7.84817 4.63583 8.10475 -0.620801 -0.181063 0.488534 
22 1 4.12394 4.3699 4.06791 0.50845 -0.0403571 1.22974 
23 1 5.54393 4.66964 8.21499 -1.71054 -0.377325 -0.64708 
24 1 5.01552 4.38916 4.4673 -0.763072 0.294798 0.0312008 
25 1 2.61926 1.56062 5.90379 -1.17553 0.133168 -1.18407 
26 1 5.1772 3.00049 5.46977 -0.916471 0.771168 -0.142232 
27 1 5.2028 0.273331 7.7001 -0.46023 1.5599 0.126986 
28 1 6.93823 4.0728 0.535047 0.499068 0.300052 -0.123719 
29 1 8.4753 4.90424 3.90662 0.873123 1.04595 -0.186673 
30 1 8.06507 2.57923 8.48222 0.645842 0.194457 -0.030629 
31 1 5.74441 7.05009 8.42635 1.81905 -0.0497207 1.41442 
32 1 7.66003 3.81966 2.13483 0.0513234 0.00569162 0.665068 
33 1 2.93238 4.24574 7.08215 1.65599 0.893903 1.06535 
34 1 5.46236 0.244638 5.17873 -0.23182 -0.046823 -1.4981 
35 1 6.84222 2.58547 6.03507 -0.228354 0.407602 0.762112 
36 1 7.64974 5.90417 4.82522 1.01739 -0.977712 -0.155262 
37 1 1.70803 6.09107 0.505256 -1.17853 -0.589149 -0.0182686 
38 1 2.98411 7.87968 5.79245 0.388754 -1.68695 -0.247263 
39 1 7.48354 3.31238 6.06743 0.0929451 0.184526 2.16199 
40 1 5.26952 1.37369 2.99865 -0.0604797 -0.766429 0.907365 
41 1 1.03697 8.3906 9.38167 -1.00523 -0.594866 -0.345719 
42 1 2.92358 4.89283 5.62516 0.973508 0.185009 -1.76714 
43 1 4.82537 6.14253 4.50015 -0.262881 -0.654078 -0.884298 
44 1 7.96432 1.77132 6.84778 -0.636136 0.331962 1.29228 
45 1 1.93168 7.43113 2.06744 -0.500058 -0.242002 0.97781 
46 1 4.53637 4.21594 0.809286 0.175953 0.266271 -0.350435 
47 1 2.71043 6.42518 7.60679 -0.441475 0.615998 -0.00748343 
48 1 0.160949 7.37061 8.4681 -0.474148 0.135092 -0.112924 
49 1 1.22027 9.22633 7.53903 -0.603954 -0.836547 0.18617 
50 1 4.12374 7.53067 6.94384 -1.00199 -0.653224 0.53988 
51 1 8.15487 2.40738 7.50851 0.210152 0.210315 -0.0507005 
52 1 8.863 8.61298 2.46871 -0.248744 -1.32271 -1.54171 
53 1 7.45525 4.93657 0.619799 -0.540614 -0.137957 -0.460243 
54 1 1.32569 7.33808 1.32525 0.37067 -0.853722 0.530373 
55 1 3.16737 5.61514 6.16452 -0.606722 -0.407864 1.31649 
56 1 5.75593 0.431578 1.76509 0.0907391 -0.00458396 1.53825 
57 1 6.14866 3.76863 4.10836 -0.367216 0.454096 -0.158166 
58 1 3.57005 4.72591 6.52379 0.480793 -0.488516 -0.7087 
59 1 6.13966 0.127728 7.64166 -0.291738 0.820664 -0.272562 
60 1 0.206281 7.82562 9.33887 0.609516 0.607958 -0.221184 
61 1 1.25018 5.98153 1.40656 -0.0595367 -0.960196 -0.717219 
62 1 3.79174 5.55977 0.0354443 0.398567 -0.184882 -0.341069 
63 1 5.13531 4.06805 5.39799 1.31498 -0.660729 0.564365 
64 1 6.8542 0.249895 9.39667 -1.16741 -0.350594 -0.628299 
65 1 2.59262 5.7835 0.46735 0.235574 0.125011 -0.139308 
66 1 5.44025 6.30781 7.81119 -0.485827 0.636284 0.387037 
67 1 1.92554 6.66066 5.29166 -0.421896 1.62774 -0.829172 
68 1 0.549236 0.750192 6.32845 0.127774 1.53505 -1.13442 
69 1 6.34053 7.52116 2.7225 0.06872 -0.235222 1.27657 
70 1 7.47151 3.0145 0.691654 0.14164 -0.756794 -0.618687 
71 1 2.39233 3.53501 7.41491 -0.503062 -1.21525 0.0995986 
72 1 4.91097 0.684484 2.36205 -0.903294 1.1887 1.22149 
73 1 5.83514 0.890191 7.08677 0.178527 -1.19716 -1.11668 
74 1 8.96672 8.68712 8.58056 -1.33488 0.522777 1.08002 
75 1 2.51567 8.34796 7.406 -0.703023 1.70443 -0.234945 
76 1 6.60143 1.77829 8.3006 0.629202 -2.30223 -0.323306 
77 1 2.47944 6.82781 6.79951 -0.548638 0.477913 0.253264 
78 1 3.6612 8.92292 0.466409 -0.276484 0.883128 1.37236 
79 1 5.4969 8.52516 4.79606 -0.869537 -0.829546 -1.88776 
80 1 9.30385 9.12903 0.773194 -0.244895 -0.257825 -0.257113 
81 1 2.37614 6.56167 2.27767 -0.608251 -1.7575 1.10488 
82 1 1.27583 6.35236 4.62922 -0.4215 0.419624 0.188103 
83 1 1.15109 6.07091 6.61901 -0.00118898 -0.496276 0.4348 
84 1 4.69845 7.96327 0.957724 -0.0716426 -1.29492 -0.441716 
85 1 6.54905 6.5464 0.276959 -0.489577 0.862734 -0.191013 
86 1 3.94874 9.22328 7.70855 1.45939 -1.37247 -0.636759 
87 1 7.43485 3.40277 5.11658 -0.982191 -0.190962 -0.881523 
88 1 3.34378 6.91106 8.20744 -0.0303733 0.932119 1.08488 
89 1 3.4143 8.00099 7.44307 -0.226009 -0.0676616 -0.482516 
90 1 4.15817 6.5877 6.8409 -0.65864 -0.323932 0.885875 
91 1 7.73585 5.44829 3.95849 -0.113176 -0.01018 -1.00342 
92 1 1.61205 3.78239 7.98437 1.35905 -0.0729252 -0.562994 
93 1 7.2769 4.61825 1.5659 0.542504 -1.59833 -0.395277 
94 1 1.41777 5.36322 4.53712 -0.620186 -0.273872 0.946922 
95 1 3.46828 8.84486 2.03415 0.591117 1.14128 0.95127 
96 1 7.48344 6.37941 8.57516 1.21042 -0.411306 -0.808821 
97 1 7.82821 6.54247 5.70431 0.501268 -0.922767 0.787728 
98 1 5.68121 8.93732 8.36498 0.192765 0.312023 -0.0622185 
99 1 5.68044 1.3021 2.14174 -0.00410057 -0.4745 -0.103266 
100 1 5.1253 2.53522 6.47077 -0.927015 -0.0564317 -0.775449 
101 1 7.45433 4.40098 2.84998 -0.250067 0.744291 0.962438 
102 1 4.74597 2.76431 9.38371 -0.34216 0.207984 -1.4834 
103 1 6.70312 6.19146 4.83164 0.544001 1.04426 1.31477 
104 1 3.42269 7.18124 6.33416 2.05658 0.153007 -1.04293 
105 1 6.81147 0.985644 3.81544 1.50727 -0.695263 -0.839476 
106 1 8.15694 5.05395 4.79277 0.24715 0.248084 2.91753 
107 1 4.75601 6.2658 6.18164 0.356162 -0.684482 -0.289299 
108 1 5.5187 5.31028 1.93883 -0.588583 1.01429 -1.94812 
109 1 1.83468 6.62536 8.24426 0.350823 1.28226 -0.665523 
110 1 0.193314 4.68664 5.78053 0.128781 -0.494881 0.880856 
111 1 7.19291 1.72986 4.3317 -1.10375 0.165566 -1.21366 
112 1 3.8101 6.32882 5.87928 -0.534055 -1.00632 0.713332 
113 1 8.83764 0.496351 2.72248 -0.383687 0.592063 -0.25937 
114 1 5.82566 3.51433 4.97561 -0.638354 0.224991 -1.04417 
115 1 9.06156 8.58628 6.98554 -1.82529 0.879165 0.364294 
116 1 5.89546 4.46013 4.78031 -0.861822 -1.66818 0.217941 
117 1 1.93893 8.91091 0.821874 -0.749983 -0.978157 0.1628 
118 1 8.03179 8.19405 1.38563 0.610336 -1.10983 -1.12156 
119 1 5.70184 3.096 6.98683 -0.439269 0.100905 -1.00784 
120 1 8.8099 0.0453268 1.88717 1.55152 0.25185 0.655063 
121 1 6.74215 2.61744 0.171065 0.285281 1.01718 -0.209415 
122 1 7.52633 1.14691 2.04264 0.12416 -1.20507 1.38448 
123 1 1.54354 9.34478 8.64174 -0.304495 1.72402 -0.165015 
124 1 5.65433 8.85715 5.65718 -0.0815263 0.645776 -0.206734 
125 1 8.02093 7.17785 8.53375 0.439448 -0.373608 1.05735 
126 1 7.1887 8.79166 6.39125 -1.20425 -0.36476 -0.634312 
127 1 2.68646 4.0495 0.219879 0.919403 -0.313985 0.733511 
128 1 3.69125 2.86818 6.22025 0.380055 -1.03087 0.608111 
129 1 6.43428 4.11193 1.37479 0.715203 -1.26018 1.15929 
130 1 5.12153 8.34614 2.94424 0.0144393 -0.191838 -0.426527 
131 1 2.25942 2.69117 7.01309 -0.0866593 -0.0714313 -0.8998 
132 1 8.93617 2.28685 8.05958 0.361328 0.461317 0.785518 
133 1 6.8914 8.99721 3.39897 -0.486154 -1.44935 -0.850329 
134 1 9.32569 6.31243 8.0217 0.106839 0.328309 -0.463684 
135 1 0.927732 2.5989 0.703935 -0.672696 1.73452 -0.351621 
136 1 4.21294 3.82466 2.22124 0.476077 -1.66422 -0.229117 
137 1 5.93736 6.59074 2.69304 -0.376334 0.354109 -0.25005 
138 1 5.4309 2.08201 5.70824 0.128479 0.230896 0.663946 
139 1 0.225382 7.25837 0.75905 1.35179 0.586658 -0.913478 
140 1 8.43918 1.69434 8.7753 0.433846 0.020033 0.219402 
141 1 8.53887 4.72629 7.1848 0.2512 -0.395588 -0.452467 
142 1 4.21804 6.4379 9.38593 -0.606231 -0.0290535 -1.77469 
143 1 5.24628 6.02392 5.37528 0.352234 -1.29062 0.336958 
144 1 3.20357 0.849502 6.26437 -0.374193 1.17218 -1.29607 
145 1 4.7795 6.69491 0.700847 0.238714 0.0279247 -1.05803 
146 1 5.91795 5.4741 7.79491 -0.76137 -1.66822 0.0407226 
147 1 1.66038 4.83035 1.83674 0.168364 0.634817 -0.615485 
148 1 6.02292 4.03634 5.76052 -0.910794 -0.165196 0.393992 
149 1 5.2414 6.97625 4.77285 -0.25809 0.155937 0.313134 
150 1 7.12244 8.44144 5.28272 -0.237389 -0.0703585 -0.803876 
151 1 6.37374 3.33743 0.805742 -0.683427 1.00906 -0.568262 
152 1 8.56862 9.31924 5.22846 0.117861 0.433754 1.55747 
153 1 5.20593 1.20562 7.78349 -0.881787 -1.51027 -0.151864 
154 1 4.33382 4.52159 2.8659 -0.562392 -0.230291 0.947837 
155 1 9.27279 6.34068 2.22019 0.30179 -0.92261 -1.12184 
156 1 1.62336 0.112382 0.16576 0.332434 0.145488 -1.0337 
157 1 1.1278 8.34998 5.81189 0.36178 -0.332246 -0.750089 
158 1 2.51141 0.439191 0.843888 -0.604702 -0.0669201 -0.649267 
159 1 6.8901 1.1499 1.3008 -0.779875 -0.363773 -0.460365 
160 1 5.99537 6.66552 5.30353 -0.236131 0.675968 -0.699943 
161 1 5.90352 8.05877 3.36274 1.55558 -0.412825 0.360533 
162 1 0.0509167 5.84008 3.00049 1.93111 -1.21262 0.0408682 
163 1 7.66844 3.6022 3.32568 0.0383068 -0.460554 -0.253096 
164 1 2.88625 6.26366 4.07076 0.508957 -1.0733 -0.51859 
165 1 5.75254 7.62381 5.2035 -0.470653 -0.314462 -0.0185597 
166 1 4.66199 4.77215 8.66083 0.260696 0.974059 0.528417 
167 1 6.59791 3.31681 5.51355 -0.0274963 0.66581 0.294405 
168 1 8.03324 7.68892 9.33549 0.862814 -0.407037 0.0384852 
169 1 6.1809 1.97351 0.721869 0.994112 -0.464691 -0.74003 
170 1 7.60606 8.43306 3.06488 1.39788 -0.987872 -1.415 
171 1 2.72059 2.51677 6.20139 -0.796149 0.826255 -0.10541 
172 1 3.62022 3.34834 2.82134 0.743434 -0.87895 -1.34212 
173 1 5.57775 7.23183 7.53382 0.356561 1.38164 -1.46492 
174 1 5.38837 6.85915 3.85006 -0.46753 -0.0836408 0.0247717 
175 1 5.62773 7.74217 4.23435 0.487226 -0.419577 -0.772341 
176 1 8.78971 8.3141 0.226497 1.71959 -0.429613 -0.172856 
177 1 7.60764 5.83568 6.30619 0.034784 -0.205841 -0.0187255 
178 1 4.02207 4.53377 1.5795 -0.571532 0.0438658 0.505232 
179 1 2.07654 1.18924 1.35183 1.36712 0.253968 0.279078 
180 1 3.30703 4.72346 7.82674 0.899915 1.2535 -0.268736 
181 1 4.78686 1.63883 2.20232 1.11743 1.74855 -0.145948 
182 1 7.40763 7.26265 3.53326 -0.872716 -0.72457 0.347155 
183 1 6.70527 7.93967 6.57936 0.237192 -0.435927 -0.2713 
184 1 6.18976 0.631818 4.50862 0.275318 0.752197 0.0686059 
185 1 2.35531 8.20924 8.34326 -0.678647 -0.777095 -0.0777592 
186 1 1.07849 1.09491 1.40499 -0.653065 0.472069 0.531924 
187 1 6.0806 6.26413 3.5963 0.00939323 -0.195457 -0.634721 
188 1 3.0735 1.21518 1.22871 0.0533095 0.453596 -1.24148 
189 1 3.89066 5.15061 5.75889 -1.4288 -0.577271 0.0252366 
190 1 1.10988 8.23258 1.02767 -0.334297 1.25931 -0.854872 
191 1 7.62196 8.78401 8.18583 -0.894738 1.17497 0.14929 
192 1 0.647389 1.95944 1.39045 1.06612 -0.704005 -0.0321008 
193 1 3.20135 4.73192 4.01811 -0.0239358 -1.084 1.10682 
194 1 8.50518 8.82999 7.74114 -0.774786 -1.16588 0.0957598 
195 1 0.422062 7.34491 3.46343 0.163611 -0.48869 -0.138207 
196 1 6.1773 8.7209 3.98764 -0.41508 1.49554 0.780183 
197 1 5.73136 1.17295 0.219725 -0.278946 -0.965328 0.374805 
198 1 6.87348 7.26815 0.815194 -0.690261 0.595537 0.974103 
199 1 6.20425 2.82423 8.7707 0.330335 -1.14023 0.0475291 
200 1 5.8162 8.65931 7.43855 0.266831 -0.0513897 -0.117519 
201 1 4.6844 0.854461 8.48543 1.90038 -1.23204 0.475183 
202 1 5.7025 6.69394 9.29328 0.709208 -1.08211 -0.357953 
203 1 1.86978 7.71676 9.10743 0.465591 0.168753 0.126263 
204 1 7.87038 5.52593 1.90052 0.580371 0.47024 -1.35608 
205 1 8.24067 0.647258 0.537497 -0.365015 -1.14231 0.0237581 
206 1 7.42834 0.210879 6.90728 0.33683 -0.240191 -0.192486 
207 1 0.859686 1.86696 6.13112 0.189683 0.985435 -0.334734 
208 1 8.61597 7.03183 2.41276 0.72052 1.25225 0.33377 
209 1 6.39232 6.76556 7.78055 -0.83363 -0.447811 1.7729 
210 1 4.02998 5.68702 6.56148 -0.296467 -0.706361 0.584913 
211 1 1.00211 2.89458 7.80975 -0.00280632 0.205937 -0.470594 
212 1 7.05892 0.0239904 7.761 -0.446102 0.485728 -0.226444 
213 1 5.8939 8.95223 3.07257 0.934908 -0.106617 0.989197 
214 1 6.16827 7.31185 6.01194 0.533293 0.776819 -0.893164 
215 1 3.92544 7.06742 2.28963 0.105531 0.0295668 1.18841 
216 1 1.85248 8.99834 6.00871 -0.294407 0.136075 -0.548887 
217 1 7.10501 1.6758 9.11902 0.288404 0.288931 0.691835 
218 1 1.81429 3.6694 0.293138 -0.395185 -0.441759 0.558505 
219 1 7.76064 7.78397 4.99683 0.0489432 2.10863 1.02749 
220 1 3.28961 0.982877 8.73979 -0.325504 -0.793552 0.83782 
221 1 0.0739622 0.781726 1.94201 -0.590124 0.659942 0.518245 
222 1 8.89475 5.05863 3.05561 0.50822 -0.118416 -0.667032 
223 1 1.26572 4.39731 4.86713 -0.304533 -0.550352 0.0100814 
224 1 4.88513 7.88313 7.44054 0.131724 0.512388 -0.376426 
225 1 5.08176 6.35564 3.10024 -0.401683 -0.837393 0.111154 
226 1 8.8024 5.48793 2.20831 0.41776 -1.02605 -0.025302 
227 1 2.43002 4.27858 7.94064 -0.239776 -1.02459 0.828358 
228 1 3.74632 3.61663 1.36656 0.337884 -0.297872 -0.0396502 
229 1 7.42323 0.180178 8.62796 0.375715 -0.379121 0.0439953 
230 1 1.4367 7.29965 4.6921 -0.0769291 0.309586 -0.456287 
231 1 6.85147 5.73845 3.99605 1.16338 1.29437 0.753258 
232 1 7.109 3.47244 1.44902 -0.711836 -0.89342 1.582 
233 1 1.99924 1.33949 7.35592 -0.864736 -0.958506 -0.0523382 
234 1 3.62032 4.23394 5.59451 -0.0615937 0.733292 0.698761 
235 1 9.17216 8.07199 7.82956 -0.157059 -0.669414 0.651033 
236 1 2.69458 5.97465 1.54415 -2.17619 0.514698 0.352419 
237 1 4.80773 1.98973 8.18698 0.446179 0.249302 -2.0565 
238 1 8.01814 2.2162 0.922611 -1.24039 0.996142 -0.601551 
239 1 6.49773 0.604137 5.39576 -0.431578 -1.48611 -0.0604594 
240 1 2.36577 6.58178 9.364 -0.216337 -0.56866 -1.07316 
241 1 0.264199 6.94618 5.39811 -0.162318 -1.04803 -1.11414 
242 1 4.1559 5.56792 1.5876 0.555116 1.40559 -0.144995 
243 1 0.241703 1.16812 0.940556 -0.469253 -0.225435 -0.911125 
244 1 3.92266 2.94486 1.99147 0.169414 -0.497987 1.85388 
245 1 1.94271 8.93428 6.95464 0.172153 0.844666 -1.21081 
246 1 5.44285 7.99143 6.01827 -0.464877 -1.61447 0.268136 
247 1 8.17375 6.74745 3.25952 -1.80718 -0.178199 -0.731938 
248 1 9.2794 1.15562 8.68914 -0.873522 0.16703 -1.41548 
249 1 2.31126 2.92808 1.78688 1.17497 0.0801107 -0.971214 
250 1 7.14278 7.20718 8.13875 1.05852 0.337001 -0.342806 
251 1 5.26819 3.5941 6.22668 -1.46578 0.220309 -0.652618 
252 1 1.38193 8.41543 8.46457 -0.907656 -1.26596 -0.0749802 
253 1 2.76331 7.43975 2.52555 0.349092 0.298087 0.0711299 
254 1 0.00213006 1.48764 7.8092 -0.777606 0.355691 -0.0806036 
255 1 1.3923 0.248422 6.57398 -0.629434 0.44463 0.468179 
256 1 4.06726 2.20398 2.54596 1.6943 0.333046 0.393804 
257 1 2.72533 4.05239 2.74914 -0.756833 -0.619165 -0.100098 
258 1 9.26784 0.184198 8.69068 -0.217981 -0.709365 -0.921357 
259 1 4.43453 4.39547 6.04513 0.185143 -1.05828 0.869106 
260 1 0.984436 4.84755 6.7089 0.669941 0.755542 0.261968 
261 1 4.44468 1.63967 7.40557 0.755594 1.04982 -0.159911 
262 1 8.42591 0.376714 3.6313 0.116824 0.435948 -0.963002 
263 1 6.40013 2.99293 3.61072 0.302127 0.657439 0.577879 
264 1 5.51504 9.38221 4.26186 0.167425 -0.872251 -0.787618 
265 1 7.21443 2.63151 4.03624 1.06753 0.359782 0.84717 
266 1 6.79181 7.4512 5.28998 0.181862 -0.118614 0.781663 
267 1 5.03994 7.32812 6.67578 -0.274217 -0.0169711 0.240008 
268 1 4.57649 3.06902 2.69151 0.6635 0.604353 -0.74924 
269 1 1.71986 2.13804 1.12928 0.00923014 1.02806 2.05064 
270 1 8.11004 1.13773 2.96651 -0.0189216 -0.101013 0.421651 
271 1 5.78317 6.1824 4.5004 1.42635 1.65814 1.26438 
272 1 4.86973 7.69375 3.6632 0.636412 1.38896 0.568663 
273 1 4.34211 8.52925 3.54968 0.125485 -0.727502 1.65766 
274 1 8.07546 4.00262 5.60221 0.820686 0.343076 0.822773 
275 1 4.02226 1.23987 5.76823 -1.03157 0.660052 0.372126 
276 1 6.85088 6.73645 2.97948 0.0228318 -0.400987 -0.0299908 
277 1 4.4954 6.6826 5.26258 1.34077 -0.509576 1.13331 
278 1 9.19178 7.09956 6.2306 0.547735 0.33187 0.136685 
279 1 3.19934 1.96147 8.41069 -1.61727 0.955629 -1.7412 
280 1 2.66628 7.43388 0.253344 -0.0785749 -0.0462301 -1.20716 
281 1 1.05791 8.73381 6.68676 0.552686 0.859869 -1.24285 
282 1 2.44143 4.17971 5.20504 0.563083 -0.328158 -0.565071 
283 1 2.65987 9.11247 8.72052 0.218436 1.27524 0.54445 
284 1 7.78739 7.46422 0.797614 -1.21623 1.00842 0.485608 
285 1 6.37563 0.999781 8.90369 0.0365154 -1.59616 0.104589 
286 1 5.39822 1.89394 1.3557 0.819671 -0.215035 -1.70545 
287 1 8.68677 4.26145 4.78976 0.455906 -0.716314 0.908403 
288 1 3.60331 1.98957 1.7063 -0.533083 -0.0813344 0.212116 
289 1 8.04392 3.94279 7.43081 0.244065 1.54066 1.84676 
290 1 7.65311 1.85458 3.47345 0.183143 -0.68338 1.29657 
291 1 8.33187 9.3838 8.50908 -0.791188 0.658984 -0.453425 
292 1 3.5744 8.17644 6.46611 -0.944961 -0.431516 -0.217964 
293 1 7.11254 2.59594 3.09223 0.122971 0.274231 0.137375 
294 1 7.89533 8.73933 4.76414 -0.280568 -0.681736 -0.724909 
295 1 7.24604 7.67234 2.66936 -0.819636 0.227195 -0.807641 
296 1 6.56683 6.74971 8.73667 -1.02131 -1.02638 1.08059 
297 1 3.52267 4.15324 0.655575 0.248195 -0.850421 -1.69276 
298 1 5.64191 6.47336 1.77705 -0.279704 0.766986 1.15331 
299 1 0.307045 2.32233 7.41174 -0.329864 1.59766 0.919522 
300 1 8.68486 9.04282 4.26561 -1.77957 0.00790165 1.26789 
301 1 1.89924 4.37174 7.05955 0.874955 -0.184857 0.0789194 
302 1 8.205 8.02414 8.12673 0.12849 -0.388057 0.530403 
303 1 3.55342 8.02794 0.194274 0.150345 -0.67696 0.250155 
304 1 4.70343 8.04344 4.51816 0.689602 1.22012 1.44612 
305 1 0.648254 9.22312 5.93788 0.204134 0.318621 -0.259073 
306 1 1.57908 2.16777 7.51225 -1.07219 0.553664 -0.655515 
307 1 3.30761 7.85557 8.44595 -0.0487041 -0.739232 0.588573 
308 1 3.5304 4.1989 3.29177 0.266465 0.434871 -0.441058 
309 1 5.57702 0.471353 8.54665 0.0788708 2.84 0.550245 
310 1 0.463354 1.31669 0.00286529 -1.58003 -0.127403 1.04235 
311 1 8.16002 7.66271 3.18489 0.122101 0.0184334 1.1945 
312 1 6.9536 1.83077 6.58815 0.547961 -0.364407 0.0350164 
313 1 5.64 3.0071 7.97324 -0.163124 -1.42296 0.481198 
314 1 2.44894 0.502518 9.25693 0.0102467 0.501306 0.00327588 
315 1 8.51017 2.42071 6.39558 0.130189 0.658954 0.63463 
316 1 6.19715 1.19008 3.08188 -0.403875 0.623366 -0.892051 
317 1 3.64309 6.20154 7.59894 2.03224 0.312051 2.14604 
318 1 7.55591 0.852979 9.26559 0.56427 1.1241 1.84404 
319 1 1.7866 6.36505 7.27462 -1.66827 0.505086 0.530272 
320 1 4.19761 8.48048 7.13004 0.701766 0.589532 0.584689 
321 1 5.60569 5.54228 6.54582 -0.340346 0.38636 -1.44539 
322 1 7.30805 3.47424 7.01527 -1.36396 -0.123263 -1.11883 
323 1 1.47061 5.81145 5.42641 1.58235 0.255887 0.789664 
324 1 5.39087 0.70259 3.63873 -1.53599 -0.103903 -0.248238 
325 1 2.56023 4.85475 2.19187 -1.45827 -0.0428798 -0.179908 
326 1 2.88439 5.73338 2.45766 0.0148899 -0.738418 -0.222137 
327 1 1.02606 0.359584 2.0544 0.840882 -0.0690058 0.330195 
328 1 2.85487 0.0856762 7.66021 -0.631598 0.87796 -0.496311 
329 1 4.17915 3.40705 0.517777 0.134664 -0.80419 0.404464 
330 1 2.0707 9.01488 7.93105 -0.378671 -0.168895 -0.4459 
331 1 8.94701 2.82732 7.17509 -0.142911 -1.14663 -0.344414 
332 1 7.14053 5.66031 7.14395 -0.0840946 -1.59087 0.314318 
333 1 2.70505 9.06374 0.285886 0.0379627 -0.392439 -0.768771 
334 1 7.10649 2.53506 8.63556 -1.44862 -0.496666 0.473777 
335 1 6.73645 4.09592 3.35745 -0.657377 -0.826877 0.610564 
336 1 8.74939 1.5411 1.09984 0.375682 -1.46412 1.05725 
337 1 5.08284 3.88562 2.78399 -0.155971 1.80655 0.342845 
338 1 3.55177 5.61495 4.24947 0.556903 1.1763 0.0729322 
339 1 8.56322 8.10045 4.52838 -0.284457 -0.365657 -0.11512 
340 1 8.02209 2.73273 3.49055 0.755294 -1.18627 0.329387 
341 1 8.90442 1.857 7.07347 -0.331985 0.224019 0.0312546 
342 1 1.75028 5.34929 6.22293 1.03771 0.149539 0.231621 
343 1 0.299312 4.06606 6.50287 1.43189 -0.0234443 0.473907 
344 1 4.12345 6.22063 2.72786 -0.111327 -0.609442 -0.12975 
345 1 4.71209 1.65461 6.32057 1.18489 1.27744 -0.296188 
346 1 8.12014 0.297784 6.26295 -1.22078 -0.416441 -0.447864 
347 1 8.65578 4.7821 5.58812 0.702867 -0.644311 0.932435 
348 1 4.37036 0.705921 7.58154 0.321368 0.602298 0.299631 
349 1 1.21452 8.09064 1.97341 0.934432 -0.133516 -0.813095 
350 1 1.81893 8.07375 6.45868 0.824003 0.0233362 -0.198373 
351 1 6.5433 9.11868 5.77199 -0.820105 0.777882 -0.566618 
352 1 5.22699 9.13163 2.34155 -0.484349 -0.630751 -0.624023 
353 1 8.20054 8.73118 6.47915 0.343438 -0.156818 1.04743 
354 1 5.24442 8.56071 3.86734 -0.0110471 0.167943 0.212995 
355 1 6.32715 1.88489 1.67071 -0.579022 -1.51195 -0.0523693 
356 1 5.02174 0.577675 9.32919 -0.238984 0.0494045 0.451097 
357 1 7.58609 4.49292 3.81373 -0.222061 -0.141434 -0.763092 
358 1 8.53418 0.717139 9.06132 0.189697 1.80013 -1.46523 
359 1 7.39919 6.84965 4.8542 0.571665 1.15333 -0.183783 
360 1 6.6811 0.384471 2.8507 -0.237779 1.08188 0.290168 
361 1 8.54336 5.79351 4.4004 -0.95979 0.463064 1.31386 
362 1 6.89475 5.71599 0.570585 0.912908 0.625654 0.0601545 
363 1 0.193718 8.23616 0.776224 -0.187863 -0.290243 -0.809561 
364 1 6.25761 8.0714 0.744592 0.479371 -0.384588 0.175622 
365 1 3.27241 2.45078 7.02037 0.0717272 0.594514 -1.4611 
366 1 5.10186 5.97331 0.162542 0.1461 -0.769986 -0.297815 
367 1 6.76173 0.82794 7.26801 -0.264785 0.438357 -1.73526 
368 1 8.9416 1.36397 0.198826 1.02679 0.167877 0.273182 
369 1 7.01417 5.0686 3.36042 -0.598517 -0.148769 -1.73927 
370 1 5.27768 6.97021 5.824 0.913879 -0.368766 0.848894 
371 1 7.32923 5.16486 8.7163 -1.54353 1.76848 -0.325311 
372 1 2.07815 4.68266 4.38389 -0.0592981 -1.16218 0.0264699 
373 1 7.92592 7.2531 7.57999 0.0786991 -0.35216 -0.215069 
374 1 6.37152 8.13514 4.72959 -0.535746 0.592227 1.84661 
375 1 4.88666 2.62543 7.43925 -0.960074 -1.01521 -0.115504 
376 1 2.45047 5.83463 6.84324 1.11174 0.473407 0.327227 
377 1 8.56827 8.42844 3.53219 -1.92319 -0.156014 1.0624 
378 1 3.28244 8.85229 7.0735 -0.245685 -0.130875 -1.48112 
379 1 6.51245 2.62097 7.88063 0.470928 -1.0988 0.733229 
380 1 8.17719 6.08811 2.60088 -0.823539 -1.35757 0.648079 
381 1 1.95006 6.30594 6.17448 -0.67082 0.554627 -0.239133 
382 1 8.85805 7.25204 0.190185 0.581969 -0.208528 1.47556 
383 1 2.26332 9.32783 1.65689 1.45301 -0.686546 0.756041 
384 1 2.69795 6.32649 8.53804 0.795178 0.692309 0.130483 
385 1 8.72447 7.94247 6.32164 -0.252103 0.598969 0.725961 
386 1 6.60258 6.87557 2.04336 -0.121023 0.0632079 0.219088 
387 1 5.65437 4.64058 1.2881 -0.21416 0.556629 -1.08803 
388 1 9.25813 6.31616 4.74361 0.156198 0.364834 0.549933 
389 1 1.93662 8.67459 9.23314 -0.778029 1.39127 0.654436 
390 1 4.07831 4.39796 9.31738 -0.0953983 -0.862602 1.16079 
391 1 7.13321 8.13381 1.07955 -0.626275 -0.321843 0.574874 
392 1 4.57426 9.36567 6.99597 0.710001 -0.0817165 0.494443 
393 1 2.32814 2.38753 8.65234 0.99722 0.276009 0.934428 
394 1 2.85127 8.78695 5.45893 0.1866 0.524656 0.956407 
395 1 1.00173 7.57583 8.80883 -1.86959 1.31956 -1.28234 
396 1 6.15505 5.73735 5.49247 0.542669 -0.106339 -1.45782 
397 1 6.97433 2.28241 5.10742 0.197611 -0.779841 -0.149233 
398 1 1.20346 7.04343 7.49468 -0.684541 -0.541697 1.48901 
399 1 4.90333 4.74843 3.60586 -0.182553 -0.995624 0.602942 
400 1 4.05446 2.66538 1.09619 0.390047 2.09473 0.332984 
401 1 6.02846 2.16817 6.56083 -0.815938 0.121394 -0.0218184 
402 1 5.39871 7.33358 2.99416 0.113643 0.851429 -0.623696 
403 1 0.414339 0.674028 8.07771 0.16832 0.731617 -0.377284 
404 1 1.01481 7.79765 6.92036 1.85267 1.38366 1.05348 
405 1 4.85186 8.97273 0.772226 -0.71276 -0.81931 0.153403 
406 1 6.8245 4.29057 6.8746 0.832198 0.794851 0.0956881 
407 1 3.36689 7.07174 7.27335 -0.465085 -0.9308 -0.216928 
408 1 2.15996 5.9051 4.68272 0.288159 0.590258 -0.300588 
409 1 8.84597 6.46358 5.60981 -0.45153 -0.658626 0.0838835 
410 1 4.63825 5.02474 2.14149 -0.215114 0.158149 -0.589196 
411 1 6.70976 4.91419 9.38659 -0.111771 -0.689498 -0.949286 
412 1 8.89604 8.5955 1.45787 -0.255737 0.702093 0.855914 
413 1 7.47294 1.05153 6.5316 -0.780406 -0.267902 0.237491 
414 1 5.4323 3.361 9.02719 0.958162 0.26792 0.424755 
415 1 6.73697 4.03504 4.89876 0.0358007 0.499544 0.414136 
416 1 2.17514 0.912059 6.48451 -0.185721 -0.136102 -1.08581 
417 1 4.93045 2.25081 2.97842 0.0893787 -0.13353 -0.1362 
418 1 0.883331 5.74262 3.50159 -0.478097 0.0696422 0.87725 
419 1 0.682144 5.1424 5.10654 -0.274124 -0.433432 0.038276 
420 1 2.78541 6.64869 0.853841 0.28654 0.689033 0.654895 
421 1 8.09472 7.96537 2.30593 1.20613 0.226357 -0.318563 
422 1 8.76381 6.63286 4.00385 1.46773 -1.33796 -0.94668 
423 1 1.16723 4.66376 5.77843 1.579 0.35074 -0.26273 
424 1 6.38012 5.12152 7.07006 0.70995 1.33232 0.623926 
425 1 0.717453 3.14564 6.19888 0.170025 0.761806 0.572897 
426 1 2.13006 6.79152 4.28033 -1.8563 -0.0549861 -0.44221 
427 1 3.49316 0.749784 7.84498 -0.490432 2.13506 -0.912476 
428 1 4.7745 9.30796 8.47986 1.5823 -0.550061 0.67559 
429 1 0.0643652 3.09094 7.97628 -0.391603 -0.482394 0.78864 
430 1 7.95827 0.912087 8.36852 -0.784498 -0.22559 -0.17024 
431 1 2.70989 1.24412 8.02552 -0.509512 -1.05195 -1.62279 
432 1 3.94888 2.39514 7.76308 0.779467 0.197445 -0.139012 
433 1 5.84511 2.72727 1.4056 -0.436274 1.21503 0.171564 
434 1 2.61365 4.95463 6.53894 -0.560663 -0.667425 -0.507157 
435 1 7.32933 8.03538 7.68178 0.253161 0.402188 -2.47641 
436 1 5.00446 3.91911 8.40902 -1.0616 -1.30561 -1.27938 
437 1 3.9329 7.68998 3.89426 -0.446415 0.799392 -0.213937 
438 1 0.821676 2.19509 9.23956 -0.725745 -1.1187 -0.238374 
439 1 3.77877 6.45645 4.65687 -1.12381 -1.37851 0.667627 
440 1 6.38499 3.62916 9.25198 -0.208062 0.0761119 0.326906 
441 1 8.80655 0.66897 7.99203 -0.880215 0.393033 0.574999 
442 1 3.32437 7.45932 0.930717 1.44808 -0.786692 0.528827 
443 1 6.04841 2.57909 5.16944 0.13272 0.635995 -0.828048 
444 1 6.83992 8.03967 3.5447 -1.18454 -0.151857 -0.305447 
445 1 2.12882 4.42806 0.986736 0.375579 0.32974 0.353101 
446 1 0.360356 5.59666 6.86343 0.980521 -0.0161898 -0.0520324 
447 1 7.96636 6.59525 6.78648 0.0198114 -0.202605 2.16864 
448 1 1.91467 5.73631 2.09158 -0.430078 -1.14011 -0.358415 
449 1 8.04674 2.16456 4.30188 -0.474872 -0.72647 0.469739 
450 1 5.04829 4.24222 9.36361 -0.121608 -0.330067 -0.148457 
451 1 4.70636 6.91652 7.5144 1.05664 0.376116 0.288854 
452 1 7.58875 1.77146 8.28995 0.110252 0.303039 -0.398626 
453 1 7.26123 7.12986 9.22542 -0.509853 1.1135 0.0138567 
454 1 5.7999 4.22575 2.13508 -1.21452 0.316104 -0.626335 
455 1 1.52457 7.06771 6.54466 0.530931 -0.0925577 -0.867787 
456 1 4.66263 3.38063 1.42437 -0.213868 0.656438 0.852563 
457 1 6.27577 9.18961 2.22454 -0.240672 0.649941 0.946196 
458 1 5.23112 3.73898 3.77495 0.268737 1.62863 0.153804 
459 1 0.242589 8.38935 6.23549 1.77819 -0.0983718 -0.546942 
460 1 0.745553 5.4707 6.00293 -1.0081 0.483995 1.13428 
461 1 7.76259 3.68013 8.39352 -1.80563 -0.297189 0.357019 
462 1 3.67363 1.71527 9.24319 -0.254226 0.297221 0.100384 
463 1 4.65077 1.6226 9.06361 -0.285772 -0.066338 0.399641 
464 1 3.80941 5.34844 2.53113 -1.61921 -1.33145 -0.782195 
465 1 5.11346 8.57917 6.76096 -0.684634 -0.858364 0.525806 
466 1 7.82303 8.44295 0.487055 0.588348 0.0441141 0.00561959 
467 1 7.58994 2.6187 6.72803 0.513358 0.109749 0.551059 
468 1 7.0206 0.918806 8.21265 -0.875988 -0.689025 0.178508 
469 1 3.91409 7.91426 5.60425 -1.42438 -0.858429 0.53913 
470 1 1.6251 0.858661 8.93542 0.68273 -1.58868 -0.959889 
471 1 2.55022 5.41425 3.82466 -0.120671 0.349839 -0.842816 
472 1 5.73352 0.445359 2.75048 0.78492 -0.117244 0.276208 
473 1 9.24971 7.79496 5.53133 0.458326 0.337963 1.41709 
474 1 4.21296 6.86377 8.56654 -0.936193 1.43946 0.0452952 
475 1 3.635 6.70668 3.69556 0.594681 0.305083 0.0326837 
476 1 7.7362 4.16184 6.49777 0.716407 0.721776 -0.510022 
477 1 1.68527 3.11077 1.06238 0.317596 0.107667 -0.648886 
478 1 6.60255 6.39148 1.22428 -0.47507 -0.652118 0.927855 
479 1 0.688648 6.5765 2.92223 -0.328654 -1.08458 -0.247219 
480 1 2.07393 8.2907 1.53058 0.324162 -0.928122 1.43943 
481 1 7.69998 8.03251 5.97878 -1.05421 -1.13198 1.51638 
482 1 7.68848 6.90234 2.4194 0.322383 0.602473 0.566844 
483 1 8.78265 7.21614 7.96435 -0.0261862 1.85245 1.02305 
484 1 7.98742 0.262125 7.66522 0.146568 0.157606 -0.824015 
485 1 7.76204 8.1011 3.96332 0.744609 -0.00854458 0.322568 
486 1 0.129097 2.0319 0.564641 -0.522986 -0.0181835 -0.365529 
487 1 3.64291 8.71696 8.90584 -0.850437 0.895728 -1.31334 
488 1 8.66523 0.0341204 7.00595 0.603686 0.780718 -0.559682 
489 1 4.3035 6.03211 3.69025 -0.183859 1.07324 0.817828 
490 1 7.88916 2.56422 5.17529 0.102549 0.033016 -1.15491 
491 1 2.8842 2.2293 9.38182 0.757997 0.34253 0.658508 
492 1 1.07199 6.62818 5.84021 0.453743 -0.914058 -0.295081 
493 1 1.57068 0.348154 1.11519 0.618667 0.764902 -0.590299 
494 1 6.40881 0.309229 0.981296 -0.467011 -0.523841 0.929494 
495 1 5.32367 5.31466 4.65341 0.275232 -0.389678 0.600463 
496 1 4.81228 4.06398 6.90407 0.395382 1.1251 -0.742211 
497 1 7.86775 0.6289 5.39649 0.478086 -0.110145 -0.500232 
498 1 0.942508 4.11886 7.34329 1.66531 -0.158207 1.20377 
499 1 3.35249 9.2177 6.17149 0.632128 -1.15434 0.256555 
500 1 4.34984 2.05326 0.440341 0.477103 0.301013 0.107324 
501 1 9.27001 4.42983 3.95587 -0.104614 0.0849855 -1.13033 
502 1 0.965537 6.64372 0.714466 -0.611962 0.977245 -0.733243 
503 1 3.17727 2.8155 1.4065 -0.251337 0.173308 -0.776564 
504 1 0.70109 4.85785 4.1612 -0.207006 0.753749 0.695225 
505 1 0.415889 8.30044 8.55754 0.624404 -1.03189 -0.10986 
506 1 4.40028 6.97787 3.2064 0.359861 0.388101 0.861175 
507 1 7.78395 9.0183 5.68288 -0.733765 -0.300446 0.953784 