ITEM: TIMESTEP
2296
ITEM: NUMBER OF ATOMS
1000
ITEM: BOX BOUNDS pp pp pp
0.0000000000000000e+00 9.4000000000000004e+00
0.0000000000000000e+00 9.4000000000000004e+00
0.0000000000000000e+00 9.4000000000000004e+00
ITEM: ATOMS id type x y z vx vy vz 
1 1 4.21766 7.23408 3.8904 -1.2905 1.15786 -0.739318 
2 1 6.57567 4.34886 0.67145 0.210099 0.758304 -0.235962 
3 1 8.22205 8.73525 2.36589 -1.03373 -0.472938 -1.01569 
4 1 5.61044 3.21236 2.94279 -1.02464 1.8409 1.42678 
5 1 6.39279 8.09787 2.41411 0.796572 0.562376 0.0836914 
6 1 2.32011 8.98809 3.22569 0.646066 -0.818324 -0.853499 
7 1 0.133132 9.25025 4.52087 0.0671437 -0.321443 -0.0596564 
8 1 3.61445 9.17369 0.980953 -0.32422 -0.281259 0.668792 
9 1 1.36976 5.11492 3.30606 -0.55314 0.420544 -1.39153 
10 1 8.89276 2.01776 0.437176 -0.620253 0.95012 0.101781 
11 1 0.473203 5.88192 2.30016 0.32908 0.981288 -1.36929 
12 1 7.59219 3.16131 5.74442 0.58434 0.237911 1.98591 
13 1 4.83338 4.04219 5.05229 0.182678 0.608854 0.736474 
14 1 6.3138 6.63476 0.451517 -0.571784 0.72364 0.477507 
15 1 4.60006 3.25211 0.501623 -0.225507 0.0528735 0.294541 
16 1 7.50255 1.41055 3.92695 0.289949 -0.7094 -0.186819 
17 1 9.3246 6.5326 7.951 -0.480177 -0.335238 -0.089809 
18 1 2.65246 9.20443 1.066 -1.2072 -0.455816 -0.832346 
19 1 6.35797 7.63833 9.23159 0.376807 -1.1116 0.837097 
20 1 1.94029 3.20006 6.04151 0.455845 0.319949 0.150742 
21 1 1.92398 6.48064 2.72547 -0.741408 1.1837 0.478252 
22 1 8.14551 4.60514 1.60209 -0.851108 0.149192 -0.596269 
23 1 8.9438 6.53181 4.55622 1.39012 1.37053 1.28358 
24 1 8.17044 9.15511 0.507613 -0.941793 0.165857 1.27374 
25 1 1.55702 8.33713 8.63307 -0.453746 -1.58169 -1.21682 
26 1 5.90735 8.44643 8.94322 -0.536768 0.51334 -0.909467 
27 1 7.7246 9.29785 1.81398 -0.287979 -0.779726 -1.40199 
28 1 2.53701 8.61972 2.35094 -1.00809 0.42584 0.872168 
29 1 2.98442 6.05967 1.73965 0.850201 -0.655086 -0.58736 
30 1 0.515599 2.0983 6.76267 0.296799 1.13286 0.368177 
31 1 6.96814 0.591697 4.14484 0.215286 0.160633 0.620263 
32 1 2.1877 4.61201 3.13995 -0.608936 0.554576 -0.853076 
33 1 6.63316 3.41912 5.49986 -0.849961 0.637962 0.117578 
34 1 0.97052 1.52861 4.52688 0.735118 -0.635057 -0.483301 
35 1 0.462875 5.29433 7.39751 -1.08948 -0.934055 1.02262 
36 1 7.18508 6.81634 0.876241 -0.737672 -1.85995 -0.68315 
37 1 3.20076 8.92248 8.67295 0.116533 0.287373 0.800689 
38 1 0.0974323 3.53942 4.40918 0.737773 1.31964 -0.983229 
39 1 1.70126 2.13122 1.79471 0.237454 1.68112 1.67413 
40 1 1.11718 5.06309 5.85571 0.307452 -0.270723 0.268468 
41 1 7.12096 3.6283 8.65437 -0.211078 -0.379969 -0.629777 
42 1 7.47878 7.73682 1.0562 0.18294 -0.972513 -0.464769 
43 1 0.877569 6.78084 3.74969 0.293077 0.284204 0.874465 
44 1 3.29425 6.75709 6.18971 0.204899 -0.964003 -0.634745 
45 1 8.37686 6.99642 6.50171 -1.34611 -0.61549 0.945359 
46 1 7.46744 4.79856 2.27195 -0.422386 0.326965 -0.411374 
47 1 4.89884 8.84875 6.61993 -0.911407 -0.597227 -1.22025 
48 1 4.12707 6.30971 3.98209 -0.592199 0.710124 -0.86237 
49 1 4.68243 8.50714 1.58451 1.26851 0.173671 0.844612 
50 1 2.27215 5.96001 9.02252 1.0392 -0.983109 1.36052 
51 1 0.085351 6.39199 0.539558 0.170363 0.0975851 -0.509985 
52 1 2.61613 4.3888 3.97812 0.551655 1.79808 0.508108 
53 1 5.32678 7.8311 7.78475 -1.00868 0.7501 1.39297 
54 1 5.01433 7.56864 4.27225 0.159372 0.686404 -1.01303 
55 1 6.64945 0.875207 2.56769 0.812616 -0.305357 -0.237734 
56 1 4.32206 8.31617 0.672912 0.209829 0.127649 1.15004 
57 1 1.87025 1.89348 0.888394 -0.362517 -1.50226 -0.799804 
58 1 7.35064 8.71583 5.21487 -0.386918 0.428435 0.702576 
59 1 4.12069 4.40907 4.39875 0.000125555 -0.195255 0.362472 
60 1 7.44625 3.94987 1.85431 -0.819033 -0.719169 1.51761 
61 1 7.34122 4.50494 8.30148 0.612524 -0.308532 0.425376 
62 1 0.0158062 6.44053 2.90423 -1.47761 1.4268 -1.94342 
63 1 3.76482 7.92071 7.17654 -0.733939 -0.0445364 0.0970326 
64 1 0.0164969 2.45313 7.56414 0.347255 0.357026 0.303462 
65 1 1.41111 5.41464 0.746003 0.467264 0.823456 0.00583004 
66 1 5.58733 7.65397 2.72365 0.592483 0.0491621 0.424026 
67 1 7.88487 5.54679 0.0921055 0.514538 -0.465701 0.786237 
68 1 4.14812 5.05064 8.98299 0.727004 -0.795759 -0.995734 
69 1 1.06898 4.66546 1.22544 -0.0786133 0.0856884 0.79582 
70 1 0.34274 4.57793 5.6228 -0.133013 0.320414 -0.392135 
71 1 2.43175 7.3237 2.49558 0.441413 0.395653 -0.775777 
72 1 8.15938 4.58877 5.736 -0.80279 -0.293123 -0.712414 
73 1 0.944574 4.64856 4.02502 0.0143565 -0.141175 -1.38942 
74 1 4.42183 2.50768 1.06396 -0.87394 0.0326639 -0.385814 
75 1 5.36193 2.87605 1.06153 0.833076 -0.736917 -1.26661 
76 1 2.33791 7.10684 7.52578 -1.27339 -0.878179 -0.0612112 
77 1 5.26393 6.53744 0.15672 -1.91037 0.500835 -0.17894 
78 1 9.22773 0.898688 2.40105 0.391541 1.7381 -0.38421 
79 1 8.28788 1.25515 7.36717 -0.240684 0.388725 0.463555 
80 1 1.04241 5.89024 5.38704 0.270118 0.27835 -0.680137 
81 1 3.6844 4.2485 8.77891 -0.258151 -0.17311 -0.965429 
82 1 6.68339 2.44755 2.06406 -1.29015 -0.117002 -0.11131 
83 1 7.79672 4.72521 4.05755 -0.0255315 0.138483 1.19517 
84 1 8.50477 6.65694 3.11691 -1.76271 0.987985 -0.697377 
85 1 6.08724 7.95372 5.7127 -0.187259 0.289922 0.126501 
86 1 0.0145926 3.30759 2.09427 0.862892 -0.38247 -0.200921 
87 1 5.61571 6.25073 0.985395 -1.62795 -0.143803 -0.389947 
88 1 3.81572 6.15354 2.35479 0.750193 -0.372726 0.382663 
89 1 2.00356 3.51266 7.07666 -0.116948 -0.953331 -0.976477 
90 1 4.61345 8.12818 4.90919 -1.66431 0.380338 0.613929 
91 1 1.93126 5.62975 5.69449 0.477122 0.630165 -0.0122422 
92 1 2.80286 7.5007 0.554163 0.320423 -1.29109 0.0432247 
93 1 7.52962 6.74848 8.23004 0.254047 0.686412 -0.399542 
94 1 4.3062 8.17497 3.98107 -0.0847193 0.259361 0.762303 
95 1 3.34188 7.86119 6.20191 -0.294139 -1.19795 1.67874 
96 1 8.87678 5.30771 1.45578 -0.799227 -0.42836 0.809817 
97 1 0.424159 3.5826 9.15455 0.843139 0.222714 -0.843994 
98 1 7.31775 8.2881 4.25312 0.550202 -1.1256 0.359639 
99 1 5.70252 5.44161 4.35595 -0.489512 -0.737159 -0.538397 
100 1 3.23482 3.84433 1.78083 -0.119397 0.442642 -0.367475 
101 1 1.92503 5.03098 6.41483 0.469225 1.32359 0.647075 
102 1 8.04728 3.98688 4.96469 0.174588 -0.259867 0.676189 
103 1 3.83938 6.13452 1.33963 0.331946 -0.29234 0.566776 
104 1 3.83956 5.95059 0.388706 0.455003 0.0416006 -0.485657 
105 1 8.70135 3.11479 7.58784 -0.21899 -1.01137 0.976399 
106 1 0.534268 1.64915 7.64938 -0.268179 0.529877 -0.023091 
107 1 1.77853 2.77363 2.50171 -0.374805 1.3522 0.195308 
108 1 8.09191 1.78632 5.67792 1.26426 -0.576648 0.6046 
109 1 5.23189 8.01698 6.17326 1.69875 0.120449 -1.13473 
110 1 1.1629 3.71748 7.47627 0.18331 -0.0758954 -0.614109 
111 1 7.96833 7.33006 8.89804 0.563179 -0.955884 0.886538 
112 1 2.32589 9.38914 8.47559 0.49137 -0.239809 -0.34372 
113 1 1.80988 6.48622 5.18964 0.517448 -1.81707 -0.0979314 
114 1 5.48264 5.52682 8.75399 0.107386 -0.00929742 -1.21174 
115 1 7.92337 7.02952 1.54614 -0.0590942 0.21119 -0.250264 
116 1 1.83785 4.92739 2.33489 0.096863 -1.44889 0.028723 
117 1 0.811702 1.6075 3.53181 -0.805912 0.47337 -0.470042 
118 1 4.5021 8.82601 3.25407 0.949483 0.18505 -0.187167 
119 1 6.44533 2.71517 0.812491 0.181743 -0.543159 -1.00565 
120 1 5.97457 4.06374 0.0110301 -0.570105 0.735285 1.04037 
121 1 1.0847 5.55292 4.13197 -0.957669 1.37972 -0.922219 
122 1 7.86693 3.32958 2.44205 0.901909 -0.0345656 -0.379962 
123 1 5.9704 3.7999 2.29967 -0.339849 -0.14134 -0.796782 
124 1 1.64297 4.11207 1.89617 -0.103611 0.556941 0.948578 
125 1 0.885952 6.86991 5.38183 -0.451412 -0.0389262 -0.928952 
126 1 8.37574 6.14621 1.47618 -0.713567 0.770774 -0.297611 
127 1 2.46973 3.88472 5.54787 1.55413 0.79986 -0.0753423 
128 1 4.94579 4.01884 4.10127 -0.331405 0.810083 1.27495 
129 1 0.6113 4.46409 8.86317 -0.420899 1.93649 -1.13963 
130 1 5.92326 3.44718 6.25941 0.479201 0.186663 0.169843 
131 1 3.84203 4.88538 7.07583 -1.02233 0.433856 2.46196 
132 1 0.304047 6.08882 4.18077 -1.53223 0.0264924 -0.251976 
133 1 4.86544 4.81195 8.40771 1.44375 -0.100414 0.308389 
134 1 2.13138 7.79543 9.17809 -1.398 0.0656446 0.827435 
135 1 5.69047 4.99484 7.166 0.902116 0.407876 -0.145692 
136 1 8.16297 4.21567 2.49826 0.127622 0.00667105 0.960734 
137 1 5.21186 4.18715 7.62458 -0.14245 0.166046 -2.22329 
138 1 6.17643 3.39396 8.77057 0.802376 0.268237 -0.433277 
139 1 4.26034 3.46026 4.49941 1.36989 0.671841 -0.143444 
140 1 5.15285 4.0196 0.542213 -0.993271 -1.07003 -0.436829 
141 1 1.14749 3.48161 2.42058 0.282293 0.152848 2.09929 
142 1 9.06731 7.3399 2.74074 -0.0418959 -0.38427 -0.32695 
143 1 3.50776 7.27857 7.82845 -1.16433 0.333474 -0.194249 
144 1 3.02019 8.45122 6.90596 -0.31797 -1.10514 -1.51492 
145 1 8.75449 6.82726 2.02525 -1.0902 0.227502 -0.400061 
146 1 8.99021 4.00815 7.73164 0.086469 0.0728124 -0.23753 
147 1 8.51358 0.179684 9.09094 1.54605 1.19424 -0.0287066 
148 1 8.43015 2.01979 1.57345 -0.0387215 -0.33399 0.0870222 
149 1 6.57158 3.91225 1.50079 -0.135262 -0.961333 0.178012 
150 1 6.42211 2.71144 2.93835 -0.860926 -0.587717 0.0714697 
151 1 0.585517 3.90009 0.731707 -1.09131 -0.108537 0.249092 
152 1 4.07351 3.68224 5.55482 0.0298912 -0.438475 1.03471 
153 1 1.67511 1.39737 0.0957677 -0.368157 -1.05897 -0.314234 
154 1 6.39962 6.21238 2.32757 -0.777636 0.292466 0.0924881 
155 1 5.86475 8.63348 7.9655 1.34104 -0.631907 -1.35005 
156 1 9.38227 9.17254 9.36073 -0.695008 0.522763 -1.09727 
157 1 7.28697 8.60268 2.56013 -0.455298 -0.807951 1.18465 
158 1 5.20295 5.39196 1.21559 0.633333 -1.10569 -1.51145 
159 1 0.166771 2.30372 3.5121 -0.278238 0.485779 0.0848705 
160 1 1.94976 5.06933 4.01098 2.02855 0.799596 -0.072195 
161 1 9.30234 6.93477 3.6904 0.0781618 -0.265687 -0.257733 
162 1 2.23798 6.61663 8.35645 -0.541526 0.357362 -1.0519 
163 1 6.84149 3.37532 2.3127 0.906526 2.0513 -1.85968 
164 1 3.22537 2.10415 2.45389 0.530951 0.206768 1.58211 
165 1 1.31872 3.49809 8.60053 -1.04499 -0.637434 0.626531 
166 1 8.36276 8.9565 8.31888 0.469407 -0.554404 -0.232836 
167 1 3.02754 0.400628 9.02045 -0.297687 0.694033 -0.897084 
168 1 2.06739 7.37379 4.97863 0.503228 0.900115 0.30073 
169 1 7.97199 2.04101 0.699856 0.941123 -0.635204 0.84866 
170 1 7.44661 4.64904 7.29764 -0.449329 -0.473794 -0.82353 
171 1 1.46178 7.19753 2.28462 -1.8351 0.805476 -0.397109 
172 1 7.84051 0.88074 5.55876 0.0706091 0.149804 0.454707 
173 1 6.01145 4.44523 3.01102 0.379251 1.3246 -0.262576 
174 1 2.09418 8.06269 3.00822 -0.177401 0.638869 0.123785 
175 1 1.91573 3.98524 8.00061 -0.993687 -0.344215 -0.318293 
176 1 7.64989 6.8925 7.22577 -1.12273 0.153013 0.91057 
177 1 0.799094 0.969258 2.25433 0.0267257 -0.152541 -0.195053 
178 1 2.53404 4.2992 2.24982 0.325332 -1.12989 -0.946862 
179 1 3.06732 4.91157 7.6495 0.776339 2.32005 -0.763713 
180 1 6.64426 7.52153 5.05791 -0.689579 -0.496073 0.738937 
181 1 0.753155 8.69012 8.95561 0.357564 -1.09812 -0.845089 
182 1 7.23419 6.42703 1.86187 -0.537324 0.114915 0.702251 
183 1 3.76014 7.75581 4.65035 1.05613 -1.29654 -0.594266 
184 1 5.08971 6.60041 5.33392 0.231869 0.0818837 0.910094 
185 1 7.63262 6.30084 3.43138 -0.949968 0.585884 0.450736 
186 1 2.93023 4.4526 9.31387 0.0834137 0.572816 -0.881699 
187 1 9.15259 4.05747 8.67871 0.718282 -0.639819 0.26138 
188 1 8.46311 2.66093 5.92067 -0.149811 -0.986279 -0.283157 
189 1 7.08866 3.09975 1.43912 0.0955863 -0.862701 -0.275928 
190 1 2.86519 6.45751 2.61005 0.764901 -0.491138 -0.526266 
191 1 1.59298 7.32488 0.38277 -0.084509 -0.359106 0.123532 
192 1 1.41056 5.47386 1.6817 0.202567 -0.643898 -1.51219 
193 1 1.67483 4.09208 3.72338 0.465521 -0.191042 -1.61293 
194 1 2.5502 7.37809 6.07955 -0.212721 -1.3269 1.44285 
195 1 9.29878 7.05641 6.78246 1.26358 -0.869549 -0.642113 
196 1 0.325685 2.8059 0.454687 0.827016 0.827352 -0.682241 
197 1 5.60366 7.28985 3.60131 0.310619 0.500025 -0.0745965 
198 1 1.34057 0.897274 3.0436 -0.457379 -0.513768 0.309973 
199 1 7.98632 0.0118639 5.19642 -0.122531 0.151129 -0.509083 
200 1 2.24769 0.323192 0.21996 1.35324 -0.1406 -0.291274 
201 1 2.68596 4.90014 5.77498 0.638587 -0.811154 0.0804516 
202 1 0.335043 6.4344 6.11654 0.605775 0.29619 -1.47396 
203 1 6.4485 7.27401 3.1404 -0.229794 0.528858 -1.03679 
204 1 0.592126 0.852894 1.31773 -0.854128 -0.543541 -0.576599 
205 1 8.03571 7.22242 0.494035 -0.852095 0.330338 -0.0551287 
206 1 5.46702 8.89142 1.21376 -0.252531 0.715829 -1.0041 
207 1 4.38314 0.174799 2.62705 0.0331767 -1.03182 0.363935 
208 1 0.840677 5.29505 8.453 -0.241937 0.586777 -0.818516 
209 1 7.19294 2.05752 2.8517 0.710245 1.20504 -0.353661 
210 1 7.38166 8.75971 6.24959 -0.909448 -0.175519 0.241753 
211 1 1.2243 7.34128 4.57804 -0.246959 0.322453 0.739022 
212 1 1.29829 4.28949 2.85934 -0.236127 -0.190247 -0.115213 
213 1 3.28518 5.64921 7.01108 0.181301 -0.839364 0.49695 
214 1 0.123639 7.46248 5.3429 0.362907 0.111895 -0.477602 
215 1 7.78692 7.91103 6.5102 -0.527857 0.0693812 1.67321 
216 1 7.99636 6.33237 2.38795 1.14002 0.963315 0.00638993 
217 1 8.51218 4.12502 9.35726 0.7321 -0.519598 -1.52282 
218 1 8.10147 0.500847 1.18281 -1.35864 0.167947 -0.279996 
219 1 4.15305 5.32172 4.6773 0.430186 0.572978 1.43711 
220 1 2.47783 6.41467 3.4915 -1.37475 0.448704 -0.231331 
221 1 4.22119 3.44532 6.53127 -2.03701 -2.04537 -0.051934 
222 1 3.08924 8.23347 3.00037 1.28855 1.48603 0.719642 
223 1 6.06078 3.83954 7.91089 0.46202 0.0784882 0.922958 
224 1 2.72321 5.63303 3.98206 0.548191 -0.410767 -0.402737 
225 1 1.12541 4.52828 6.69942 -0.911752 1.45812 0.533556 
226 1 5.25864 3.19798 2.04062 -0.201284 -0.410443 -1.39061 
227 1 8.4638 7.70441 7.12761 0.545682 -0.428227 -1.06971 
228 1 0.893078 6.73728 0.199362 0.505951 -0.143471 0.750904 
229 1 0.87057 0.0608447 2.79357 1.24878 0.427081 0.747074 
230 1 3.62808 2.71107 0.575047 0.0446407 0.761323 1.44071 
231 1 8.45308 5.0988 2.35655 0.700604 0.193657 -0.5459 
232 1 3.77067 7.63546 0.231718 0.316514 -0.988098 -0.392568 
233 1 3.36467 3.22991 3.42982 -1.1153 0.0684982 -1.10859 
234 1 6.97546 6.09021 8.60748 0.918723 0.917995 -0.383494 
235 1 0.175129 8.43617 5.26971 -0.923104 0.589229 1.39876 
236 1 7.20303 5.84373 1.13109 -0.460083 -0.0605875 -0.00881229 
237 1 2.70748 4.04224 7.39835 -1.62894 1.34839 -1.04791 
238 1 3.14981 0.219778 8.01402 1.12311 -0.701288 -0.184793 
239 1 1.9239 8.91292 1.67225 -1.12083 0.289097 0.0200831 
240 1 8.08719 7.46662 5.75107 -0.125521 -0.333976 -0.235059 
241 1 8.64246 7.93576 2.1382 -0.746251 1.33563 -1.17865 
242 1 0.717069 5.76767 0.202325 -0.460022 -0.480736 1.04444 
243 1 7.07816 6.04582 0.207581 0.657447 0.486117 0.903952 
244 1 7.02988 8.11138 3.36252 -0.570674 -0.237729 0.489821 
245 1 1.21581 8.45053 1.24083 0.0503183 -0.290784 0.129632 
246 1 3.68957 5.35371 1.87706 0.369061 0.520296 1.111 
247 1 4.95467 6.54418 3.47617 -0.716722 0.115579 -0.620064 
248 1 5.72019 8.9055 3.65062 1.81038 -0.779828 -1.23576 
249 1 7.36662 5.9577 5.2809 -0.228452 0.758881 -1.05513 
250 1 0.552946 7.34203 3.01477 -0.688364 -0.6517 -0.0506503 
251 1 7.10651 7.65861 8.62008 0.434772 1.01224 1.17524 
252 1 0.275964 4.9024 6.53011 -0.325878 -0.282217 0.706924 
253 1 6.2969 8.14621 1.40318 -1.72417 -0.422508 1.01824 
254 1 7.20631 2.37388 4.47989 -0.639533 1.48429 0.308663 
255 1 5.8733 3.86545 3.79314 0.337638 -0.0489978 0.613157 
256 1 6.37889 5.3105 8.47443 0.265464 0.568061 -1.73927 
257 1 8.77345 1.78656 2.46076 2.31138 -0.512828 -0.896462 
258 1 2.83217 4.69033 6.69531 -0.350489 0.174621 -0.192538 
259 1 6.69467 1.5263 4.42766 0.347584 -1.08906 0.441659 
260 1 5.99791 3.55328 0.797396 -0.107181 -0.0814648 0.803396 
261 1 0.260121 1.03258 4.07517 0.0193227 0.55749 -0.600956 
262 1 4.71829 7.44314 0.329363 -0.145867 -0.692119 -0.0214694 
263 1 6.90683 6.29947 7.65294 0.392954 0.346651 -2.03112 
264 1 5.01678 8.736 4.27985 0.124906 0.0896124 -0.321943 
265 1 5.04387 5.66939 5.09427 0.462767 0.0892953 0.742545 
266 1 9.25758 7.63757 0.737129 0.420907 1.05494 1.56313 
267 1 6.29865 4.88841 1.37849 0.596903 1.44149 1.6838 
268 1 7.83837 0.439048 3.65117 2.1241 1.01181 0.774059 
269 1 8.43953 7.79779 1.20344 0.512434 -1.1326 0.0215246 
270 1 1.39615 6.77035 7.97954 0.407304 -0.501437 -0.360341 
271 1 0.813407 1.05041 9.29311 -1.28896 -0.811858 0.281748 
272 1 0.163412 7.78752 8.56251 0.917969 -0.163709 -0.361218 
273 1 2.3758 3.75797 0.428692 -0.332103 -0.33521 -0.209444 
274 1 6.51934 8.41996 4.78932 0.0656524 -1.08987 1.36244 
275 1 0.0173262 7.9271 3.63219 -2.01065 -0.604078 1.00754 
276 1 1.77168 3.04416 7.86736 0.25734 0.681453 -1.13153 
277 1 4.24978 1.56283 1.32649 -0.0514656 -0.316829 0.12897 
278 1 8.90136 0.374085 0.575157 -0.147724 -0.805947 -1.20518 
279 1 4.27611 6.6749 5.80922 1.00706 1.18252 -1.16039 
280 1 1.60215 3.58835 5.16115 0.147747 -0.0628866 0.304712 
281 1 6.58733 4.87505 6.82017 -0.239884 0.918556 -2.09647 
282 1 6.17669 5.32683 2.65132 1.11975 0.520993 0.805365 
283 1 2.53372 2.75132 8.74779 -0.284836 -0.986282 0.564451 
284 1 1.53699 6.97996 8.90915 -0.837515 -0.165046 -0.367938 
285 1 0.196695 6.23802 5.15612 -0.965895 1.15706 -2.01568 
286 1 6.31277 5.15748 3.62013 0.12599 0.320231 -0.34759 
287 1 3.58058 8.73124 3.65298 0.242802 0.416532 -0.465828 
288 1 5.86663 7.16258 4.53194 1.22169 -0.267496 -0.150041 
289 1 1.55819 5.27167 4.89412 1.11876 0.0716833 1.38807 
290 1 8.62082 7.98557 8.46632 0.64495 -0.210041 -0.785756 
291 1 1.50612 0.0752152 3.50157 -0.529999 -0.305764 0.0213018 
292 1 3.21096 5.51862 0.972855 0.992382 -0.218408 -0.661824 
293 1 3.90917 5.42104 3.76709 -0.0800366 -0.164511 1.23165 
294 1 0.499727 4.82234 3.10411 0.887541 0.698586 -2.03864 
295 1 6.2108 7.13502 2.23908 -0.111641 -0.383805 -0.745724 
296 1 5.72334 5.02387 5.24993 1.0505 -0.249026 -0.627784 
297 1 6.87939 0.00767645 2.26616 -0.565866 0.341059 -0.629624 
298 1 8.97876 4.01346 5.20687 0.391898 -0.894843 0.93023 
299 1 8.97981 1.51164 5.84637 0.539362 0.140153 -0.308686 
300 1 4.61136 5.74874 3.09973 -0.610982 -0.146454 -0.34738 
301 1 8.69243 6.67882 0.0656662 -1.41779 -1.0996 -0.286464 
302 1 6.92943 8.44519 8.09438 0.322306 0.997241 -0.137317 
303 1 7.2051 0.164154 5.75742 -0.197709 -0.140747 0.820995 
304 1 6.35358 7.0778 7.36457 0.36454 0.0303628 0.889333 
305 1 1.64059 7.23632 5.83221 -0.962347 -1.27033 0.0564977 
306 1 1.31934 6.39859 6.10309 1.18551 0.0694101 0.889391 
307 1 3.75627 8.39519 1.55894 -0.577506 -0.200572 1.07213 
308 1 8.70098 0.886003 6.53537 -0.108545 0.281111 -0.443322 
309 1 0.815671 2.8863 8.07765 1.31307 0.50296 -0.687865 
310 1 6.6443 4.11317 6.24002 -0.836955 1.7266 2.26995 
311 1 8.54753 7.54019 3.48158 -0.560959 1.09176 0.0939998 
312 1 3.58329 6.83385 4.65386 1.28594 -0.792669 1.69027 
313 1 8.91838 7.73404 6.13629 0.962618 -2.22151 0.161393 
314 1 5.78723 0.332502 1.64377 -0.800775 -0.313548 0.358005 
315 1 6.64119 1.22357 3.47254 -0.487579 0.598175 1.29803 
316 1 4.1611 4.06476 1.89228 -1.02848 -0.962338 -0.687847 
317 1 8.68873 7.92364 5.17445 0.260909 -0.28504 -0.60531 
318 1 6.49443 8.87624 3.00219 -0.354735 -1.59758 -0.232353 
319 1 9.26624 1.46548 1.65121 1.17784 0.884048 1.00532 
320 1 6.38896 5.09136 5.92627 -0.868907 -0.0554602 0.671494 
321 1 7.77547 5.56638 1.86967 -1.00808 0.129395 0.242465 
322 1 6.05449 6.16276 8.26198 0.700367 0.756441 -0.536707 
323 1 7.33994 3.81682 0.887098 2.14209 -0.0406625 0.0744924 
324 1 6.85892 8.4618 9.11632 0.765762 0.801039 -0.145907 
325 1 0.675466 3.01955 3.87318 -1.52499 0.145649 -0.462009 
326 1 9.09144 1.45585 3.31059 -0.0840311 -0.327742 -0.588205 
327 1 2.83471 3.03907 7.25764 0.376465 0.35561 0.620208 
328 1 3.90785 0.206899 8.61269 -0.110015 0.588893 0.304964 
329 1 1.95995 4.11081 6.32847 -0.157085 1.2162 0.474794 
330 1 0.902546 4.794 2.15726 -0.0925145 -0.121891 1.11222 
331 1 2.70262 8.34144 1.44815 0.48459 -1.53062 -1.18513 
332 1 9.02523 0.481156 3.61541 -0.132823 0.0399143 0.544209 
333 1 6.57891 7.64062 4.07958 0.0870055 -0.589367 -0.997173 
334 1 2.81771 7.4887 4.41529 -0.717468 0.859744 -0.759638 
335 1 8.28056 3.6659 0.768802 -1.11976 -0.0481987 -0.714657 
336 1 6.75457 9.36715 4.87231 -1.29775 -0.631033 0.487626 
337 1 8.00779 2.86761 1.22256 0.939893 0.632009 -0.10624 
338 1 1.57688 3.92284 0.952663 1.44458 -0.0901221 0.917624 
339 1 5.37417 7.5752 8.88953 -0.863108 0.456768 -0.0229672 
340 1 0.962937 1.52521 0.731626 -0.554305 0.0803271 1.58532 
341 1 6.02712 8.30289 0.499644 0.164873 0.0260269 0.663179 
342 1 6.6492 6.60252 4.80129 0.54692 0.76274 -0.556509 
343 1 7.03207 8.6476 1.65875 0.209487 0.181506 0.327588 
344 1 4.38684 7.89823 8.93663 -0.240329 -0.0756236 0.158129 
345 1 0.506422 5.45605 1.44779 0.21857 -0.640372 -0.389307 
346 1 5.48632 5.58438 0.310435 0.443561 0.887982 -0.33538 
347 1 4.00574 4.61003 5.33963 -1.6033 0.011411 0.00826059 
348 1 8.46116 1.12448 0.0677749 -0.171632 0.183572 -0.335342 
349 1 7.09952 7.97158 5.82412 -1.10381 0.761509 -0.165722 
350 1 4.41465 7.64495 1.31253 0.114844 -1.17311 -0.498628 
351 1 8.9493 2.76903 1.08246 -0.721275 0.163305 -0.41459 
352 1 5.20514 0.105247 3.12 -0.331369 0.925004 0.00685194 
353 1 0.0496975 1.20616 0.597748 -1.60038 0.613074 -0.338373 
354 1 5.76436 2.4564 2.31927 -1.01064 -0.351672 1.09068 
355 1 5.47764 5.23571 6.24864 -0.536839 0.954415 0.248258 
356 1 4.1573 8.73153 8.42815 0.233748 -0.208708 -0.743179 
357 1 6.67149 8.95942 3.94704 1.53496 -1.35227 1.25559 
358 1 1.54648 6.11208 3.52469 -0.189338 0.599031 1.11984 
359 1 3.01112 5.50045 2.52312 -0.407977 -0.125196 0.474912 
360 1 6.43469 4.3576 8.64614 -0.718593 0.330344 0.492209 
361 1 8.23535 7.05864 4.93477 -0.359246 -0.369956 0.1983 
362 1 8.74041 0.574715 5.56244 0.0394599 0.639807 -0.165237 
363 1 8.4857 9.32262 4.21684 -0.0513564 1.01384 0.214446 
364 1 0.222713 2.06813 1.02168 0.142061 -0.140789 0.128979 
365 1 2.63604 8.30184 3.81636 -1.94269 -0.546329 1.15408 
366 1 5.16726 5.79396 6.94146 -0.27345 0.178383 -0.203378 
367 1 6.91989 4.79957 3.02178 -0.546865 0.266572 0.232541 
368 1 0.889459 7.14001 6.53157 -0.548368 0.477886 -0.0444418 
369 1 7.54311 1.59819 4.91955 -0.496062 -0.372407 -0.177837 
370 1 8.65248 4.58956 4.4822 -1.22337 -0.00644115 -0.219608 
371 1 3.34739 5.28595 5.23144 -0.607425 0.931755 0.0564043 
372 1 7.17925 7.54137 7.71388 0.267348 0.0596115 -0.899111 
373 1 9.30085 0.733779 9.18213 1.20791 -0.506108 -0.0509723 
374 1 2.26923 8.26258 4.73001 -0.553975 -0.0392103 -0.492001 
375 1 3.65371 7.29773 5.49106 0.303947 1.14975 0.417307 
376 1 0.971473 6.20219 1.02858 -0.104651 -0.0993833 0.266896 
377 1 6.1601 7.77172 8.30666 -0.92099 -0.0329792 0.376378 
378 1 8.59639 6.65915 7.34521 -0.730917 0.38933 -0.0697089 
379 1 2.16977 6.6456 1.8248 -0.522842 -0.199542 0.818996 
380 1 6.12044 8.90119 1.98549 -0.370377 -0.735962 0.498368 
381 1 4.79103 6.54159 2.5252 -0.760257 -1.02945 -0.342018 
382 1 2.44969 4.02817 1.31985 -0.159587 -0.119087 1.67449 
383 1 9.21065 3.35518 5.88418 -0.66733 -0.11771 0.541789 
384 1 0.524192 0.360078 0.469265 -0.194932 -0.430531 -0.534848 
385 1 8.59081 0.183652 2.23427 0.297197 -1.00015 0.355741 
386 1 4.85607 -0.0169586 8.31857 -0.339743 -0.259281 1.65916 
387 1 8.58598 3.6658 4.24454 -0.0851856 0.723547 0.054223 
388 1 7.38632 2.85328 0.507261 0.622375 1.0033 -0.320511 
389 1 7.43141 4.77643 6.34794 -0.192648 -0.897423 0.0624256 
390 1 7.41214 6.24894 4.35766 0.0492017 0.185199 -0.405846 
391 1 5.49931 3.33188 4.50251 1.01821 -0.00276617 0.31622 
392 1 4.28842 6.8231 1.76289 1.7084 -1.26384 1.4903 
393 1 2.7161 2.96044 2.7524 -0.42316 -0.581472 -0.238601 
394 1 8.77776 6.87208 1.02438 1.27889 -0.720659 -0.194682 
395 1 3.70918 4.48343 3.5158 0.00763723 -1.22718 -0.968617 
396 1 7.75097 0.993287 6.51395 -0.47702 0.207065 0.850689 
397 1 1.98399 2.55249 7.04317 0.275611 -0.783671 1.68129 
398 1 3.50131 4.0095 6.86196 -1.05731 -0.166593 -1.41979 
399 1 4.95977 4.86705 4.58717 -0.712256 0.245231 0.692778 
400 1 1.85855 4.60933 5.50217 -0.711603 0.954378 0.874286 
401 1 4.07601 7.6338 2.21502 1.22252 -0.85579 1.08975 
402 1 4.71749 4.94077 0.416941 0.015472 0.630413 -1.25202 
403 1 2.21454 6.82537 0.884653 -1.43647 0.762138 -0.335936 
404 1 7.91823 5.60255 8.52613 -0.104416 -0.115164 -0.230049 
405 1 5.73761 4.75618 8.13009 -1.09678 1.60979 -1.62929 
406 1 1.50025 1.21172 1.45799 0.150822 -0.547163 -0.949979 
407 1 7.23147 5.45681 3.63603 -2.11343 0.0169798 -0.617069 
408 1 7.31297 3.32373 4.83945 1.80476 -0.813268 -0.714388 
409 1 1.16565 3.16381 0.588648 -0.295909 0.369476 -0.775728 
410 1 1.72158 0.678714 8.88468 0.396962 -1.05001 0.318093 
411 1 6.68021 2.18068 3.68294 -0.144354 0.388696 -0.867349 
412 1 2.71769 6.40278 6.85912 -1.03526 -0.408528 1.09029 
413 1 9.04813 8.42039 4.43009 -0.414624 0.949871 1.37688 
414 1 3.86361 0.16741 0.153369 0.343963 -0.965943 0.435873 
415 1 4.20487 4.37113 6.27438 -0.513148 0.718475 -0.023549 
416 1 8.11484 3.06705 6.7245 -0.259577 0.453992 1.04512 
417 1 8.79638 3.57294 2.74544 0.0870346 0.656259 -0.345933 
418 1 5.72161 6.59804 2.89735 0.77288 0.235864 1.37827 
419 1 0.506169 3.75078 5.21564 0.156002 0.243411 0.72726 
420 1 6.02119 2.92565 3.79146 -0.720085 -0.573717 0.346887 
421 1 2.49202 5.0491 4.80952 -0.155287 -0.525319 -0.5625 
422 1 7.34549 6.94052 5.34745 0.30962 -0.629649 -0.738732 
423 1 4.43571 3.99196 8.20407 -0.589858 0.871403 0.438117 
424 1 4.9621 3.8209 5.97846 0.01851 -0.350896 -1.61289 
425 1 8.90738 8.36007 2.94706 0.852228 -1.50809 -0.257363 
426 1 4.5793 5.053 2.12204 -0.193966 -1.27781 0.157173 
427 1 7.92904 6.30271 0.657166 0.623697 -0.814577 0.276792 
428 1 2.75223 2.20593 0.945769 -0.521045 -0.56897 -0.714248 
429 1 8.35102 8.4755 3.76376 -0.197771 0.731785 0.703682 
430 1 6.55691 4.53309 2.20453 -0.447124 -1.13918 0.631835 
431 1 7.17608 5.5821 7.06654 -1.22202 -0.0468111 -0.652903 
432 1 8.93334 5.55082 4.57085 0.458162 -0.419157 -0.324368 
433 1 7.54589 8.91038 3.4462 -1.02215 0.795142 0.104295 
434 1 5.02423 2.27562 1.75598 0.381837 0.71389 -2.06112 
435 1 5.62981 6.98298 8.05106 -1.47018 0.239078 0.370366 
436 1 8.99416 4.5364 2.90745 0.0612212 -1.76661 -0.146658 
437 1 4.21163 4.11723 0.719571 -0.907154 -1.4684 -0.281896 
438 1 1.31637 2.28715 0.196881 -0.231099 -0.289785 -0.895635 
439 1 3.8441 5.93535 8.83339 0.176878 0.568607 0.190079 
440 1 6.20741 5.73805 6.62195 -0.95447 -0.250845 2.07567 
441 1 5.52792 8.49049 5.15259 0.0644597 -0.387615 -0.0913511 
442 1 3.31758 4.19157 5.93372 0.00371815 -0.109648 -0.0559412 
443 1 8.13825 8.48374 5.72635 -0.118493 0.109175 0.0070932 
444 1 3.43419 4.57049 2.37606 0.477358 -0.00153617 1.08592 
445 1 6.41988 6.52686 1.40578 0.241608 -0.759232 -0.209936 
446 1 0.129296 4.73016 8.08143 -0.630742 -0.0433956 0.876573 
447 1 8.95459 4.96972 5.33048 0.199771 1.52136 -0.295657 
448 1 1.85583 6.84939 4.08732 -1.68284 -0.526228 -0.191365 
449 1 4.29461 6.22748 4.92018 0.293926 0.776131 -0.399716 
450 1 9.17679 0.208745 8.3697 0.425838 -1.0075 1.30138 
451 1 5.06049 4.4808 6.67886 -0.454751 1.0231 -0.0561026 
452 1 7.56897 2.3603 6.25075 -0.32499 -0.581564 -1.43848 
453 1 1.29599 1.73407 2.54596 0.578994 -0.692024 -0.370946 
454 1 8.99295 4.32389 6.12272 0.82882 0.207792 -0.503793 
455 1 3.3245 6.8237 3.74076 -0.240015 -0.959857 -0.458313 
456 1 2.25169 0.561885 3.08329 -0.0888848 0.615846 -1.24815 
457 1 0.09572 9.21543 1.11867 -0.521096 -0.416463 -0.670656 
458 1 4.68428 6.09273 0.787484 1.02504 -0.684145 0.200253 
459 1 5.02236 7.37094 2.01572 -0.828783 0.571363 0.607173 
460 1 9.28775 7.49294 1.65391 0.733134 0.499327 0.435712 
461 1 2.48922 1.54072 1.65072 -0.6221 1.46933 0.0954016 
462 1 4.21683 5.30201 1.10758 -0.754021 -1.51336 0.836701 
463 1 1.47006 8.31211 0.248778 -0.284832 -0.460357 -1.14897 
464 1 8.08837 7.72699 4.2577 -0.641989 0.724065 -0.972602 
465 1 4.56078 9.2242 0.808051 0.414165 -0.131533 0.103797 
466 1 8.28044 5.72351 3.05615 -1.34259 -0.22725 -0.144164 
467 1 8.12582 8.72843 6.93647 -0.285146 0.258787 -0.330735 
468 1 5.36454 3.96133 8.6176 -0.849666 -0.395314 -0.771189 
469 1 4.91425 5.99958 6.04 -0.131812 1.65712 0.398809 
470 1 6.33307 5.64966 0.761402 -0.0591336 -1.05352 -0.216229 
471 1 2.22244 5.5729 3.10081 -0.700072 0.803634 -0.530571 
472 1 5.99289 0.191585 2.61699 -0.864495 1.23706 0.159701 
473 1 4.68858 5.76695 9.25624 -0.831803 0.386765 -1.05409 
474 1 6.94138 3.13672 3.94603 -0.572648 -0.901399 2.02929 
475 1 2.82772 1.09931 2.48929 1.022 1.58378 1.09422 
476 1 3.79672 3.25681 7.44902 -0.575831 0.538524 -0.507572 
477 1 4.21821 5.53066 5.59697 -1.63211 1.61184 -0.194815 
478 1 1.99282 0.412715 1.35244 0.903613 -0.092049 0.248106 
479 1 4.03321 7.97807 3.09946 1.29154 0.862798 1.1787 
480 1 4.80075 4.55583 1.33071 -0.0278119 0.248467 1.3777 
481 1 6.43257 4.86222 4.51192 0.288341 -1.35385 0.957402 
482 1 0.972252 2.9555 4.78171 0.975891 -0.726736 0.863456 
483 1 0.988506 6.5428 2.83565 0.664486 -0.212586 0.682999 
484 1 2.92055 3.13814 1.19117 -1.2912 -0.15293 0.588968 
485 1 6.4901 5.61003 5.122 -0.898295 -0.128643 -1.65146 
486 1 9.3424 3.15041 8.34527 0.262299 0.147706 1.38377 
487 1 3.31763 4.94254 4.30457 1.15729 -0.228571 -0.670857 
488 1 0.868495 2.5996 2.17304 -0.231335 0.0929755 0.92041 
489 1 9.23833 4.24302 3.7718 0.531216 0.0152957 -0.0352435 
490 1 1.86301 8.02054 2.02869 -0.0306204 -0.052457 -0.0992179 
491 1 1.24094 6.35593 1.92985 0.566589 0.973945 -0.319246 
492 1 -0.00741373 4.38506 0.181402 0.644044 -0.538265 -1.09295 
493 1 5.84472 6.31044 7.33513 -0.78377 0.241479 0.780496 
494 1 2.35253 1.09741 0.800739 -0.149018 -1.78281 -0.811375 
495 1 7.7824 8.30261 8.82976 -0.206403 -0.233274 0.236553 
496 1 5.95005 6.92132 5.46241 -0.407397 -1.0533 0.316635 
497 1 4.35759 4.10243 7.24515 0.475109 0.74289 0.385532 
498 1 1.99518 8.94555 4.1412 -0.162491 -0.11347 -0.20365 
499 1 0.402135 1.93934 0.0595788 -1.72872 0.231573 0.826369 
500 1 8.974 4.82646 7.20185 0.24892 0.657967 0.382755 
501 1 4.73893 7.36211 3.02201 0.303971 -0.468998 0.0231143 
502 1 5.74908 4.37332 6.00747 -0.931559 0.211621 -0.350645 
503 1 2.54437 8.90594 7.66101 -0.482985 -1.34152 0.817883 
504 1 4.18999 2.00431 2.18781 -1.827 -1.06181 0.19231 
505 1 8.06095 6.45784 5.74873 0.726796 -2.46612 0.425173 
506 1 1.76909 9.07392 0.74361 -1.95734 -0.848268 -0.362441 