ITEM: TIMESTEP
2726
ITEM: NUMBER OF ATOMS
1000
ITEM: BOX BOUNDS pp pp pp
0.0000000000000000e+00 9.4000000000000004e+00
0.0000000000000000e+00 9.4000000000000004e+00
0.0000000000000000e+00 9.4000000000000004e+00
ITEM: ATOMS id type x y z vx vy vz 
1 1 9.14464 1.70335 6.85897 0.813383 -0.0577103 0.519342 
2 1 3.21863 0.567843 6.36419 0.145974 -0.977933 -0.182797 
3 1 7.00079 0.307441 1.38277 0.0366111 1.07312 -0.354549 
4 1 2.2917 9.12205 3.46746 0.223448 0.548714 0.547588 
5 1 4.46884 2.12176 8.82386 0.347568 0.118194 0.708444 
6 1 4.99834 0.960987 9.30413 -0.272444 1.38807 1.28024 
7 1 4.04382 7.77448 3.22909 -0.181656 -0.48309 -0.212115 
8 1 0.574052 3.85988 1.79304 0.817019 -0.684927 0.972117 
9 1 7.09413 4.7084 9.01116 -0.732659 -0.115492 -1.1605 
10 1 7.27995 3.63463 7.42254 -1.02186 0.510047 -1.48467 
11 1 7.66787 4.94651 8.25013 -0.529066 -0.301251 0.504941 
12 1 1.55074 4.30315 3.41221 0.194357 0.876865 -0.0146114 
13 1 1.75214 2.46378 3.25316 0.797262 0.902818 -0.499103 
14 1 1.60665 8.27767 7.05949 -0.706242 -0.446265 1.08013 
15 1 2.34786 0.785547 4.88973 -0.744754 0.257272 0.650272 
16 1 7.63699 9.00398 4.97809 0.895357 0.114556 0.312544 
17 1 8.57046 4.21544 2.61044 -0.605719 -1.30519 -0.0424655 
18 1 0.289312 0.657731 8.06002 0.559083 0.00988494 0.044143 
19 1 1.21245 2.23608 8.62755 -0.322526 -0.59522 -0.80048 
20 1 0.68911 2.72558 4.32444 1.10266 -1.14282 -0.193566 
21 1 1.39362 1.42118 1.51119 0.990432 1.1969 -0.924584 
22 1 7.41784 2.07192 6.0655 0.790789 -0.168531 -1.90564 
23 1 3.18965 6.03871 7.89174 0.28401 -0.277952 -0.649632 
24 1 4.27245 0.248912 4.86782 -1.00827 -0.791086 -0.72233 
25 1 8.67589 1.74538 4.63321 -0.40182 0.658574 -0.241846 
26 1 8.76485 0.460303 0.669589 0.522542 0.0338706 0.251778 
27 1 7.54136 1.7871 6.9809 -0.570708 -0.203206 -0.891071 
28 1 5.65012 0.0697068 3.9639 -0.146221 0.219507 0.569385 
29 1 7.88853 8.98441 2.97702 -0.578109 -1.1502 0.242667 
30 1 3.25304 5.52644 5.32673 -0.368298 -1.08879 0.623652 
31 1 8.11961 5.6749 3.38566 0.16284 0.457319 0.769223 
32 1 5.53123 4.88399 8.74482 -1.10724 -0.017571 -0.225837 
33 1 0.439529 2.29983 6.09648 -0.915268 -0.0142531 0.684426 
34 1 0.0883223 1.44359 8.58189 -0.611814 0.305515 -0.26315 
35 1 7.47808 7.12987 4.62256 0.379769 0.94345 -0.608252 
36 1 2.54551 3.1072 4.01089 -0.530756 0.0793004 1.29499 
37 1 3.62596 9.25545 8.88901 -0.455982 -0.356295 -0.395238 
38 1 0.392396 2.38615 7.08728 -0.432319 0.140242 -0.719569 
39 1 4.59802 0.588833 1.60165 0.483211 0.4646 -0.465937 
40 1 9.23658 8.55565 7.3736 -2.08725 -0.86058 -0.949828 
41 1 3.45562 3.25048 8.10838 0.144047 1.185 -0.578542 
42 1 8.52434 2.96025 1.58007 0.991373 0.182302 0.324106 
43 1 7.76403 5.88482 1.42746 -1.95179 -0.184911 0.20252 
44 1 0.667816 5.67149 7.52478 -1.07834 0.992144 1.32521 
45 1 3.45815 7.62838 2.46828 0.0336878 0.456364 0.496753 
46 1 5.85804 3.4018 8.6817 2.00664 -0.611401 -0.832678 
47 1 1.4156 4.98989 7.72699 0.0914812 0.704472 -0.15908 
48 1 2.65545 3.8928 3.46481 0.937899 -0.450668 0.208647 
49 1 1.93182 4.50672 1.77515 -1.68371 0.491606 0.630988 
50 1 4.04382 8.74814 7.24689 -1.17576 0.545132 0.987194 
51 1 2.53062 0.408393 8.79173 -0.279729 -0.0416254 1.70973 
52 1 6.61443 4.31089 4.09973 -0.213128 -1.62523 -0.583933 
53 1 2.72766 4.66423 1.23894 -1.75321 -1.27624 0.836917 
54 1 2.99632 1.11534 7.93572 0.477034 1.36362 -0.0167427 
55 1 6.48722 1.7231 2.15462 1.22938 0.768329 -0.21269 
56 1 7.48362 7.49819 3.02107 -0.106564 -0.0855324 0.256552 
57 1 3.77339 6.90641 7.49156 -0.215506 -0.700404 -0.546539 
58 1 0.130108 7.56987 7.41494 -0.216133 -0.326402 0.51373 
59 1 6.00875 1.84891 8.26503 -0.19862 -0.345644 -1.04591 
60 1 4.35183 7.41275 0.179327 0.394398 0.349264 -1.43158 
61 1 2.52774 6.38165 0.598007 -0.777973 -0.342043 0.287852 
62 1 6.84709 8.52761 5.18452 0.965899 0.353667 -0.0125896 
63 1 2.57297 3.86486 8.90312 -0.584422 2.36064 0.283479 
64 1 5.51884 1.60938 2.27631 0.635052 0.869717 0.679855 
65 1 8.29481 4.88655 7.51956 -0.467107 -0.355088 0.358453 
66 1 3.04002 2.08585 5.69477 0.0789061 -0.317423 0.713798 
67 1 6.23892 3.01568 1.68057 -0.0416493 -0.338983 0.134148 
68 1 7.94162 0.410087 1.26099 -1.2804 -1.51137 -0.59425 
69 1 8.61131 3.18644 6.6761 -0.308581 0.0536997 0.146091 
70 1 5.81328 7.72557 1.06014 0.0572646 0.544324 0.0203819 
71 1 6.95769 9.16164 2.73139 -0.84952 0.98459 1.62867 
72 1 8.88277 3.62779 7.87442 0.162792 -0.710653 0.325909 
73 1 1.44834 1.64688 0.524447 0.289715 0.556838 -0.70902 
74 1 3.90805 2.20328 0.173434 -0.45753 0.211275 0.1441 
75 1 4.63826 4.73203 4.74441 0.537809 1.57376 0.411874 
76 1 8.19456 1.28687 3.39572 0.726824 0.455341 0.167671 
77 1 6.21145 5.68203 5.95516 -1.66302 0.600691 -0.760545 
78 1 4.88352 0.58497 4.19242 -1.01893 1.14592 0.163562 
79 1 7.94518 8.21262 8.27139 -1.26901 1.19945 -0.203966 
80 1 5.09676 4.43497 6.35783 0.755418 -0.819487 -0.600047 
81 1 8.44312 2.09118 2.00344 -0.853104 -0.896815 -0.264041 
82 1 8.04777 1.6385 8.09676 0.0597421 -0.302681 -0.535189 
83 1 6.98279 1.56385 8.46019 0.367088 1.25599 0.0694675 
84 1 2.82245 2.63203 0.0565878 -0.486809 -0.922425 0.746449 
85 1 2.48361 0.70562 3.50384 -0.178317 0.497748 0.593725 
86 1 6.30966 9.27999 0.632521 0.88221 0.557076 -1.05457 
87 1 8.73114 7.91847 7.83441 -1.37397 -1.72595 -0.863065 
88 1 3.27929 2.16766 4.16609 -0.0417084 -0.865187 -0.430805 
89 1 4.01737 5.98325 5.75226 0.111993 -0.667406 0.625801 
90 1 4.49408 8.3237 7.98279 -0.41284 0.137643 0.640228 
91 1 1.17513 2.27101 7.64783 -0.32786 1.54435 -0.665925 
92 1 3.33553 8.4347 3.07582 0.700606 0.315088 -0.175933 
93 1 3.25496 7.29945 6.71802 -0.613834 0.651282 -0.597065 
94 1 8.34299 0.24875 8.58415 -0.517042 0.0671605 -0.774543 
95 1 2.8915 3.93527 4.48745 0.146298 0.0805249 0.0713619 
96 1 4.18297 4.81897 0.265667 -0.26324 0.70472 0.553092 
97 1 8.31349 8.30181 1.1608 -0.137389 0.0716226 0.815195 
98 1 4.52558 1.96274 3.00886 -0.947016 -0.311871 0.527393 
99 1 7.64056 9.13293 8.17288 -0.0698399 -0.503512 -0.202189 
100 1 4.0684 5.05936 5.44204 0.221269 0.12913 -0.485444 
101 1 5.53393 5.56205 3.444 -0.966443 0.0997133 0.476663 
102 1 2.78726 8.87963 8.63132 0.179368 -0.138727 -0.0616492 
103 1 4.14876 1.12863 4.45276 -1.27167 -0.729559 0.553714 
104 1 7.10939 7.16194 7.16548 -0.0468562 0.469153 -1.33648 
105 1 1.1097 7.43204 7.20437 -0.4136 -0.182472 0.311763 
106 1 6.94859 0.289854 7.7931 -0.281847 -0.633939 2.25021 
107 1 3.00563 1.09591 5.58386 -0.928025 0.0257594 -0.00411651 
108 1 5.19991 2.5512 0.200199 -0.74961 -0.928999 0.400839 
109 1 7.03539 6.58461 2.83898 1.16661 -1.26968 -0.467877 
110 1 0.351823 2.27125 8.14485 2.10009 0.237687 1.24376 
111 1 6.4958 2.77759 5.36854 -0.458193 -1.19475 0.530545 
112 1 5.15786 9.17537 5.039 -0.839392 -0.0579742 -0.70039 
113 1 7.40764 3.67381 0.598655 -1.05695 -0.75071 -0.462272 
114 1 3.91189 3.55861 2.10704 -0.674394 0.568242 -0.22145 
115 1 2.00163 0.860933 8.08536 0.605913 -0.183904 0.666493 
116 1 3.71235 0.596528 1.12785 -0.119583 0.122446 0.806247 
117 1 4.54818 7.84693 1.01284 0.0717559 -0.551078 -0.648514 
118 1 7.5904 8.50133 5.8068 0.086574 0.306756 -0.293523 
119 1 3.66446 4.59904 7.44037 -1.19023 0.573139 -0.256124 
120 1 4.23854 5.76892 0.118885 0.0811839 0.193956 -0.111277 
121 1 1.02782 1.28399 8.32358 1.12625 -0.288334 -0.04248 
122 1 5.02128 7.03877 0.895477 -1.25423 0.0734564 1.74546 
123 1 3.04323 4.51753 6.66786 0.295055 0.269428 -0.455151 
124 1 9.27032 3.02306 8.47208 -0.23813 -1.28307 -0.0767218 
125 1 1.84071 2.45083 1.90577 0.382487 -0.469559 -0.719272 
126 1 7.14453 4.15658 8.21004 0.0494511 -0.25996 0.676197 
127 1 8.14956 5.57561 0.563047 -0.422589 0.167886 -0.935789 
128 1 4.61742 7.10906 6.95038 -0.467322 0.202212 -0.401682 
129 1 2.18297 3.32098 4.8953 -1.20001 0.216912 -1.30356 
130 1 2.73561 2.38671 3.44317 0.594946 0.151033 1.54589 
131 1 6.42582 7.98428 7.95999 -0.102935 -0.378289 -0.596258 
132 1 0.0446868 3.11042 1.69875 0.766111 -2.32948 -0.795062 
133 1 9.07927 4.57681 4.83684 0.993751 0.0850214 1.30394 
134 1 8.14645 9.11321 0.639337 -0.123303 0.338515 -1.18966 
135 1 6.7633 3.19917 8.99758 1.85426 -0.848026 0.346592 
136 1 9.02934 0.980188 2.9289 0.280273 -0.146001 0.304501 
137 1 1.87554 4.98412 0.932825 -1.34031 0.104076 0.510322 
138 1 3.67372 8.95775 0.487871 -0.278787 0.0183681 -0.964147 
139 1 8.28937 8.74587 7.57035 0.310795 0.516775 0.998374 
140 1 5.90222 2.76288 7.9485 0.0333737 -1.02537 0.59123 
141 1 4.19438 3.85831 7.74955 -0.382455 -0.133264 0.734324 
142 1 6.09257 0.590818 7.01146 -0.249554 0.651119 0.699005 
143 1 0.640409 3.09776 7.76274 -0.00183102 -1.62767 -0.882769 
144 1 1.19313 1.72455 5.86455 -0.199996 -1.7186 0.881494 
145 1 2.82178 5.58327 1.03446 -1.03738 0.326886 -0.825231 
146 1 1.1731 0.0476395 0.193689 -0.338351 1.02357 -0.0472392 
147 1 5.70642 7.89955 5.65212 0.0978186 -1.16215 -0.100965 
148 1 7.33164 6.94235 6.16099 -0.176404 0.359306 -1.40374 
149 1 7.0897 8.38431 8.56086 -0.23904 -1.05529 -0.15637 
150 1 8.31539 2.69035 4.68988 0.882016 0.576929 0.55382 
151 1 0.154228 4.75221 5.97731 -0.728358 0.401249 1.40598 
152 1 1.36078 1.35492 7.42513 0.311524 -1.07156 -0.0790378 
153 1 3.9109 8.45087 1.33438 0.421573 -0.804248 -1.31064 
154 1 5.219 7.21311 8.92088 0.647605 0.224371 0.108074 
155 1 4.90062 2.4547 3.76283 0.597524 0.0689993 1.84233 
156 1 5.94652 4.7833 5.81733 -0.0456446 -1.29138 0.548666 
157 1 2.0541 4.46527 8.32277 1.04002 -0.432313 0.618031 
158 1 9.29942 4.3002 7.34573 -0.93295 -0.898959 0.232896 
159 1 5.71365 1.21965 5.49723 0.479485 0.0457242 -0.458699 
160 1 2.39208 3.61908 7.95955 0.336647 1.2836 -1.87676 
161 1 2.07876 8.20301 8.69906 -0.338133 -0.810349 0.17904 
162 1 0.458582 1.14404 1.43422 0.740651 1.73293 1.14174 
163 1 5.88401 0.63169 0.0248389 0.478131 -0.545487 0.606913 
164 1 7.68742 4.96551 1.10328 -0.332832 0.209164 -0.599389 
165 1 8.27459 1.20993 2.39168 0.344112 0.804811 0.39177 
166 1 6.72096 5.00628 8.04912 -0.0478907 -1.76876 0.996253 
167 1 2.34625 5.36794 1.84828 -0.665759 0.836894 0.382597 
168 1 9.28206 4.21929 0.326826 -0.0953234 0.288624 -0.981737 
169 1 2.45821 6.68306 6.58624 0.690034 0.167999 -0.206599 
170 1 3.44498 8.1962 4.73336 0.39756 2.2447 0.211188 
171 1 6.30562 5.9718 3.09827 -0.287826 0.345671 0.884561 
172 1 3.24526 6.94851 8.3206 0.714405 0.971595 -0.381391 
173 1 5.96293 7.36207 3.90991 1.78593 -0.304264 0.0269427 
174 1 8.02371 7.0495 6.78786 -1.54081 0.546876 -0.37577 
175 1 9.00811 1.36849 1.0612 -0.642 1.20138 0.199401 
176 1 0.149098 3.22571 0.0729899 0.472294 -1.58725 -0.832438 
177 1 4.82201 3.55457 2.50583 -0.00992477 0.293391 1.07537 
178 1 6.39088 9.12763 3.49513 0.455264 -1.07648 -0.366123 
179 1 4.7043 1.74057 0.435473 0.0585801 0.567752 0.00673961 
180 1 5.70816 4.60927 3.33019 -0.616556 0.337215 -1.06004 
181 1 1.73815 0.491869 7.22403 0.765414 -0.708681 0.492623 
182 1 6.64343 1.63251 0.548264 -0.523701 -0.142731 -0.429272 
183 1 1.54424 5.24735 3.52595 -1.35328 0.882259 -1.51123 
184 1 5.82593 2.1114 5.13886 -0.0744416 -0.0552175 0.120077 
185 1 7.46785 5.14664 1.98848 1.58864 -0.134489 -0.450308 
186 1 0.221589 3.1057 5.07278 -0.157935 1.26215 -0.117109 
187 1 6.50666 4.23859 7.37501 0.0882308 0.521259 1.14872 
188 1 8.27588 3.46894 8.63172 0.0220104 -1.30139 0.813649 
189 1 6.88194 8.7783 4.24312 0.487585 0.482674 0.305325 
190 1 4.05897 4.73056 3.60741 -0.452203 -0.962925 -0.0585814 
191 1 3.96417 3.68257 1.15481 0.35211 -1.14253 -1.45699 
192 1 5.92027 9.16255 2.34604 -0.244215 -0.140095 0.511441 
193 1 0.599341 3.79495 0.821925 -0.686182 0.615393 0.088486 
194 1 8.21307 4.53386 1.7683 -0.852179 0.633404 1.50414 
195 1 3.84554 8.50424 5.71988 1.03825 -0.72927 -0.173276 
196 1 4.40554 7.93504 4.30822 -0.454275 0.219027 0.657947 
197 1 6.21393 3.48282 3.8779 -0.137283 0.531464 0.200095 
198 1 0.026261 3.18615 6.1166 -0.877708 -1.04761 -0.20637 
199 1 3.28378 9.22681 2.45339 0.593471 0.231314 1.31086 
200 1 7.64368 0.545507 5.35662 -0.430687 1.25281 0.221122 
201 1 5.40861 7.91482 8.21059 -1.43247 -0.423791 -1.36472 
202 1 4.6092 0.668158 7.20494 -0.196425 0.76522 0.797463 
203 1 7.23541 5.26104 6.67454 0.0485136 -0.784663 -1.05017 
204 1 4.87732 7.30609 3.37363 -0.377356 1.03818 0.96829 
205 1 7.11503 3.48257 3.62824 0.683104 -0.176 -1.38295 
206 1 7.55073 6.74634 3.70747 -1.40735 -1.02098 0.05047 
207 1 8.15691 3.78416 1.15309 0.655023 0.0474958 -0.129725 
208 1 2.50127 7.4599 9.17425 -0.0306048 0.979321 0.604041 
209 1 8.74275 7.84978 8.80774 -0.455169 -0.630684 -0.17573 
210 1 3.51024 2.17701 2.92257 -0.0601478 0.27779 -0.234987 
211 1 9.24966 6.24426 7.62785 1.1384 -0.766492 -0.418382 
212 1 5.66949 1.04538 3.82637 -1.73625 -0.330997 0.142388 
213 1 5.77756 7.55102 7.35678 0.703664 0.481051 0.778619 
214 1 2.4237 8.39678 7.8252 0.554292 -0.952725 0.842412 
215 1 7.21703 8.24001 2.38802 -1.26767 0.280332 -0.244055 
216 1 1.8277 2.4446 5.05895 -0.285819 -0.809133 -0.0949478 
217 1 9.25047 3.9177 5.51402 -0.865852 -0.665988 0.448924 
218 1 0.902132 9.18356 8.71563 -1.12812 -1.15978 1.1255 
219 1 3.70493 4.68665 4.55384 -0.889049 -0.0255024 0.976164 
220 1 7.39691 5.22091 2.94214 -0.608388 1.69494 -0.502511 
221 1 7.32442 7.64605 5.4624 -0.399115 0.0500028 -0.496718 
222 1 8.2877 5.17133 2.51153 1.17911 0.618933 0.49457 
223 1 3.98029 7.11492 1.02215 0.483214 0.151999 -0.766569 
224 1 0.681466 3.96196 9.19538 0.614761 -0.131981 0.590192 
225 1 6.0188 3.24569 6.08102 0.58465 0.126103 1.56931 
226 1 5.48994 1.90725 3.19445 1.08121 0.441023 0.499156 
227 1 2.80153 1.32847 4.22838 -1.19472 -0.47393 0.834054 
228 1 4.22961 2.09555 4.40471 0.132265 -0.635714 -0.192721 
229 1 2.78152 9.08471 6.41139 -1.31203 0.940049 -0.759668 
230 1 4.09933 0.0640051 3.95963 0.739642 -0.558629 0.531129 
231 1 4.51643 0.00181189 0.137583 0.385504 -0.428973 -0.437166 
232 1 7.4499 6.81038 8.64195 -0.213539 0.63778 -0.313409 
233 1 2.26955 9.36983 7.99561 -0.007292 -0.078126 -0.0207452 
234 1 6.80105 8.5316 0.0346769 0.911642 0.661868 0.987367 
235 1 7.16334 3.29311 5.82518 -0.294483 0.359255 0.397444 
236 1 5.47833 6.03078 2.54539 1.67895 -1.02035 1.1138 
237 1 0.68434 4.76628 2.17184 -1.08827 -1.62568 -0.851028 
238 1 8.60522 6.44588 8.33591 -0.542817 -0.856452 -1.91616 
239 1 3.44641 0.764891 3.82684 0.232874 0.581913 -1.49287 
240 1 5.81591 2.14972 1.53134 2.10927 -1.41787 -0.40316 
241 1 6.47395 0.583145 4.07394 0.793774 -1.27588 -1.17411 
242 1 7.65757 4.5874 4.18256 0.782928 -0.541472 0.151337 
243 1 6.4629 6.83097 0.559953 1.66527 -0.659586 1.06753 
244 1 0.385306 3.89273 8.24941 -0.267867 -0.832697 -0.669633 
245 1 9.01762 3.77214 3.31588 -1.02838 0.251754 -0.242179 
246 1 3.14335 3.87624 0.615625 -1.38439 0.107313 -0.239881 
247 1 1.55801 5.94851 7.88162 -1.24968 -0.217426 0.757306 
248 1 5.21639 6.50774 4.94352 -0.226152 -0.952607 -0.0513226 
249 1 2.53179 5.49504 3.67729 -0.565541 1.4387 -0.960489 
250 1 8.67855 7.01365 7.49113 -0.929534 1.06895 -0.673151 
251 1 1.77203 1.50176 6.58894 0.485066 -0.298921 0.818269 
252 1 2.88757 0.929147 0.219692 -0.237907 -0.112049 0.156112 
253 1 6.5399 3.47387 8.04241 -0.247616 0.99788 -0.235406 
254 1 4.30902 5.12941 1.68078 1.30032 0.077022 0.297847 
255 1 3.88795 1.62488 3.66569 1.29142 0.009395 -0.639306 
256 1 4.25443 2.97496 9.21427 1.39868 -0.899707 -0.364053 
257 1 5.77114 0.353783 3.06253 0.0984983 -0.155901 0.521323 
258 1 2.71644 4.9292 5.83908 0.29455 0.686236 -2.24426 
259 1 4.90845 0.0460559 3.37545 -0.570563 0.750189 0.200448 
260 1 7.65559 4.39022 2.53287 0.337803 -0.626477 1.27189 
261 1 8.10111 3.18422 7.4834 1.11796 0.00793618 -0.0103896 
262 1 2.23646 2.11574 4.20965 -1.3362 0.116075 0.400381 
263 1 4.07414 6.31922 3.38574 1.36867 -0.0988785 0.324228 
264 1 6.65238 2.54972 6.34291 0.709404 -1.41912 1.18648 
265 1 9.3498 5.41796 5.30783 0.295736 -0.563546 -0.052892 
266 1 2.08128 2.12539 5.94078 0.571631 -1.66379 -1.64343 
267 1 8.53295 5.3259 8.41988 -0.912494 0.446424 0.43654 
268 1 0.790901 8.27775 7.5798 -0.331313 -0.235316 1.67398 
269 1 7.44177 8.08333 4.57928 0.76442 0.738845 0.437095 
270 1 6.25622 6.48987 2.27319 0.507877 1.08147 0.68044 
271 1 1.16024 1.62935 3.28333 1.29604 0.894271 -0.202686 
272 1 7.26341 7.54965 8.06875 0.637206 -0.565416 -0.166235 
273 1 0.726258 4.6837 0.435275 0.0190639 -0.0467929 0.107866 
274 1 8.54488 4.15356 4.03611 1.2729 0.790703 -0.431478 
275 1 7.13253 6.19371 0.78172 -0.578066 1.1566 -0.613056 
276 1 4.62412 7.93141 8.82956 -0.700864 0.555501 -0.563349 
277 1 1.51071 3.16841 7.32863 -0.634321 -0.62573 0.726514 
278 1 7.67851 0.555945 2.90342 -0.0436125 0.0270261 0.992687 
279 1 2.96146 3.72308 6.12507 -0.248258 0.647112 0.420474 
280 1 4.74914 8.40909 1.77085 0.749865 -0.0176833 1.07186 
281 1 2.03184 1.17235 5.72513 1.68305 -0.0155369 0.263603 
282 1 2.19057 4.95503 6.98986 2.57687 -2.11008 -0.548205 
283 1 7.2806 4.26181 1.63687 -0.946988 -1.61889 -0.529932 
284 1 9.02974 0.733324 9.14505 -0.677458 0.480563 0.168338 
285 1 2.85786 2.27845 1.70032 0.736268 -0.696833 -0.0470567 
286 1 7.14535 5.86934 3.56787 0.149555 0.382647 0.721286 
287 1 3.33758 0.693284 4.77543 -1.0045 -0.93084 -0.598661 
288 1 8.35308 3.75113 5.88401 -0.180007 -0.42235 -0.878141 
289 1 5.93063 4.37534 0.784394 0.73871 -0.54288 0.898398 
290 1 4.65261 5.73712 5.06208 -0.0698592 0.296416 -0.311016 
291 1 3.75815 0.631626 2.08665 0.75976 -0.17371 0.658713 
292 1 3.19104 3.41158 5.2236 -1.17779 -0.0640863 -1.63557 
293 1 3.92812 4.54509 6.25318 1.11811 -0.551621 0.221782 
294 1 5.59273 8.27063 2.18724 0.521196 1.63892 -0.230697 
295 1 3.9486 0.846549 7.92206 0.883895 0.304474 0.792801 
296 1 5.15316 3.85369 0.635903 -0.944596 0.0720186 -1.17417 
297 1 0.476978 4.80043 7.91709 0.0732191 0.00269006 0.934169 
298 1 8.75158 2.99564 5.48151 0.012847 0.0350643 -0.96921 
299 1 5.27187 5.66556 4.35998 -0.182517 0.329019 -0.760283 
300 1 6.4934 9.08144 7.22494 1.0079 -0.551597 -0.592402 
301 1 9.17454 1.48034 2.05009 0.693396 -0.131677 0.240294 
302 1 3.12053 3.86071 1.62279 -0.162076 1.9745 -0.589764 
303 1 8.77921 3.57684 4.74447 0.247864 0.317687 -1.00734 
304 1 0.209077 4.7444 8.87027 -0.876531 1.01191 -0.601078 
305 1 1.52625 0.574142 8.85575 -1.27371 -0.335759 -0.563225 
306 1 6.37644 0.785111 0.808496 -0.632904 -0.255936 0.766341 
307 1 8.71332 9.22416 9.32277 -0.681109 -0.102726 -0.812435 
308 1 7.49779 2.75441 6.82368 -0.894353 0.260004 -0.813065 
309 1 7.41867 1.44826 9.31583 0.581465 -0.788626 0.294866 
310 1 6.7323 8.93058 1.86334 -0.137565 -0.289853 0.481741 
311 1 7.33547 7.01904 0.186496 1.02928 -0.982727 -0.914256 
312 1 0.662498 1.96286 1.87381 0.257481 0.183127 0.635761 
313 1 5.75444 7.30601 4.8689 1.00941 1.31602 -0.287098 
314 1 8.6727 2.84722 9.18985 0.216791 0.465702 -0.0195844 
315 1 5.55188 4.58055 4.94394 0.377712 0.366122 -0.699372 
316 1 1.27027 1.98525 4.16305 -1.586 0.441705 0.0296623 
317 1 9.36453 2.44894 2.37258 -0.695793 -0.64819 0.292492 
318 1 6.38059 7.08227 1.47275 -1.44022 0.43484 -0.559542 
319 1 8.13603 0.364061 3.76106 -0.469937 1.66391 -0.546134 
320 1 4.82751 1.51108 3.83342 0.37528 -1.61555 -0.316149 
321 1 4.06203 8.39115 2.46477 0.0243893 0.106982 -0.558715 
322 1 2.52091 1.3374 8.73272 1.21087 -0.155647 0.0410549 
323 1 2.09016 3.94946 2.597 1.28756 0.879113 -0.384214 
324 1 6.96003 5.62877 8.8338 0.510447 -1.09329 1.179 
325 1 8.56484 4.59351 0.844698 1.27951 0.22536 1.42356 
326 1 5.67775 1.98411 4.13607 -0.0672343 1.09945 -0.165736 
327 1 1.19841 3.29193 0.255452 -0.849616 0.210033 -0.332773 
328 1 4.80076 8.32507 5.62779 -0.576969 0.365593 0.460401 
329 1 0.837443 3.11111 6.60167 0.241379 -1.23549 0.673164 
330 1 4.04299 4.61504 8.37113 -0.0516781 -0.0716725 -0.112737 
331 1 1.57782 6.91613 7.93552 0.0776722 -0.501638 -0.949996 
332 1 5.13244 1.05357 3.0218 1.00162 0.390062 -0.368334 
333 1 3.49561 7.41762 9.13255 0.949153 -0.357953 0.601754 
334 1 6.72809 2.82183 7.38493 -0.519856 -0.110166 -0.138102 
335 1 4.77919 2.17266 2.10102 1.23384 -0.0679767 0.247685 
336 1 4.05814 9.16792 3.02324 -0.553842 0.356631 -0.600194 
337 1 0.943271 2.41082 0.16039 -0.323865 -0.381127 0.294475 
338 1 3.81071 6.63091 0.196257 -0.422767 0.544094 -0.489306 
339 1 4.41833 9.22407 1.05123 -0.471783 0.248135 -0.695515 
340 1 4.31532 0.493185 8.75933 -1.00088 1.42419 -0.344496 
341 1 5.30806 4.83137 1.55594 -0.125372 0.397284 -0.215911 
342 1 1.75253 9.29194 6.32229 -0.938039 -1.5047 -0.330839 
343 1 6.76021 2.50788 8.33273 0.605481 0.872073 0.462553 
344 1 5.11198 2.73221 2.85033 -0.0658626 0.643519 0.346709 
345 1 0.255662 0.929156 0.489065 0.392459 -0.115551 1.42315 
346 1 4.00143 0.985546 5.4185 0.689921 1.00934 1.06029 
347 1 5.69845 4.11271 9.29088 -0.765611 0.579323 -1.68968 
348 1 0.299497 5.20591 4.40077 0.526294 0.295639 -1.16287 
349 1 4.45072 8.44414 0.259144 -0.820627 0.248965 0.0203609 
350 1 1.12246 4.51141 8.53888 -0.423206 0.660451 0.377578 
351 1 5.57811 9.22149 6.91201 -0.298244 -0.277197 -0.815417 
352 1 7.27455 9.3969 3.60233 0.695213 1.08946 -1.034 
353 1 8.36593 2.17718 3.77637 0.408981 0.119402 -2.18876 
354 1 4.62215 5.22799 8.83878 0.697042 0.158234 -0.591107 
355 1 8.69469 8.74709 8.45858 -0.341296 0.62153 0.315587 
356 1 3.22739 0.650995 2.87993 0.537076 -0.271705 -1.2683 
357 1 2.56396 0.244862 5.65949 -0.789039 -0.573172 0.338671 
358 1 0.853485 4.01164 7.41617 -0.878826 -1.23559 0.128083 
359 1 7.77283 7.79539 9.11397 0.221469 2.03998 0.623305 
360 1 7.58883 6.14479 9.34331 -0.452078 -0.740223 -0.0280012 
361 1 0.787534 4.8559 5.16898 0.553301 0.152763 0.0222634 
362 1 7.45572 5.56152 7.5609 1.50895 1.08319 0.293164 
363 1 8.87097 4.90147 6.72494 0.668505 -0.365157 0.840253 
364 1 5.9461 7.37901 2.2635 -0.0223287 -1.24708 -0.668546 
365 1 6.43753 8.94203 8.18979 -0.563384 -0.563924 0.383832 
366 1 6.97447 7.54372 3.887 -0.516565 0.847481 -0.318176 
367 1 3.24099 5.52992 4.35318 -0.65386 0.535648 -0.251249 
368 1 8.4091 1.15266 5.483 1.68652 0.317154 1.44426 
369 1 3.22412 2.87929 2.37741 0.221308 0.690803 0.146702 
370 1 6.52307 8.11133 7.00159 1.82701 0.344881 -0.214205 
371 1 8.77798 0.978663 8.15108 0.208002 -0.0792879 -0.822379 
372 1 8.00176 3.7162 3.25739 -0.269732 0.368775 0.649739 
373 1 9.37893 5.75062 6.78455 -0.479175 -0.467236 0.351147 
374 1 7.64523 2.76478 4.00285 0.804977 -0.124473 -0.212533 
375 1 3.03755 1.4783 3.30433 -0.985347 -0.48903 0.95136 
376 1 7.45123 3.18799 8.27795 -0.984367 0.310555 -0.244773 
377 1 6.93267 5.22732 4.26865 -0.624645 0.891378 -1.06937 
378 1 5.65547 0.572304 4.75343 -0.417438 0.134462 0.288188 
379 1 1.20965 3.18473 4.98182 0.594576 0.0867041 -1.72822 
380 1 5.06643 3.41238 9.22396 -0.0616756 0.378469 -2.23275 
381 1 0.713475 1.52617 6.69018 0.845416 -1.42623 0.646491 
382 1 5.82356 5.47185 5.10102 -0.204633 0.324454 0.609387 
383 1 8.93371 0.0443968 7.80404 -0.0233437 0.00738727 -0.201869 
384 1 6.27912 5.93089 4.32557 0.381218 -0.0161079 0.191102 
385 1 4.58173 4.45721 1.05621 0.412026 -0.260403 -0.13027 
386 1 3.34847 3.37611 9.13873 -0.0819539 0.609134 0.402313 
387 1 6.28389 8.20167 3.67457 0.734205 0.729547 0.620309 
388 1 2.53501 2.11781 2.57432 1.50984 -1.24638 0.136513 
389 1 7.79405 3.65036 4.27565 -1.25049 -0.0954776 0.67022 
390 1 8.87614 2.39301 6.22705 0.188612 0.829921 0.114845 
391 1 7.36783 0.895474 0.709642 -1.24807 -0.464107 -0.846513 
392 1 1.97752 3.88054 4.18325 -0.0572718 0.846029 -0.254694 
393 1 4.00485 3.82411 4.84972 -1.52918 1.11074 -1.08072 
394 1 3.65821 4.56641 1.16446 0.399672 1.88124 0.01872 
395 1 6.35674 8.393 2.73929 0.568434 0.882556 -1.74671 
396 1 8.5301 5.96581 9.15757 -0.00523728 0.25358 -0.317471 
397 1 4.95179 7.43856 5.30816 -0.456257 -0.609145 1.58849 
398 1 4.37199 2.88561 1.66901 -1.48714 -0.455054 -0.647425 
399 1 0.572877 0.858338 3.21186 0.287578 0.431233 -0.741222 
400 1 1.65354 3.96676 9.09364 0.118263 1.33522 1.50442 
401 1 6.3786 4.00589 3.06416 1.07346 0.991014 -0.514489 
402 1 1.64443 2.86367 4.18354 1.64755 -0.0736035 0.388593 
403 1 5.29359 2.91566 1.88979 -0.846223 0.2304 -0.201021 
404 1 6.53031 3.85802 2.08915 0.30124 -0.189469 -0.762591 
405 1 2.92052 6.60903 9.14366 -1.0032 0.771699 0.53546 
406 1 2.09888 7.42485 7.22651 0.0869854 0.478715 -0.013458 
407 1 8.00363 1.02186 4.50966 0.764513 0.895378 -0.372081 
408 1 6.15183 1.35384 4.65965 0.0271836 -0.26319 0.36396 
409 1 2.52982 9.09473 1.75881 0.724792 -1.06157 -0.157822 
410 1 2.38323 0.18734 2.64347 -0.582154 -0.741468 -1.25139 
411 1 0.0819875 3.42074 4.09664 0.777694 -0.694282 0.413239 
412 1 1.80694 0.734856 2.06063 0.598648 -0.774084 0.349567 
413 1 8.49047 0.0541082 6.94264 0.343896 0.133502 1.22798 
414 1 6.74044 1.89899 7.57643 -0.204067 0.530106 -0.756975 
415 1 9.38296 8.55476 9.17344 0.896579 0.978548 -0.233964 
416 1 6.96403 3.15799 4.58976 0.809002 -0.449633 0.942934 
417 1 5.89917 0.264563 5.60799 0.134746 -0.292171 0.613495 
418 1 4.56893 3.074 0.723049 -0.859307 -0.407021 -0.75839 
419 1 6.82848 5.43021 1.31191 -0.800235 -1.01387 0.628276 
420 1 1.06551 3.61168 4.13592 -0.18057 0.397796 -0.733485 
421 1 1.21791 2.28312 1.14759 -0.593403 1.08672 -0.4235 
422 1 5.29026 3.23293 4.14585 -0.415657 -0.0994673 0.404098 
423 1 4.47686 5.32929 6.3147 -1.57555 -1.48723 0.549067 
424 1 7.45261 0.894822 2.03317 0.389428 -0.354896 0.644904 
425 1 2.28511 3.83807 1.15396 0.209256 0.171939 0.0693933 
426 1 7.47228 6.2437 6.86775 0.330287 0.542081 0.409276 
427 1 3.86039 8.56931 3.87356 2.11644 -0.279841 0.00320278 
428 1 2.44761 3.07901 2.8697 -0.781043 1.57012 -0.408075 
429 1 9.14203 5.2777 7.57463 0.889057 0.221614 -1.35875 
430 1 2.80946 0.614767 1.8991 -0.34843 0.63167 -0.891284 
431 1 2.17188 4.29359 6.27756 -0.225955 -0.334748 1.53125 
432 1 5.46603 8.8569 8.32529 0.619222 -1.36312 -1.05583 
433 1 3.72287 1.65499 8.36416 0.841642 0.544555 -0.781978 
434 1 3.23406 4.13078 8.27647 -1.26294 0.0607217 0.762183 
435 1 0.71839 6.63907 7.56531 0.310958 -0.235763 0.705694 
436 1 8.50849 0.247293 2.4836 1.08861 -0.0171365 -0.666473 
437 1 6.54466 5.07468 3.39524 0.335794 0.449681 -0.349894 
438 1 1.8981 5.39619 8.6956 1.0245 -0.068549 -1.23061 
439 1 5.96213 8.40873 0.424981 0.0907842 0.774503 0.902194 
440 1 2.18423 2.22813 8.86415 -1.18099 -0.497234 0.140447 
441 1 4.58629 4.24086 5.56715 0.334313 0.0961314 0.254063 
442 1 7.72172 5.92405 5.20932 -0.885313 0.797332 0.318151 
443 1 3.33342 5.24542 1.77479 -0.387472 0.281136 0.485639 
444 1 8.32751 2.8015 3.04053 -1.27287 0.788559 -0.0901647 
445 1 1.64228 1.47983 9.02698 -0.19921 -1.3629 1.67875 
446 1 4.88316 8.89123 4.16294 1.26612 -0.273808 -1.46736 
447 1 2.37359 5.41915 0.182686 0.386623 0.883835 0.0718771 
448 1 9.25572 2.22797 1.4404 1.04073 -1.08908 0.932929 
449 1 5.24087 0.141916 8.91126 0.666274 1.42508 0.329937 
450 1 1.91472 1.78415 8.07301 -0.762524 -0.407929 -1.01309 
451 1 4.56359 3.3048 3.4253 -0.988641 -0.631221 0.772709 
452 1 4.64831 9.2829 6.67708 0.4703 -0.516815 -0.379089 
453 1 0.9597 2.90304 1.80667 1.20395 0.648476 -0.039099 
454 1 8.3758 2.63645 8.18839 -0.783631 0.498906 0.919815 
455 1 1.28345 2.73338 5.82863 0.577277 -0.378799 0.61372 
456 1 4.80731 4.40566 3.06316 0.0891539 0.265226 -1.08897 
457 1 2.79498 2.59205 4.86328 1.08879 0.345728 0.538632 
458 1 4.98255 2.33784 1.14072 -1.61201 0.778096 -0.959088 
459 1 8.69043 5.07363 4.06057 -0.650663 -0.824297 -0.322257 
460 1 6.89069 4.97825 5.82489 -0.00061243 1.61339 0.183147 
461 1 7.99096 2.84228 6.01718 -0.154708 -0.614235 -2.10693 
462 1 3.19309 1.47908 2.16254 0.410396 -0.26013 1.8078 
463 1 6.87855 2.60717 2.25376 -0.356063 -0.063342 0.797822 
464 1 6.9171 0.299161 6.59531 -0.40632 -0.836877 -0.382956 
465 1 5.92122 8.68579 1.38818 1.2796 0.225967 0.827647 
466 1 8.38776 3.77684 0.172091 -0.985828 -0.903216 -1.54505 
467 1 5.57276 4.13758 4.13062 1.36864 -0.463203 0.556592 
468 1 0.408141 1.50178 7.59458 -0.813998 -0.368593 0.380808 
469 1 6.73184 5.64397 2.30998 0.546461 -0.552512 -0.762247 
470 1 4.26435 6.96191 8.72968 -0.920077 -0.519646 -0.250084 
471 1 0.954125 2.36687 2.67333 -0.0929009 1.33732 -1.68014 
472 1 4.58478 0.411974 2.56403 -0.400439 -0.40852 -1.23023 
473 1 8.75738 0.699471 1.67167 -0.909845 -0.362649 0.43082 
474 1 8.24249 2.96018 0.649174 -0.319194 0.715712 0.571712 
475 1 8.0719 8.51885 2.08681 0.17457 0.800299 -0.233146 
476 1 5.01572 1.43237 1.37228 -0.94877 0.63806 -0.617254 
477 1 4.21947 3.84563 0.25032 -0.559564 0.0754155 -0.740989 
478 1 2.78081 0.33938 0.97484 -0.737008 0.58238 -0.69839 
479 1 7.76248 4.51372 0.287354 0.121696 1.81488 0.469983 
480 1 4.62904 6.72804 5.82369 -0.52584 -0.00290097 -0.473647 
481 1 5.54622 3.08737 1.0088 0.551498 1.01399 -1.04753 
482 1 3.91587 3.66091 5.84583 0.618476 1.06952 -0.0852045 
483 1 6.09545 9.1292 9.10381 -0.443509 -0.820527 0.855724 
484 1 6.50957 1.53024 3.78478 0.596486 -1.29118 -1.37361 
485 1 2.22543 3.43016 0.276103 -0.404842 -0.803199 -0.559216 
486 1 0.859513 5.36825 6.20921 0.579578 0.875374 1.10197 
487 1 6.84487 0.686099 9.37116 -0.781977 0.236967 0.889695 
488 1 5.95761 3.42396 7.21619 -0.463632 -1.0429 -0.255112 
489 1 0.802351 6.21882 6.67343 0.380409 0.0116985 -0.206998 
490 1 4.18405 7.6337 1.86295 0.0928686 -0.301397 1.32734 
491 1 6.47713 8.0056 1.77233 -0.569612 0.722679 -1.32255 
492 1 4.04189 5.53905 8.08069 -0.166802 0.590707 -0.650483 
493 1 6.44324 6.58869 6.13314 1.21944 -0.716409 0.148281 
494 1 6.06693 0.216575 1.51647 0.347804 -0.267823 -0.893562 
495 1 4.9202 4.53929 8.00298 0.301396 -0.546406 0.171035 
496 1 0.995897 0.392068 1.66951 1.17667 0.592259 0.661525 
497 1 4.18149 0.625428 6.29748 0.38497 -0.218554 -1.4588 
498 1 0.582437 4.07884 6.50904 0.00800558 -0.859313 -0.243982 
499 1 6.09901 7.44162 6.43561 -1.19058 -0.975416 0.922321 
500 1 0.486825 3.99977 4.79676 0.376026 -0.674815 -0.670276 
501 1 7.96079 4.58615 6.5384 -0.726901 -0.175471 -0.787473 
502 1 7.86427 8.81261 9.08287 -0.73601 -0.175481 0.94059 
503 1 8.06188 1.33625 1.44039 0.548004 0.635116 0.728972 
504 1 6.9179 2.25878 9.28143 0.271195 -0.166859 0.273019 
505 1 5.44281 5.32575 6.46474 0.404742 -0.195207 0.0285701 
506 1 5.40483 9.29075 0.419902 -0.533065 -0.151888 -0.210528 