ITEM: TIMESTEP
1066
ITEM: NUMBER OF ATOMS
1000
ITEM: BOX BOUNDS pp pp pp
0.0000000000000000e+00 9.4000000000000004e+00
0.0000000000000000e+00 9.4000000000000004e+00
0.0000000000000000e+00 9.4000000000000004e+00
ITEM: ATOMS id type x y z vx vy vz 
1 1 4.59023 6.17726 9.11498 -0.396026 0.85682 0.730381 
2 1 2.5508 2.95303 5.00089 -0.680187 -1.96141 -0.757966 
3 1 2.94956 8.17854 9.18977 0.758886 -0.0233878 -0.356931 
4 1 6.68112 6.23595 2.17187 -0.712864 -0.359864 -0.417384 
5 1 4.31506 7.09411 2.62242 0.244483 0.0112542 2.19141 
6 1 3.57256 1.08003 5.38962 0.407812 -0.179638 0.854059 
7 1 8.81581 2.30004 1.15266 -0.318635 -0.114291 -2.68145 
8 1 9.30753 6.35229 1.6814 -0.267876 -0.155342 -1.44929 
9 1 3.85251 8.84509 2.98613 0.0446431 1.31708 0.686464 
10 1 3.07984 5.20187 1.2131 -0.549934 0.010314 0.232108 
11 1 0.229324 3.4947 4.30783 -1.51477 -0.680525 1.41587 
12 1 8.97568 3.4123 5.87698 0.844788 0.637347 1.19932 
13 1 0.68507 5.6786 3.2533 -0.0823089 -0.0656792 0.27238 
14 1 6.3886 8.6156 4.93859 -0.843395 0.658657 0.63972 
15 1 4.21044 0.948957 3.69455 -0.480009 -1.55455 -1.20605 
16 1 0.384445 2.64194 2.05499 -0.489739 0.0677967 -1.32687 
17 1 8.57081 1.34205 4.05321 0.611717 -0.506842 -0.4814 
18 1 5.43514 1.71315 6.87441 -0.702124 1.20159 0.143396 
19 1 3.50903 3.78114 0.237237 -1.02485 -1.16179 -0.113562 
20 1 3.69272 7.01099 1.04169 -0.35069 0.780748 0.41421 
21 1 7.79771 1.62291 4.56549 -1.31333 -0.151145 0.243237 
22 1 8.89288 9.15955 2.97073 -0.389727 -0.880654 0.0946017 
23 1 3.58706 7.22057 9.37264 0.845712 -0.598736 -0.450876 
24 1 4.7965 4.50033 8.24829 1.4923 -0.675976 1.29268 
25 1 1.90371 5.25576 7.88191 -0.294677 0.346207 0.268549 
26 1 1.66944 3.17893 2.8139 -0.173355 0.981516 -1.2552 
27 1 0.949915 8.74921 1.16817 -0.858115 -1.05477 0.473419 
28 1 2.05678 0.159976 4.87939 1.10969 0.242334 1.41415 
29 1 1.90686 0.33446 9.01438 -0.783611 0.929278 0.0580705 
30 1 7.61754 7.22862 2.52926 -0.0200745 -1.08224 1.37874 
31 1 0.110389 6.27243 0.710543 0.437132 0.631514 -0.461877 
32 1 9.35192 6.63059 2.94792 -0.500189 -0.13877 0.074506 
33 1 4.90356 8.91611 8.20621 1.03833 0.522169 -0.332627 
34 1 7.16451 5.94024 3.9004 -0.7849 -1.51948 -0.141893 
35 1 7.14992 2.95618 5.44747 -0.0382785 -0.974667 0.205353 
36 1 7.96447 4.6513 5.05703 -0.0416734 -1.13323 0.533033 
37 1 1.72019 3.39789 0.866787 -0.350528 -0.191942 -0.301606 
38 1 3.11623 8.73492 3.63833 -1.01345 0.492528 1.07316 
39 1 0.775955 1.76585 3.24924 0.488032 -0.197898 0.870115 
40 1 1.24802 4.82572 0.0283233 0.838069 0.417318 -0.82579 
41 1 1.75702 3.93478 7.76851 0.457033 0.527248 -0.703965 
42 1 4.74488 0.127284 3.48326 -0.365246 0.592485 0.999822 
43 1 3.61999 4.49606 0.866029 -0.51906 0.909674 -0.0608105 
44 1 7.39627 4.14638 5.63629 -0.568638 -0.455709 -1.19098 
45 1 3.3811 0.560289 8.46217 -0.408166 0.0162082 -0.117901 
46 1 5.13794 4.42769 3.13371 -0.287861 1.84867 -0.288838 
47 1 2.93479 6.68159 0.524409 0.534742 1.74221 -0.218423 
48 1 4.17259 4.11707 8.957 0.964767 0.66822 0.737986 
49 1 0.147187 0.113318 3.592 1.02043 -0.373861 -0.0793454 
50 1 0.99031 5.64594 7.83035 0.0299798 -0.143228 -0.767723 
51 1 1.87416 4.35203 0.74324 -0.775694 0.600391 0.1794 
52 1 1.47326 3.69403 8.64346 0.832966 -0.724662 -0.119707 
53 1 7.04312 0.298505 4.69046 -1.30601 -0.182911 -0.585977 
54 1 5.21009 5.93895 2.62807 0.788667 0.788988 0.296354 
55 1 2.49975 1.97414 5.3338 -0.698643 1.10751 -1.65088 
56 1 3.28958 2.12164 7.67181 1.53488 -0.167713 0.371908 
57 1 2.80615 4.66514 0.347719 1.19697 -0.011749 -0.557979 
58 1 7.97502 6.26048 4.25089 0.507252 -0.260652 -0.631796 
59 1 1.18451 4.70033 7.50819 -0.428701 0.431148 0.684274 
60 1 0.832695 2.65403 2.89656 0.418885 0.313302 1.34508 
61 1 0.229152 8.5378 6.58455 0.166573 0.508205 -0.543485 
62 1 0.826936 3.1682 9.1307 0.209085 1.04374 1.30516 
63 1 6.3474 1.37444 8.25492 -0.150468 -0.347027 -0.0473823 
64 1 2.20396 2.59416 4.06271 -0.0793973 0.228127 1.57681 
65 1 8.76466 0.284393 9.04165 -0.380669 0.554492 -1.5019 
66 1 3.09824 3.10655 2.06521 -0.663679 0.162729 0.233205 
67 1 2.14437 2.66104 6.71147 -0.332052 0.156127 0.894266 
68 1 2.69027 4.46781 2.8654 0.254405 1.7848 -0.0139604 
69 1 7.00357 3.48859 6.23577 -0.871764 0.813672 0.562897 
70 1 0.102203 1.67231 9.18793 0.128677 -0.366379 0.241056 
71 1 0.580399 8.71501 8.83922 0.647813 2.15004 -0.08355 
72 1 3.6483 1.67857 4.0043 0.35593 0.454876 -0.22959 
73 1 7.35749 8.81305 4.44958 0.822544 -0.258941 -0.415546 
74 1 2.04026 5.1073 2.3887 -1.08427 -0.186441 0.0575329 
75 1 4.60887 6.73656 3.4777 0.492216 0.130069 -0.234692 
76 1 0.677121 5.53601 0.425253 1.29683 -0.39272 -0.303809 
77 1 0.976388 0.229548 8.70282 0.506145 -0.244926 1.5965 
78 1 4.58834 5.57729 1.95604 0.565831 -0.561135 0.689248 
79 1 6.53471 2.2309 5.64702 -1.15608 -0.0380021 -0.512251 
80 1 2.04976 5.22778 0.451723 -0.257011 -0.96417 -0.499099 
81 1 2.40028 8.38755 1.89807 -1.06149 -0.488505 -0.576636 
82 1 5.91442 4.68989 3.91787 0.615225 0.169774 0.512416 
83 1 5.85963 5.5048 0.812504 1.02344 -0.294688 -0.368931 
84 1 0.0167584 1.57002 2.70403 0.253175 -0.197024 1.22663 
85 1 2.9802 2.2445 4.54992 0.299766 0.0722361 0.716329 
86 1 1.44724 6.92759 2.27166 0.480077 -1.21413 -0.585071 
87 1 1.47512 8.89216 9.13704 -1.34018 -1.2904 0.202231 
88 1 2.8469 6.72786 1.49167 -0.318743 -0.859734 -2.15595 
89 1 4.89823 1.15674 7.53023 0.552836 -0.987853 -0.290538 
90 1 8.19987 3.45486 6.64678 0.594162 -0.884522 -0.831667 
91 1 0.275378 4.96502 9.15212 -0.853884 -0.808129 0.525912 
92 1 8.4557 6.30107 0.276599 0.0553966 -0.792376 0.467673 
93 1 1.75075 7.60909 8.86196 -0.364595 -2.75625 0.30052 
94 1 6.03413 4.97562 5.60262 0.196037 0.964327 -1.17736 
95 1 0.317712 4.34753 7.2804 1.17165 -0.983273 0.272023 
96 1 4.46183 1.64088 6.80929 0.339166 -0.731326 -1.02512 
97 1 8.19352 5.53876 2.7146 0.613891 0.0398599 0.446949 
98 1 0.0286263 2.58279 4.52013 0.420327 -0.145603 -0.34869 
99 1 7.54872 1.89899 6.51407 0.513562 0.30688 -1.04723 
100 1 1.24267 8.649 6.55066 -1.20954 0.215788 -1.28515 
101 1 0.744755 7.59001 4.60091 1.61534 0.328412 0.204923 
102 1 0.842264 7.84357 0.914477 1.30702 -0.150915 1.54166 
103 1 8.44736 1.89067 5.20666 -0.813754 0.246303 -0.542807 
104 1 0.0725717 6.96364 5.25359 0.638664 0.4288 0.65844 
105 1 5.10253 4.3279 9.15566 -0.0439107 -0.0790785 0.448617 
106 1 1.92186 1.7982 1.96344 -0.18955 -1.79531 0.595226 
107 1 1.11881 7.75025 1.85304 -0.0907328 0.252934 0.575828 
108 1 6.98866 4.47584 9.3163 -1.31788 0.7107 1.52408 
109 1 5.24208 3.03782 4.79983 0.739037 -0.132189 -0.721301 
110 1 3.97104 0.868368 7.67667 -0.654761 1.24611 -1.01147 
111 1 3.5509 1.43503 6.99865 1.34978 -1.07212 -0.813945 
112 1 8.55467 3.97869 2.53026 0.364832 -0.129075 -0.0500924 
113 1 8.30005 1.88386 1.88365 0.433315 0.970565 -1.56488 
114 1 4.0184 4.46625 6.80196 1.03942 0.717874 0.0281191 
115 1 7.15629 5.39042 2.16136 -0.446802 0.334668 -0.130888 
116 1 9.08501 8.5073 2.26751 0.180384 1.07196 0.0550778 
117 1 1.95489 5.25082 8.87896 0.372914 -0.381079 -0.288248 
118 1 1.84907 1.3964 3.62589 -0.308149 -0.923511 -0.210895 
119 1 1.77924 1.94577 0.226496 -0.0525629 0.656884 0.420122 
120 1 7.29723 4.07681 0.776003 -0.615342 -1.14261 0.406843 
121 1 5.22829 5.23202 0.116173 0.950559 0.664005 -0.179659 
122 1 6.3185 3.6234 4.247 0.0731435 0.255586 0.490168 
123 1 7.89686 3.39997 2.22948 -0.826731 -0.503707 -1.91273 
124 1 8.22856 4.71022 8.03959 -0.95703 1.35913 0.840409 
125 1 0.287085 0.958799 1.98155 0.731524 0.756169 -0.487639 
126 1 1.04923 8.07684 9.37139 0.476423 -0.774364 0.518603 
127 1 3.33432 0.475888 7.08554 -0.105511 0.229397 -0.152022 
128 1 6.20037 0.818892 4.49437 -0.0476624 1.05045 -0.043457 
129 1 8.00374 5.60581 1.77119 -1.60589 0.222916 1.17136 
130 1 1.70817 9.19698 8.22427 0.0992224 -0.187784 1.22638 
131 1 4.63643 0.585821 9.26001 -0.284191 0.934341 0.420066 
132 1 0.783067 4.64677 5.54349 0.261808 -0.312781 -0.0868905 
133 1 2.08958 3.66358 6.85266 -0.29966 0.195438 0.734445 
134 1 3.36551 7.37376 4.81591 0.904289 -0.227973 1.2261 
135 1 7.88767 0.677979 4.25498 -0.37318 -0.663126 0.894652 
136 1 3.95753 2.50649 7.11713 0.590413 -0.568419 0.168802 
137 1 2.90565 5.15984 8.91576 0.0039102 -0.136765 -0.746617 
138 1 8.55258 9.16804 5.57405 -0.908652 0.176336 0.175236 
139 1 8.81118 5.57202 7.14498 2.07538 0.325395 0.0322929 
140 1 2.58381 2.59454 3.18062 1.12892 0.465589 1.3947 
141 1 7.59106 2.1075 5.59851 0.332723 0.175603 1.89652 
142 1 7.61876 2.38267 4.01673 1.20449 -0.87484 -0.114443 
143 1 5.81151 3.70258 5.16731 0.0276253 0.293549 -0.0840713 
144 1 6.31118 9.28133 4.2299 -0.389268 0.929891 -0.103573 
145 1 5.50389 5.85689 1.68207 -0.766622 0.395389 0.927986 
146 1 6.57618 8.38694 4.02687 -0.0213699 0.049055 -0.143524 
147 1 8.83789 4.84674 2.66356 -0.170634 0.652838 -0.215284 
148 1 3.93057 5.65751 4.92185 0.0380095 -0.053971 0.679463 
149 1 8.87605 6.31708 8.76933 -0.268792 0.529046 -0.500307 
150 1 8.08257 0.589347 8.40335 -0.141665 -0.462083 -0.23487 
151 1 2.69117 4.33137 1.22094 -0.139578 -0.283316 -0.778636 
152 1 6.43065 9.39348 6.1628 -0.497567 -0.649341 1.17856 
153 1 5.64481 0.569372 5.93868 -0.971157 -0.582672 -0.343753 
154 1 9.31911 7.65625 2.65136 -1.29323 0.37024 -0.645284 
155 1 8.5341 1.44817 7.09364 0.479214 1.028 -0.0180864 
156 1 0.160664 5.27858 5.90462 0.0968149 -0.454755 -0.416585 
157 1 1.05082 0.903649 3.54781 -0.834027 0.347546 -0.579612 
158 1 6.54593 4.77494 0.7283 -0.147389 -0.35594 -0.212202 
159 1 2.49744 5.19859 5.93906 1.23645 -0.60311 0.171723 
160 1 0.252392 4.82178 3.15112 -2.71829 0.226858 1.64973 
161 1 0.307799 8.13626 8.13691 1.69521 -0.435802 0.26519 
162 1 8.72902 3.1287 7.34668 0.978929 -0.236265 0.724825 
163 1 4.03161 5.29558 1.21393 -0.673435 0.00708107 0.682521 
164 1 1.46518 6.96032 6.42014 -0.82317 1.67139 1.14718 
165 1 5.69178 4.88394 1.55423 -1.02918 0.044892 0.168684 
166 1 9.09538 3.14794 0.81945 -0.878422 -0.583165 -0.508334 
167 1 9.23787 1.64967 4.68265 -0.619113 1.07116 -0.0771345 
168 1 5.94207 4.19762 8.26658 1.07625 0.241969 -0.0339016 
169 1 9.28652 2.3118 5.38878 -0.189812 0.207826 -1.08906 
170 1 8.64093 6.30366 2.40937 -0.995261 -1.33375 1.10279 
171 1 5.47977 0.76324 6.8766 -0.288534 -1.5194 0.110569 
172 1 7.45655 0.041207 7.95831 0.0732028 0.890685 0.716559 
173 1 0.943816 4.13461 3.0603 -0.535462 0.31274 -0.272029 
174 1 1.47863 2.15104 7.94961 -1.47835 0.171682 -0.171669 
175 1 2.11812 0.369968 0.553462 1.10988 -0.662641 -0.386044 
176 1 0.0207008 7.85842 7.22639 1.43302 -0.00541183 0.751063 
177 1 2.90125 3.07662 9.25959 0.420424 0.0480689 -0.16188 
178 1 3.63304 5.55571 2.07949 0.599713 -0.784421 0.63177 
179 1 8.82589 2.63124 2.1045 -0.187894 0.676592 0.946877 
180 1 2.74487 1.93306 6.90807 -0.167962 0.128058 -0.0297252 
181 1 6.88375 1.79421 3.99629 0.555085 0.605912 0.718198 
182 1 1.93184 4.82099 3.37104 -0.935345 0.490442 0.322869 
183 1 5.57452 4.54969 0.662692 -0.634365 -0.374513 -0.0547351 
184 1 5.36958 0.104263 1.97857 1.58716 -0.138934 1.74512 
185 1 7.88227 7.65174 3.37923 0.881328 0.808371 0.288901 
186 1 0.620138 7.22698 0.200297 -0.621163 0.241684 0.6356 
187 1 4.95051 7.5449 2.10642 0.70885 -0.276668 0.396784 
188 1 3.94396 3.3511 3.80655 0.412185 0.482925 1.54413 
189 1 9.23458 5.04977 0.753904 0.370173 1.19457 -0.992812 
190 1 8.56552 0.0724438 4.55379 -1.16015 1.85533 -1.35907 
191 1 7.61098 9.16166 2.90348 -0.718166 -0.122825 -1.42936 
192 1 8.76306 5.12024 8.77633 -0.181038 0.532949 0.0343753 
193 1 9.3973 4.27254 5.9051 0.319578 -0.227384 -0.432323 
194 1 2.91846 2.40979 6.08396 0.803141 0.316999 -0.428783 
195 1 0.956602 4.73015 4.62029 0.318127 0.377977 -0.446623 
196 1 0.45658 6.03331 2.39082 0.445574 0.209929 -0.260692 
197 1 4.84701 3.78203 6.45194 0.360408 1.25768 -0.264353 
198 1 9.32832 1.81657 1.76619 1.3737 -0.698208 -1.03478 
199 1 7.38935 6.91572 3.83563 0.203075 0.375458 0.417536 
200 1 4.62918 2.85339 6.51338 0.279114 -0.528507 0.782235 
201 1 2.94684 3.77251 5.44502 -0.740187 -0.975209 -0.351732 
202 1 1.5608 0.768945 8.16825 -1.0054 -0.128803 -1.12178 
203 1 1.00353 4.38474 2.09967 -0.65122 -1.26913 1.37795 
204 1 4.50044 6.81369 0.457777 -1.38055 -1.40377 0.632229 
205 1 2.54346 7.59145 4.05077 0.710401 0.831961 -0.279304 
206 1 7.85931 0.292282 5.17102 0.464698 -0.760272 0.369352 
207 1 3.54331 3.91167 6.16486 -0.380348 -0.770236 -0.641384 
208 1 1.17667 5.03007 2.77078 0.332056 -1.05874 0.846859 
209 1 3.13746 6.45924 8.9705 -0.339394 -0.0459362 0.160682 
210 1 7.0746 3.03402 2.521 0.26714 0.0872775 -0.750202 
211 1 5.82855 6.74006 2.04928 0.623673 0.76704 0.42412 
212 1 2.3612 8.21443 3.34696 -0.957051 -0.41829 0.0465303 
213 1 4.07686 8.05869 4.76405 1.31509 0.34401 -0.589124 
214 1 7.61151 5.33792 4.50557 -0.543141 1.42564 -0.926557 
215 1 2.19083 8.60449 6.65013 -1.13198 0.587742 0.199355 
216 1 8.20716 9.03233 0.0913743 -0.543687 -0.831666 -0.28822 
217 1 0.799653 1.78129 2.21032 -0.282809 0.34151 1.07565 
218 1 6.75998 3.28543 3.42904 -0.477428 -1.39224 -0.307144 
219 1 3.11286 3.77728 7.01886 -0.0378128 0.262894 -0.759462 
220 1 7.60344 4.21611 6.56433 0.270445 0.472114 -0.320913 
221 1 3.51567 3.19772 7.70126 0.225737 -1.08634 0.449081 
222 1 2.31526 2.38152 8.99182 -0.537946 -1.53245 -0.149834 
223 1 4.14704 7.72172 0.573919 0.764051 -0.273638 0.486637 
224 1 8.83654 7.82608 3.53864 0.903536 -0.446669 -0.466859 
225 1 2.21661 0.951663 2.31821 -0.229415 0.0129463 0.554416 
226 1 5.57329 5.01731 8.63163 -0.102022 0.529684 0.953442 
227 1 3.01749 7.66293 1.59643 0.797409 0.600606 0.517199 
228 1 5.47385 9.0244 8.9786 0.396926 0.344693 -0.596165 
229 1 5.52696 1.76452 7.88201 0.0822258 -0.117372 -0.0184602 
230 1 5.54686 9.25558 6.56871 -0.879746 0.391022 0.81433 
231 1 1.47959 8.0255 5.15564 -0.0554715 0.894214 -0.0942942 
232 1 4.24782 7.61884 3.41214 -0.601488 0.0223091 -0.571884 
233 1 7.16996 5.39441 9.14581 1.00792 0.161239 0.315179 
234 1 2.06744 7.86094 7.95477 0.329678 0.556395 0.385276 
235 1 9.16497 1.32588 5.57851 0.971527 -0.394965 -0.383381 
236 1 9.32518 2.72867 7.95519 -0.116815 0.628881 -0.424999 
237 1 2.06832 6.76481 3.98175 -1.21964 -0.0856173 0.476094 
238 1 9.18095 0.591187 1.24926 -0.558903 -0.222993 0.927435 
239 1 7.56983 9.32497 1.43132 0.586982 -0.912149 1.024 
240 1 2.55201 5.87272 8.38755 0.515069 0.153197 -0.626841 
241 1 5.48351 9.06884 5.62447 0.529047 -0.695202 -0.740349 
242 1 2.5222 7.35282 9.40307 1.04231 -0.0280898 -1.02784 
243 1 8.27782 8.49264 3.13745 -1.02452 -1.46133 1.1248 
244 1 2.11 1.42063 7.68527 1.0729 0.605911 -0.346909 
245 1 5.08681 7.57188 0.530584 0.429274 -0.28183 0.0374873 
246 1 6.42676 5.45436 3.41955 -0.793237 -0.00776669 -0.625977 
247 1 2.90198 0.468753 9.30603 0.346378 0.435462 -0.0564031 
248 1 6.7832 3.71648 5.06605 -1.2039 -0.116538 -0.850488 
249 1 6.63876 7.18253 2.40147 -0.484263 0.635739 -0.580001 
250 1 4.49211 5.23458 2.93707 -0.330123 -1.19306 -1.88235 
251 1 2.70347 1.8198 8.34456 -0.195517 -0.493403 -0.221396 
252 1 1.51612 8.69415 1.91363 0.245353 0.518324 0.627556 
253 1 2.03752 8.16642 0.190191 1.14813 1.45176 -0.368923 
254 1 3.94474 8.39327 3.88288 0.18354 -0.494971 -0.178063 
255 1 6.04502 6.33011 0.39267 -0.609998 -0.281174 0.417996 
256 1 3.43035 4.74219 5.66597 -1.06473 -0.667824 -0.555418 
257 1 2.44739 5.94308 9.363 0.560003 -0.9355 0.952479 
258 1 2.94807 5.10045 7.91378 -0.256143 -0.282337 -1.3883 
259 1 5.29015 1.42376 5.35599 0.724566 0.161627 1.60244 
260 1 2.98525 0.0453714 0.771082 0.70953 0.904069 -0.825748 
261 1 8.02206 4.51324 4.10966 0.989562 -0.239987 -0.947199 
262 1 0.347931 8.61475 0.408942 -0.116178 -0.217054 -0.025298 
263 1 1.57191 3.01794 7.39633 1.417 -0.0104878 -0.443609 
264 1 9.1193 0.0292607 2.01504 -0.591309 -0.855897 -0.482881 
265 1 9.20988 2.15797 7.19637 0.948505 -0.589797 -0.0866332 
266 1 3.06688 4.22886 8.93608 1.19529 -0.25674 -0.701497 
267 1 7.29557 4.81264 1.43078 0.251093 -1.41782 1.77002 
268 1 4.20755 3.60613 2.91203 0.108869 0.450704 -0.0766518 
269 1 1.05106 9.37837 3.29551 -1.08703 -1.02476 -0.777514 
270 1 3.2178 5.55534 0.360846 0.503787 -0.0388098 -1.00455 
271 1 5.32673 3.19119 7.17435 0.978522 0.0587495 -0.981816 
272 1 7.0462 1.57026 1.02683 -0.75251 -0.29936 -0.929953 
273 1 2.10471 0.835966 1.39952 -1.75129 -0.772401 -0.355546 
274 1 2.74895 7.09908 3.25404 -0.124578 0.339694 -0.213439 
275 1 3.61901 4.82624 2.74556 0.129154 -0.534783 1.64004 
276 1 5.17636 0.377222 8.50392 0.684634 0.601409 -1.41995 
277 1 4.25653 0.224909 8.31567 0.857182 1.28978 -0.0754242 
278 1 3.93869 0.977841 6.23746 -0.59442 -1.20205 -0.93731 
279 1 0.67544 9.21318 6.06419 0.0775388 0.0994728 -0.613765 
280 1 1.72077 2.47194 4.90387 0.156104 -0.928206 0.243827 
281 1 5.05395 6.76745 8.50184 0.0491642 1.96454 -0.787814 
282 1 1.19287 0.248186 0.255135 0.849992 -0.177204 -0.102133 
283 1 7.03291 4.73073 2.82154 0.903537 -0.0867008 0.589561 
284 1 3.37336 3.95972 3.29603 -0.0318644 1.39383 -1.09926 
285 1 5.40293 3.95231 4.32563 -0.10238 0.75141 0.674842 
286 1 3.77078 4.61686 1.79944 -0.490865 0.51168 -0.210365 
287 1 7.73664 1.92184 7.42016 -0.162852 1.1255 -0.417221 
288 1 0.0811186 5.97289 6.58298 -1.61609 -0.423535 0.164195 
289 1 7.49159 5.00438 0.535566 1.11337 1.51434 0.569813 
290 1 6.90468 2.89792 7.88739 1.12104 -0.067223 -0.915933 
291 1 4.09327 5.1655 4.08497 -0.167858 0.496418 1.31538 
292 1 6.36363 0.9272 0.732057 -0.487068 -0.156595 -0.474376 
293 1 9.22803 1.07821 6.5121 -0.0886812 -0.318047 -0.420368 
294 1 8.3959 4.49996 7.08959 1.06461 -0.0969643 0.167349 
295 1 2.17349 8.47419 8.67643 0.577838 0.205434 0.700266 
296 1 7.84089 2.87557 7.56184 -0.716741 0.310558 0.81692 
297 1 6.9909 1.24898 4.88964 -0.706119 0.709592 -0.223423 
298 1 5.10561 7.74813 3.08268 0.267106 0.772181 0.25716 
299 1 0.380148 9.19484 2.67141 -0.42242 0.526116 0.166855 
300 1 0.452577 7.01121 1.20193 0.444531 0.0296469 0.0314789 
301 1 4.22734 8.73156 1.90302 -0.37783 0.0262683 -0.365425 
302 1 4.94662 6.47572 4.3461 -0.558798 0.165979 -0.725688 
303 1 6.46666 4.64216 2.06434 0.804407 -0.142439 0.185283 
304 1 6.74107 0.662572 7.7644 0.645749 0.686791 -0.96812 
305 1 6.68654 3.72275 8.72034 0.381967 0.180713 -1.40185 
306 1 5.32699 6.8229 0.0138179 -0.795245 -0.512549 -0.673648 
307 1 3.29477 4.88868 3.64048 -0.588503 0.569078 -0.380603 
308 1 3.28525 5.68693 4.19739 0.0753676 0.901532 -1.33666 
309 1 4.96486 4.80866 3.99141 0.553957 0.539471 0.392362 
310 1 5.40557 7.23714 3.8453 0.344187 -0.533023 1.40436 
311 1 4.2984 5.54115 0.356171 -0.538093 0.395818 1.13571 
312 1 1.68379 4.5023 5.2396 -0.449234 0.697895 -0.352798 
313 1 4.63706 1.80901 3.94469 -0.391941 -1.02707 1.01372 
314 1 4.97957 5.14059 5.66393 -0.0608176 1.21729 0.0438545 
315 1 8.52919 0.974135 4.928 0.821127 0.945917 0.149223 
316 1 3.03382 1.13488 7.74209 0.810772 0.252141 1.24466 
317 1 4.62748 7.15642 1.2982 0.666175 -0.475984 0.278155 
318 1 8.60771 1.32944 1.18132 2.70583 0.13561 0.213254 
319 1 2.7167 3.32433 6.22885 -0.211664 -1.29599 -0.885815 
320 1 5.45413 6.30271 3.54712 0.1597 -0.212304 0.712872 
321 1 7.1151 2.51658 1.15452 -0.728114 1.56038 0.00703635 
322 1 3.19087 0.840338 2.45568 0.736361 -0.160207 -1.00114 
323 1 5.02844 0.173217 7.53605 -1.08854 2.02992 -0.0768135 
324 1 2.34301 7.36808 0.93425 0.790862 -0.291628 -0.204108 
325 1 7.81843 8.38938 1.71354 0.197993 -0.309843 -0.921832 
326 1 8.29599 1.43287 8.04217 -0.56319 -0.171987 1.34324 
327 1 7.91185 1.99839 0.988173 -0.0358886 -1.61812 -1.28318 
328 1 7.08849 7.83168 1.88988 -0.440291 -3.39587 -0.113569 
329 1 0.466122 6.98638 2.17444 -0.550718 0.93042 -0.501851 
330 1 1.94843 6.34246 1.66806 -0.640694 -0.17485 -0.473754 
331 1 1.5428 7.39368 0.391513 0.805005 -1.41732 -0.389362 
332 1 1.61373 1.92088 7.01453 -0.126566 -1.26483 -0.691968 
333 1 1.62856 0.223482 4.01016 0.378901 -0.510058 0.759888 
334 1 8.3267 0.435553 1.70319 -0.278903 -0.827338 -0.854947 
335 1 2.14244 5.21299 1.42423 0.481765 -0.34677 -0.0543659 
336 1 2.58721 8.46792 0.90862 1.89205 0.688193 0.176208 
337 1 6.65452 3.60354 0.269587 -1.09218 0.51889 -2.04284 
338 1 0.905814 7.57886 2.79298 0.15955 1.99219 -1.47438 
339 1 5.3478 8.44551 0.747785 -1.31165 -0.442767 -0.263199 
340 1 1.11817 3.8397 7.03158 0.685689 -0.169589 -0.637116 
341 1 2.30916 8.33109 5.75032 -0.212514 -0.114464 0.809581 
342 1 5.79136 3.65238 6.44335 -0.96656 0.249264 -0.891866 
343 1 8.49122 2.57915 5.86773 -0.850205 0.213427 0.887908 
344 1 6.38411 4.11121 5.83737 0.062397 -1.59189 0.899794 
345 1 7.90438 4.75284 9.0558 -0.810983 0.803973 -1.0031 
346 1 7.01372 2.81247 8.91436 0.194495 -0.964683 -0.0321157 
347 1 8.37164 1.61285 6.12896 -0.476402 -0.766476 -1.02379 
348 1 6.17971 0.496785 8.63557 -0.43278 -1.60606 0.321631 
349 1 9.28446 0.604601 2.76925 0.0486803 -0.731827 1.42905 
350 1 2.17904 1.73158 1.04866 -1.20353 -0.135183 -0.718237 
351 1 1.32477 2.38485 8.91143 0.194307 1.18596 -0.639387 
352 1 7.45093 3.76863 3.89663 0.62599 0.402569 0.724971 
353 1 7.67524 0.62752 3.29539 -0.714453 -0.132217 -1.7021 
354 1 9.32026 7.67057 0.742503 0.31675 -1.12486 0.383413 
355 1 4.69921 8.56418 3.34317 -0.301534 0.738395 -1.17069 
356 1 9.26117 0.408686 5.27977 -1.30321 0.32969 -0.499336 
357 1 8.73866 8.95605 6.77963 1.31773 -1.21481 0.113372 
358 1 6.77103 2.16982 0.287635 0.652785 -0.21862 -0.63696 
359 1 7.22829 6.90309 1.67248 -0.279155 0.0620178 -1.45557 
360 1 9.40298 7.91348 5.18931 -0.315129 -0.581787 -0.524457 
361 1 1.03607 3.90449 4.0217 -2.01477 0.0795878 1.03078 
362 1 8.54438 5.69137 8.06278 0.161838 0.568591 -0.0391741 
363 1 6.06576 4.68192 2.95378 -0.198996 -0.0818914 -0.295051 
364 1 0.67787 9.26023 7.03025 -0.916092 -0.212798 1.78508 
365 1 3.701 5.71837 3.33238 -0.757549 0.114864 -0.580572 
366 1 8.65992 0.482458 3.61613 1.64199 1.18638 0.541128 
367 1 1.68286 0.782554 7.08428 -0.452937 0.481136 0.644601 
368 1 2.79568 1.02294 0.769017 0.425758 -0.00801166 0.204108 
369 1 9.15251 5.67334 2.9816 -1.70168 -0.176962 0.273498 
370 1 0.725513 6.48326 8.28235 0.180712 1.08849 0.310228 
371 1 8.65411 4.00323 5.19067 -0.785751 -0.628594 -0.0647553 
372 1 2.37204 0.796995 4.1837 0.770458 -0.349108 0.255424 
373 1 2.28593 9.32403 5.81282 0.713761 0.329759 -0.260953 
374 1 1.36372 2.99929 3.69082 -0.261512 -0.442456 0.325295 
375 1 0.805815 9.04821 7.96366 0.280151 0.145185 0.0568876 
376 1 4.42546 6.18285 1.17952 -0.736025 0.463056 -0.218518 
377 1 0.800294 7.45177 8.64065 -0.676751 -0.478144 0.802448 
378 1 0.968632 5.46863 8.77481 0.765633 0.166218 0.248668 
379 1 4.86969 9.07209 1.28865 0.221059 0.463423 -0.391956 
380 1 2.20982 9.2547 1.4347 0.0239068 -1.35616 0.634611 
381 1 6.20509 7.00414 9.06857 -0.0566118 0.673394 0.304922 
382 1 7.03839 2.2166 4.823 1.23573 0.103475 -1.72582 
383 1 0.762578 6.62371 4.69152 0.201162 -1.3588 -0.352796 
384 1 8.16576 3.14587 4.12231 -0.524703 0.874916 1.12939 
385 1 8.36376 2.25857 3.37963 -0.264108 0.754538 0.269323 
386 1 1.53489 7.89533 6.09264 -1.03728 -0.408932 1.24742 
387 1 8.37232 7.8882 2.3748 -1.00859 0.237656 -0.793045 
388 1 2.09604 7.46317 1.83253 -0.273634 -0.367004 0.17218 
389 1 2.94731 0.377713 5.20375 0.133347 1.12433 0.085004 
390 1 2.3559 0.137786 6.751 -0.209999 -0.395381 0.164293 
391 1 5.41354 0.515069 5.01358 0.349277 -0.243195 0.263691 
392 1 3.3514 3.16883 4.52941 0.515573 0.0641398 0.220979 
393 1 0.668352 0.0886574 1.80448 -0.605955 -1.52709 -0.679434 
394 1 2.4043 1.73828 2.80729 0.210841 -0.150438 0.171431 
395 1 7.38343 9.21522 0.505178 -0.373673 1.37329 1.88782 
396 1 1.6878 5.34171 4.1999 -0.200252 0.777959 0.936806 
397 1 3.80788 4.00541 5.12311 -0.480594 0.562431 0.140967 
398 1 5.11909 6.07454 0.523567 0.43144 -0.781964 -1.17871 
399 1 1.35758 2.09973 4.08571 -0.849636 0.264016 0.0190929 
400 1 2.52498 3.32226 1.33215 -0.849078 -0.0113247 1.20586 
401 1 5.04672 9.25888 0.364443 0.036592 0.10453 -0.190576 
402 1 8.12702 3.43743 0.905449 -0.37661 -0.911371 0.855272 
403 1 6.50296 5.39167 1.4811 -1.38632 -0.113226 -0.283205 
404 1 1.81986 4.38997 4.30503 0.860363 0.193794 -1.02312 
405 1 4.84612 5.54286 4.61553 0.0711723 0.892982 1.26168 
406 1 0.782576 4.68412 6.50518 0.861297 -1.00331 1.06247 
407 1 2.13723 1.78997 6.19496 1.74314 -0.831122 -0.322611 
408 1 3.67579 0.76187 1.02783 0.114489 -1.24134 -1.526 
409 1 7.3117 5.65485 3.03293 -0.53257 -1.21764 0.264184 
410 1 7.54873 3.39958 8.33128 0.153427 -0.856097 -1.17311 
411 1 7.12018 2.59441 7.00792 1.18678 0.620881 -0.409651 
412 1 5.96807 7.99315 3.43066 0.788071 0.403922 0.76997 
413 1 8.53898 2.2796 4.33615 -0.341179 -0.501847 0.281415 
414 1 4.07386 9.28273 7.43074 -0.288281 0.273301 -1.03463 
415 1 5.91274 8.22342 9.37021 -0.727698 -0.847239 0.438697 
416 1 3.86833 9.40142 6.46044 -0.86151 -0.531082 -1.09602 
417 1 7.33849 1.34737 8.05099 0.0389373 -0.248107 -1.42929 
418 1 2.33725 2.39053 7.62377 -0.244386 0.838315 0.304747 
419 1 7.77999 0.053954 6.1235 0.979201 0.427583 0.565195 
420 1 3.28301 0.804809 3.83195 -0.035193 0.331762 0.430727 
421 1 2.59218 1.03243 6.89842 -0.420671 -1.90758 -0.147397 
422 1 4.19907 4.43332 3.44921 -0.965242 -0.0144101 -0.13356 
423 1 7.58852 3.76463 9.244 -0.0263413 1.0107 0.917665 
424 1 7.98556 7.44765 1.58361 -0.843483 -0.514322 0.483162 
425 1 7.08044 8.89805 2.14225 -0.56806 -0.286134 0.877375 
426 1 7.21981 7.64872 0.958423 -0.0334513 -0.59319 0.327818 
427 1 8.40443 5.25538 0.284489 -0.198258 -0.107246 -0.71974 
428 1 6.84541 6.76369 0.717936 -0.275527 1.02043 1.3703 
429 1 6.21417 2.35335 8.34861 1.08165 0.699799 0.363222 
430 1 8.75849 5.83131 1.0815 -1.12944 -0.309208 -0.312234 
431 1 6.24037 8.1363 0.877314 1.60315 0.000746542 1.48127 
432 1 7.04717 0.563464 5.66869 1.38029 -1.37208 1.25704 
433 1 2.47739 0.899487 8.49581 0.618367 0.933517 -0.688486 
434 1 8.8589 7.15992 1.95747 -1.08617 0.197533 0.895081 
435 1 0.800136 7.66832 6.65197 0.594048 -1.94001 1.6428 
436 1 8.45034 0.501899 6.76781 -0.754327 0.14718 0.367791 
437 1 8.585 5.59773 4.50578 0.192571 0.237091 0.208989 
438 1 2.69177 6.11042 3.46874 0.431818 0.9831 1.67802 
439 1 9.21481 2.00802 6.27616 -0.869494 0.0870165 -0.0798858 
440 1 7.52193 8.19944 2.6366 0.17546 0.76008 0.793307 
441 1 3.32866 8.19233 5.38516 -0.477379 0.214306 0.110925 
442 1 0.0901111 7.90725 9.18062 -1.00373 0.058763 -1.17379 
443 1 4.66907 2.76411 4.07633 0.730321 1.1755 -0.0624873 
444 1 0.685048 4.15462 8.9143 2.26357 2.2468 -0.979184 
445 1 3.40542 9.06575 8.95513 -0.747107 -1.25975 -0.541967 
446 1 1.08704 1.34224 7.55992 0.984424 0.0723393 0.0748154 
447 1 2.33763 2.68735 0.570218 0.0698233 -1.15214 -0.00557877 
448 1 3.16676 7.74229 0.637369 -0.702409 0.683698 -0.168054 
449 1 5.27305 1.27326 4.43207 0.101157 0.935911 0.635463 
450 1 1.11636 7.04438 3.891 -0.117027 0.760346 -1.62439 
451 1 8.63479 5.53211 6.20786 0.561577 0.725909 -0.108672 
452 1 3.9957 6.29489 4.12964 -0.309807 -0.261028 0.3228 
453 1 6.06078 4.32791 9.23102 -0.378173 1.14347 0.547258 
454 1 0.139618 8.43051 3.23758 -0.285295 0.611309 1.67158 
455 1 8.66458 7.64416 4.59261 0.733184 -0.361446 -0.040149 
456 1 0.928494 2.97827 8.11885 -0.32559 -0.490277 0.0233426 
457 1 8.46438 2.10688 8.76006 -0.682735 -0.558585 0.86355 
458 1 0.120604 6.10817 7.58065 -0.524796 0.0393412 0.882756 
459 1 1.19294 3.01436 5.48266 -0.484025 1.39279 -0.42185 
460 1 1.43842 7.06508 1.26646 0.0219316 0.766501 2.42428 
461 1 6.35811 6.41716 3.82149 1.58388 -1.28829 -1.12953 
462 1 6.66151 4.12782 6.84816 1.39009 -1.17762 0.168434 
463 1 2.40775 7.90976 4.92411 -0.0405579 0.996584 -1.17321 
464 1 6.38891 7.29005 1.44953 0.812963 1.05857 0.844788 
465 1 0.227025 0.842827 8.71764 -1.11692 0.0310769 0.448998 
466 1 5.5127 2.25303 4.25267 -0.40141 0.734599 0.0697679 
467 1 0.71738 0.779059 6.8606 0.788816 -0.660803 -0.53065 
468 1 9.26592 0.730138 4.37391 1.11333 -0.991805 0.885294 
469 1 4.73986 9.1207 2.59071 0.226318 -0.532233 -0.812581 
470 1 1.59387 8.68677 3.64688 0.437096 -1.0148 -0.622311 
471 1 4.92935 8.2834 9.29851 -0.284799 -1.29382 0.322714 
472 1 8.31741 3.99207 8.63777 0.362889 -0.154682 -1.01726 
473 1 8.45502 4.22366 6.11098 0.819537 0.178329 -0.678409 
474 1 4.42572 9.05035 9.05485 -1.01634 0.207983 -0.294337 
475 1 7.20039 2.19246 3.13593 1.82299 -0.200476 0.553324 
476 1 1.60924 6.0684 8.44649 -1.06968 -1.31682 -1.49053 
477 1 9.35182 3.32989 2.53422 -0.244227 -0.826108 0.346283 
478 1 1.31098 6.76401 9.0928 0.0927016 0.206202 0.96069 
479 1 6.53327 4.02564 1.34775 0.11959 -1.78167 1.53819 
480 1 -0.00657466 8.75536 1.31607 0.530273 0.0500124 0.303174 
481 1 9.1668 4.82554 6.64239 -0.778427 0.27825 0.621583 
482 1 5.39435 4.27683 5.82426 0.694695 0.332087 -0.700872 
483 1 4.53964 1.1461 8.42522 0.399771 -1.02011 -0.317043 
484 1 4.53789 4.62843 0.51271 0.983306 -0.755993 -0.307334 
485 1 1.97135 6.57434 0.508939 -0.997971 -0.0366121 -0.255558 
486 1 6.23126 8.21215 1.81717 -0.6407 1.1585 -0.80171 
487 1 9.17814 5.70703 0.032464 0.821616 -0.517077 0.790067 
488 1 6.41614 7.39533 4.05869 0.445151 -1.349 0.655728 
489 1 7.35911 9.1635 8.92402 -1.03773 1.15284 0.535729 
490 1 1.48667 5.88704 0.0320057 0.34676 0.93088 -0.667786 
491 1 8.00441 1.2408 0.449007 0.753173 0.248666 0.175718 
492 1 4.65699 8.02517 8.41459 0.285347 0.665385 1.84973 
493 1 6.95356 1.45247 5.93658 -1.27001 -0.1515 -0.0520851 
494 1 0.59546 0.567917 7.84914 -1.03731 0.995768 0.625909 
495 1 6.1572 1.79298 4.78805 -0.537841 -0.383389 -0.678493 
496 1 6.28254 6.30006 1.31304 1.50445 0.059683 0.484207 
497 1 7.20927 6.01771 1.42423 0.188632 -1.62957 0.53016 
498 1 2.58912 0.903905 3.22235 0.127792 -0.210027 -0.725946 
499 1 1.38476 6.12651 3.72408 0.112569 -1.17753 0.874113 
500 1 3.45304 8.26716 2.18011 0.103019 -0.813538 0.273619 
501 1 4.49063 3.26189 8.62517 0.267571 -0.282681 -0.27619 
502 1 8.83704 6.18754 3.73853 0.603785 -0.317739 -0.743184 
503 1 6.27099 2.85399 4.89447 1.29684 -0.558621 -0.424125 
504 1 0.0604548 8.12215 4.20608 -0.0188762 -1.82799 -0.345942 
505 1 1.45132 1.05434 4.5302 -0.0496164 -0.513197 -1.62052 
506 1 4.68324 8.98964 6.78305 0.226417 0.711053 -0.169584 