ITEM: TIMESTEP
1428
ITEM: NUMBER OF ATOMS
1000
ITEM: BOX BOUNDS pp pp pp
0.0000000000000000e+00 9.4000000000000004e+00
0.0000000000000000e+00 9.4000000000000004e+00
0.0000000000000000e+00 9.4000000000000004e+00
ITEM: ATOMS id type x y z vx vy vz 
1 1 4.27692 6.62678 4.29582 0.637052 -0.95297 -1.28315 
2 1 8.42384 3.18151 4.85686 0.179427 1.98719 0.0494818 
3 1 3.64836 3.80436 0.677553 -0.437773 -0.236405 -1.66933 
4 1 3.01978 5.26503 9.09738 -0.945229 0.229801 -0.849755 
5 1 2.84815 3.58693 4.12787 0.406624 -0.204968 -0.1516 
6 1 1.42781 6.53792 6.03985 0.0975281 0.244815 0.663294 
7 1 3.08578 5.86975 3.2205 -0.300924 0.56149 1.5128 
8 1 5.96116 4.74212 7.8925 0.949971 -2.00501 1.12766 
9 1 8.54309 5.13255 1.67961 -1.16635 -0.263359 0.126983 
10 1 4.41065 4.53973 8.67085 -0.075054 0.429802 0.0656922 
11 1 1.15714 3.73729 0.533538 1.13533 1.34384 0.364062 
12 1 8.1409 4.57862 2.36802 -0.569736 0.866671 0.0535665 
13 1 7.9851 3.10776 8.61588 -0.0989421 0.0905423 -1.33677 
14 1 9.3473 1.60144 0.0370105 0.281638 0.0955111 -0.117498 
15 1 8.06089 1.95268 1.41401 2.48588 -0.461278 0.242173 
16 1 8.25659 5.0692 8.58385 -0.489608 -1.27834 0.603545 
17 1 1.88175 4.36591 0.397774 -0.489428 -1.21685 0.477001 
18 1 9.26439 0.185383 1.60115 -0.578846 0.727956 1.84682 
19 1 3.1934 6.62659 2.66508 -1.07845 1.09524 0.993116 
20 1 1.55593 2.3543 8.34943 -0.0992415 0.396335 0.148887 
21 1 1.39957 3.33987 3.8606 -1.02483 -0.255143 0.187521 
22 1 6.05927 7.98914 8.20081 0.160973 -0.555573 -0.453882 
23 1 7.67837 7.96178 4.59072 0.874343 0.540629 -1.38765 
24 1 8.68986 0.650316 5.51064 -0.029591 0.775922 -0.141797 
25 1 6.42268 5.57953 4.14849 0.132526 -1.07155 -0.425393 
26 1 1.57204 1.81574 2.16481 -1.26989 0.584404 0.396671 
27 1 8.93252 8.17563 5.86135 -0.784408 0.970638 0.944758 
28 1 9.3954 1.06844 6.93828 0.109204 0.0550587 -0.445444 
29 1 0.150405 0.652675 3.95501 0.438803 -1.46859 -0.831682 
30 1 0.343079 2.32606 1.8562 -0.704129 0.50412 0.211741 
31 1 7.17918 6.32814 1.36782 -1.0365 0.239962 -1.31254 
32 1 7.6011 8.65663 2.42257 1.24152 -0.172103 -1.14526 
33 1 3.69558 7.51761 7.77745 -1.7376 0.426513 0.581398 
34 1 8.13746 8.40813 6.32287 0.530842 0.407167 -1.04179 
35 1 9.29674 2.0077 6.71509 -0.0835042 0.335974 -0.212641 
36 1 7.99422 1.08568 0.941493 0.330077 -0.0228699 -0.606807 
37 1 2.52971 1.56516 0.767039 -0.210212 0.170471 -0.06167 
38 1 2.85345 8.35007 5.49978 -0.00720044 -1.41049 -0.234598 
39 1 5.12579 4.00694 8.9156 -0.564424 0.384281 0.226533 
40 1 6.6769 3.89466 6.4634 0.160685 -1.16605 -1.3345 
41 1 9.0315 9.41341 9.03882 -0.285493 0.544606 -0.783402 
42 1 2.65442 3.06751 5.91841 -0.504924 -0.729143 0.746515 
43 1 5.15405 4.63608 4.90124 0.909405 -0.895504 -0.227428 
44 1 3.8401 2.56044 1.287 -0.613991 0.000298446 -0.424311 
45 1 3.98298 4.82852 4.32055 -1.72738 0.238544 -0.676608 
46 1 2.89217 2.31844 1.26926 0.898402 -0.329139 1.22526 
47 1 8.40912 1.20309 3.73961 0.0373934 0.819412 -0.871219 
48 1 3.51328 4.87098 0.767085 1.17173 -0.105568 -0.211478 
49 1 3.06309 2.58255 8.25156 -0.812695 1.0967 0.796516 
50 1 7.49018 3.72206 8.05905 -0.116607 1.32308 0.427657 
51 1 1.44751 0.229445 6.87107 1.03169 -1.18606 -0.197969 
52 1 2.87728 4.41666 8.68943 -0.735299 0.673465 0.211562 
53 1 5.15515 7.027 5.80621 -0.457166 -0.271319 -0.0825366 
54 1 1.99424 4.79595 7.30396 -0.331443 0.528249 0.535065 
55 1 0.414187 9.26342 0.785488 -0.288131 -1.07631 0.6953 
56 1 0.112088 5.74128 6.05525 -0.281269 0.467012 0.597654 
57 1 1.24968 1.08248 1.63561 1.33147 -0.132419 -0.443409 
58 1 4.81411 5.13472 1.88729 -0.127297 0.644284 1.12064 
59 1 2.10478 6.21369 4.28877 -0.313426 0.63775 -0.951644 
60 1 0.677181 3.79039 4.29867 -0.368921 -0.361695 -0.589824 
61 1 5.01886 7.84214 2.54696 1.7024 0.799905 -0.317999 
62 1 7.15882 0.865315 2.58083 -0.262443 -0.0796306 -0.0758865 
63 1 8.0314 1.94244 7.71019 -0.107132 -0.558123 0.296117 
64 1 3.46323 1.77148 2.76771 -0.151124 -0.0240511 -0.278419 
65 1 4.4511 4.05422 4.60726 0.640285 -0.743838 0.193835 
66 1 7.65324 5.88519 3.18563 -0.497958 -0.146515 0.15525 
67 1 5.88113 7.73804 5.20828 -0.162727 0.0925113 0.379045 
68 1 1.22407 8.05343 5.72758 -0.332162 -0.786655 -0.138136 
69 1 2.71888 3.73509 0.855037 1.55183 -0.133858 -1.24077 
70 1 6.44732 7.06493 8.12461 0.552225 0.419272 -0.203069 
71 1 6.84195 8.36194 0.0282934 1.60448 0.358009 0.445928 
72 1 5.97725 8.16453 0.413555 0.940594 -0.303526 -0.0187054 
73 1 5.51102 1.93963 1.07834 0.658049 -0.777288 0.190355 
74 1 1.91923 2.09727 1.29592 0.716976 0.341895 0.899441 
75 1 5.00751 8.30255 6.8265 0.248435 0.381948 0.36276 
76 1 9.13938 7.84674 0.871506 -1.35938 -1.50649 -0.128105 
77 1 2.48982 5.16566 8.1317 -0.425639 -0.134715 0.319428 
78 1 1.34671 1.22592 6.67171 0.889187 -0.808006 0.867638 
79 1 3.12462 3.92929 5.90347 0.41888 -0.464356 -0.585986 
80 1 0.105915 7.42372 5.66476 0.428057 -0.23775 0.624488 
81 1 8.45309 8.8607 8.49643 -0.660926 0.263535 -0.450692 
82 1 1.69617 3.66629 7.44869 0.359431 -0.202313 0.117049 
83 1 8.43617 0.974876 2.70733 0.417714 -0.0156668 -1.41491 
84 1 7.43309 8.95941 1.49143 -0.189376 -0.624207 -0.748085 
85 1 5.88707 1.51381 1.90676 0.544444 0.594732 -0.219805 
86 1 6.04426 0.646298 4.7347 -0.750948 -0.997755 -0.672904 
87 1 5.06976 6.89791 2.27714 0.64025 1.03391 -0.796359 
88 1 4.0524 7.44038 3.79378 -1.05048 -1.03278 0.956152 
89 1 1.06445 5.61764 5.93636 -0.453411 0.172102 -0.205008 
90 1 3.18503 3.24175 1.5292 0.608258 1.42583 0.432815 
91 1 8.08079 6.57461 3.65239 -0.504932 -0.25745 -0.651322 
92 1 1.1917 7.8139 8.47031 -0.426792 0.233231 -0.456609 
93 1 8.46324 7.69159 5.15111 0.564404 1.24357 -0.450739 
94 1 4.04617 9.41187 2.46826 -0.0970438 1.0682 -0.380934 
95 1 8.13527 8.74591 4.23712 -0.447394 0.567405 0.0421517 
96 1 8.86693 5.16691 2.73294 -1.33009 1.95679 -0.133544 
97 1 7.3683 5.28446 8.2685 -0.755807 -0.399674 0.273381 
98 1 1.93504 3.22542 8.31782 -0.0798084 -0.0114475 0.763771 
99 1 8.59141 5.61888 6.03887 -0.385452 -0.278755 -1.3878 
100 1 5.39897 5.45221 0.633397 -1.75867 0.923898 0.719113 
101 1 3.65937 4.28925 9.27734 0.779021 0.608819 -0.354816 
102 1 1.7101 0.939038 7.49637 0.646683 -0.00718947 0.178892 
103 1 3.68679 5.84449 8.73305 0.241259 -0.0447186 1.71503 
104 1 2.78192 2.46273 2.93863 -0.673265 0.424927 -0.172049 
105 1 2.00997 0.269857 0.188868 0.846395 1.09317 -0.170589 
106 1 4.85516 5.20818 4.22197 0.431468 0.714532 0.00101081 
107 1 1.96427 3.85636 4.435 -0.616114 -0.0427119 -0.212515 
108 1 8.82158 7.68648 3.15217 -0.360495 0.366557 -1.23159 
109 1 2.47062 4.59854 1.16147 -0.110878 -1.05422 1.235 
110 1 8.00081 2.57562 3.10119 0.0626096 0.0219947 1.05518 
111 1 6.10574 7.39697 6.12321 -0.37337 -0.470152 0.373717 
112 1 4.20737 3.50933 3.2019 -0.846027 1.03728 0.55138 
113 1 8.37238 2.44284 9.29749 0.515982 0.381844 1.43501 
114 1 3.67867 6.497 5.01846 0.563915 0.76156 -0.393738 
115 1 9.18345 0.904159 8.77151 0.0592868 0.0380673 -0.268923 
116 1 2.68084 5.20242 5.65987 1.3214 0.580753 -1.56766 
117 1 8.25802 8.60063 0.98548 0.6855 -0.817362 0.445857 
118 1 3.4277 5.63074 7.81644 0.29975 -0.590419 1.16118 
119 1 8.73554 8.02684 1.72713 -0.0083992 0.746802 1.01999 
120 1 0.814208 6.02912 3.51202 1.41334 -0.283195 0.0113027 
121 1 6.73931 5.77472 3.07939 -0.326266 -0.305309 0.170888 
122 1 3.33272 5.16453 6.34129 -0.773082 -1.83957 1.57654 
123 1 4.94106 4.91612 0.0167432 1.42355 -0.723338 -0.432898 
124 1 7.5023 4.00864 5.60355 0.574438 -0.22041 -0.418401 
125 1 6.3396 2.73178 3.44315 0.144405 -0.472924 1.30013 
126 1 0.404844 4.96264 9.18801 -0.0796928 -0.249054 0.823403 
127 1 5.12931 6.26457 8.31864 0.635458 0.158063 -0.113185 
128 1 7.02803 7.13435 5.81598 -0.715713 0.205245 0.753575 
129 1 0.666062 3.12083 2.36255 -0.0288581 0.0515184 -0.55618 
130 1 2.34207 0.577517 6.85653 0.922571 -0.548839 0.228786 
131 1 2.10591 3.27967 6.66773 1.34466 1.38914 1.79881 
132 1 1.62615 5.43419 3.91817 0.131499 0.363548 0.110758 
133 1 7.38739 0.567616 1.65439 -1.04264 -0.83104 0.414259 
134 1 0.288163 8.04947 1.73329 -0.180929 0.401374 -0.127834 
135 1 5.38779 6.75542 3.92129 -0.391293 -0.109856 -0.558893 
136 1 8.2534 6.44878 0.796588 1.06094 0.794105 -0.140619 
137 1 3.23257 7.23986 4.23814 0.168547 0.552269 0.786219 
138 1 9.17086 5.9901 0.408834 0.227791 -0.200215 -0.166181 
139 1 8.01216 4.98035 3.22667 -0.354263 0.787058 0.396941 
140 1 8.28121 7.5051 1.02901 -0.263138 0.999008 -0.991117 
141 1 3.04123 5.01235 1.80704 -0.491572 0.18681 0.318606 
142 1 2.74061 3.23096 2.41375 -0.434815 0.216359 0.382398 
143 1 7.6364 7.12809 5.06784 1.72393 0.689719 -0.876794 
144 1 1.51993 4.7179 1.20715 1.32345 0.0756445 -0.444532 
145 1 0.689832 2.26239 7.90792 0.981991 -1.21167 -1.42993 
146 1 0.886083 7.07563 7.9812 -0.30404 0.90601 -0.517773 
147 1 7.20866 5.25663 3.74166 -0.069664 -0.679084 0.119859 
148 1 6.70697 6.99935 6.74271 -0.188812 0.752789 -1.01264 
149 1 5.75198 5.3477 1.5293 0.605848 0.462811 -0.996201 
150 1 3.369 4.99146 3.63564 -0.0805447 -0.271841 0.0661685 
151 1 1.20489 4.97545 6.63026 -0.349084 0.0120585 -0.476246 
152 1 0.499764 9.14411 9.25938 -0.020861 -0.107783 1.17965 
153 1 7.13538 3.56547 9.0371 -0.812008 0.174502 -0.107447 
154 1 7.7393 0.666401 3.2992 -1.26637 0.0960079 -0.107788 
155 1 0.734383 7.37371 2.2852 0.634724 0.473618 -1.02151 
156 1 1.28684 8.07121 6.70397 -0.0749209 -0.769144 -0.488914 
157 1 4.81725 8.17118 3.4764 0.557997 0.634757 -0.107852 
158 1 4.12915 7.10681 5.65354 -2.37516 -0.932361 0.205506 
159 1 3.66302 6.61064 3.54666 -0.228968 -0.0297277 1.66094 
160 1 0.403684 0.208275 8.41725 1.19266 -0.52314 1.94562 
161 1 8.97525 6.02615 1.34331 0.0221936 -1.08488 2.01512 
162 1 5.96206 3.10341 2.63099 -0.592391 0.402953 -0.566091 
163 1 1.82305 3.81711 1.16498 -1.26927 0.252949 0.677992 
164 1 3.47472 5.95674 6.90568 0.808749 0.546481 -1.45453 
165 1 7.74044 4.62054 7.71571 -0.287271 -0.43207 -1.5355 
166 1 6.52912 9.26446 1.45568 -1.14299 -0.124657 0.174086 
167 1 8.28273 0.644902 8.75831 -0.532791 -0.253437 0.877227 
168 1 5.12364 2.91708 4.80276 0.391568 0.205054 -1.98239 
169 1 8.89142 0.0790672 0.685058 0.729345 0.0759624 -1.90546 
170 1 6.11814 2.16206 2.65691 0.972741 -0.935339 0.0618163 
171 1 5.80696 4.01246 5.89103 -1.19128 0.195531 -0.0723415 
172 1 0.132414 0.627668 0.233075 1.65319 0.358149 -0.282981 
173 1 6.87837 6.63048 4.71895 0.454199 -0.218433 1.00671 
174 1 9.20334 1.61429 4.15181 1.62722 -0.932045 -1.36811 
175 1 5.68266 4.13736 0.25512 -0.690054 -0.235598 0.371451 
176 1 9.05541 7.2761 8.39186 -1.12528 1.33241 -0.0576913 
177 1 6.43769 0.687513 1.99438 -0.549618 -1.07938 -1.1779 
178 1 7.54209 1.19149 4.15156 -0.117374 1.40933 0.1775 
179 1 2.29174 1.55066 7.02938 -0.197993 -0.103044 0.310598 
180 1 0.645188 7.53172 7.16671 0.439449 -0.57015 0.600044 
181 1 8.44059 3.85748 4.00224 -0.0756079 0.267721 0.109951 
182 1 1.58141 1.85825 0.439404 -0.420958 -0.931523 1.04119 
183 1 3.56342 3.12353 5.58312 0.329584 -1.46711 -1.38586 
184 1 0.0181924 5.40493 1.91384 0.361779 -0.549943 -0.690742 
185 1 8.07433 5.49173 4.0984 0.0392197 0.213084 0.611598 
186 1 0.553587 4.5335 4.93002 -0.498861 -0.810548 0.110219 
187 1 3.1738 2.86428 4.73959 -1.01134 -0.696028 0.913407 
188 1 7.12636 0.331222 3.97771 -0.0267074 0.111576 -0.602007 
189 1 8.01784 0.135618 1.0295 -0.0785142 0.812679 0.79677 
190 1 0.231357 5.85862 8.99693 0.162489 -1.35231 0.962932 
191 1 0.312398 6.63645 7.34617 -0.126178 0.109038 -1.66594 
192 1 7.35622 8.73647 5.94432 1.5062 -1.59062 0.279423 
193 1 2.34172 7.15705 7.26865 0.652998 -1.03142 -0.0797681 
194 1 1.25625 5.43905 9.05967 0.350917 0.602359 0.666815 
195 1 8.43748 9.37163 4.90483 0.723596 0.834127 0.0983377 
196 1 6.84752 4.47035 8.10975 -0.0977544 -0.710371 -0.847771 
197 1 5.30255 4.87116 8.55763 -0.0925318 -0.202786 -0.0135296 
198 1 2.10492 1.24465 6.11323 0.183305 0.266301 0.399181 
199 1 8.62488 1.66254 8.79009 1.1327 0.815821 0.350003 
200 1 6.7309 5.45982 1.34491 -0.197488 0.204121 0.500042 
201 1 1.47523 1.66791 3.125 0.401954 1.36797 -0.735856 
202 1 9.16321 8.7239 1.23454 -0.525272 -1.39403 -0.629589 
203 1 4.73678 4.46538 2.75046 -2.10403 0.2336 -0.129001 
204 1 5.11764 3.64335 7.25904 -1.02027 0.370827 -0.127772 
205 1 0.0115357 8.86895 7.95688 0.39408 0.270472 0.734389 
206 1 0.0881843 4.16827 5.71683 -0.534064 -0.643589 0.0404311 
207 1 6.07918 3.18421 4.8431 0.442676 -1.38511 0.830592 
208 1 5.9546 6.51772 8.71163 0.850521 -0.0450645 0.340894 
209 1 2.19625 4.71874 4.15841 -0.416614 -0.201338 0.00180003 
210 1 8.69744 6.16338 4.37435 0.642084 -0.260215 1.06498 
211 1 6.4235 8.22032 3.61774 0.979126 -0.041262 1.18635 
212 1 5.19568 6.88225 9.13725 0.547866 -0.296822 0.614037 
213 1 7.30541 3.75397 3.99075 0.20556 -0.421733 -0.741426 
214 1 0.135555 2.50733 3.85314 0.90819 -0.708121 0.817379 
215 1 4.59858 1.43242 4.44893 1.2334 0.872441 0.768999 
216 1 0.782834 2.39241 6.34329 0.383263 0.305601 1.34544 
217 1 8.27624 4.53945 0.825763 0.0465989 1.1831 -1.31173 
218 1 7.28693 8.21492 3.2104 -0.327773 1.03287 -0.652215 
219 1 8.77661 1.49012 1.83117 0.115689 0.565408 1.99985 
220 1 1.08371 1.8147 8.96603 0.12169 -0.59217 -0.676122 
221 1 8.62623 2.45472 8.25844 0.226501 0.569694 0.0658476 
222 1 5.3864 5.98206 6.99169 -0.501457 -1.31791 1.07319 
223 1 4.36215 6.4856 8.8575 -0.952025 -0.509418 -0.244688 
224 1 2.1222 6.00056 3.33662 0.072091 -0.174748 -0.100504 
225 1 8.11099 3.35804 0.109451 0.781202 -0.941589 1.67048 
226 1 7.39698 3.27895 6.22568 0.275864 -1.0008 0.599714 
227 1 5.31973 7.37785 6.66468 -0.759961 -0.394136 -0.671527 
228 1 5.53896 4.93015 2.46095 -0.667623 1.06361 1.29069 
229 1 6.71294 5.04709 8.88113 0.199193 -0.329265 -2.82596 
230 1 0.577108 6.45521 6.45193 -0.908115 -0.171215 1.09532 
231 1 1.39083 9.3089 8.92367 -0.467218 0.630281 0.649025 
232 1 9.06866 8.82206 6.60819 -0.696814 0.0505102 -0.0315888 
233 1 6.18951 4.72655 0.906694 0.281342 -0.691935 0.382964 
234 1 8.91822 8.54337 4.92085 0.239864 -0.679596 -0.238491 
235 1 0.811554 2.86034 4.46319 0.565822 0.222431 0.376079 
236 1 6.4886 7.7793 2.72103 -1.01229 0.366455 -0.378296 
237 1 3.89074 2.23841 0.387915 0.271573 -1.1086 -0.792755 
238 1 6.0943 5.63918 6.05884 -0.388046 -0.267657 -0.155279 
239 1 8.09515 3.62504 1.0358 0.0133163 0.913136 -0.915043 
240 1 8.73328 9.09425 5.75789 -0.0506635 -0.153856 0.189804 
241 1 4.86672 2.05656 5.14084 0.383521 -1.79364 0.844534 
242 1 7.05101 2.132 3.92504 0.479892 -1.73854 0.964855 
243 1 7.48674 7.03792 0.735925 0.148834 -0.665282 0.0772287 
244 1 6.1154 1.74187 3.58252 -1.40805 -0.225616 0.798004 
245 1 0.321831 9.1336 5.97135 -0.463107 0.634236 0.235866 
246 1 2.96979 8.44853 6.45848 0.737974 0.369537 -1.08205 
247 1 1.69238 0.984107 0.794033 -0.349468 -0.548264 -1.46189 
248 1 4.34642 7.49925 1.97671 1.33698 -0.198635 0.108307 
249 1 6.48343 8.74195 2.81088 -0.828624 0.531412 -0.0424644 
250 1 8.59061 5.83964 3.31328 0.571055 -0.355338 0.123054 
251 1 6.84352 3.97603 1.05303 0.537818 -0.106257 0.601645 
252 1 8.78715 3.05559 3.51645 1.72174 0.0355338 0.970318 
253 1 6.31324 6.18389 1.79093 -2.26808 1.32797 0.469217 
254 1 3.61419 4.94068 8.43392 0.863537 -0.0582862 -1.21368 
255 1 3.76675 1.14366 3.99325 0.985471 1.58847 -0.16043 
256 1 2.32507 6.17339 0.809436 0.113763 -0.668996 -0.590747 
257 1 3.49995 2.05198 4.38551 0.469893 0.437289 -0.0063693 
258 1 5.45901 4.37716 6.75194 -1.7606 0.813281 -0.00669902 
259 1 2.19987 3.94866 2.71014 0.90743 0.865598 -0.85206 
260 1 0.756759 5.38016 4.32182 -0.223234 -0.643987 0.197729 
261 1 3.63558 5.56181 5.53969 -0.632435 -0.486819 0.170816 
262 1 7.22641 1.49812 1.3426 -0.529602 0.534437 0.632942 
263 1 4.59915 3.7477 8.12539 0.0152063 0.104336 -0.766253 
264 1 6.3297 4.97033 3.402 1.03954 -0.228984 -1.25676 
265 1 6.27029 4.74016 6.36905 -0.898952 -1.9328 0.130641 
266 1 1.67027 8.67422 8.1637 -0.629175 0.768282 0.278578 
267 1 7.35353 0.946319 5.71468 0.683316 -0.453468 -1.67833 
268 1 5.85917 4.12446 3.42681 -0.204808 1.23774 -0.4601 
269 1 0.773456 8.68558 8.48655 0.554877 -0.652602 0.042306 
270 1 4.28566 6.10734 7.92787 -1.40866 -0.109474 0.0190312 
271 1 3.51126 1.63891 1.06341 -0.335264 0.520787 -1.00796 
272 1 4.42457 2.37484 4.3154 0.0928799 -0.433403 -0.992239 
273 1 5.03336 6.11393 4.5554 0.427251 1.04067 -0.161305 
274 1 4.4853 7.53959 7.1851 1.13376 2.29226 0.983405 
275 1 8.61078 0.561885 7.19341 -1.82272 0.820307 2.05675 
276 1 7.84384 6.48269 7.59583 -0.78988 1.64735 0.305329 
277 1 7.22444 9.22561 3.17761 0.212977 0.759747 0.957933 
278 1 6.78428 8.38266 1.9545 -0.537376 -0.726179 0.235995 
279 1 7.90369 8.06278 7.24498 0.561256 1.06869 0.624096 
280 1 0.707626 0.944398 8.92986 -0.929423 0.262139 1.66823 
281 1 2.00555 0.0898049 7.73474 0.775545 -1.2083 0.0461804 
282 1 3.94249 0.276567 3.42371 -0.166953 -1.13635 1.83905 
283 1 8.57832 1.1744 7.96059 -0.397224 -0.112438 0.285138 
284 1 9.37398 5.22108 0.939994 0.753434 1.19358 1.34929 
285 1 3.34751 4.18863 1.4799 0.047204 -0.565871 -0.819274 
286 1 5.61394 7.72627 3.79896 -0.208487 0.508934 -0.62561 
287 1 6.6875 8.04432 5.79594 -0.400673 0.26401 -0.245917 
288 1 4.95808 1.95871 1.90287 -1.01861 -0.769826 0.06861 
289 1 8.71786 4.77529 7.71811 -0.238949 -0.182776 -0.387708 
290 1 7.70932 8.45535 9.0368 1.11416 0.500342 -0.633927 
291 1 0.472657 4.03256 9.34268 0.225635 0.676152 1.15914 
292 1 3.75309 7.29886 6.50663 -0.148062 -0.194271 -0.650558 
293 1 6.54637 7.27513 3.5409 -0.508497 -0.457974 -0.177608 
294 1 5.71349 0.347684 1.41651 0.926647 1.11159 -0.669805 
295 1 9.08043 0.378006 6.3537 -0.228831 0.441694 -0.19559 
296 1 6.83465 7.74999 8.67841 0.236365 0.524927 0.470329 
297 1 1.86114 1.40885 8.32176 0.312656 0.834014 -1.31449 
298 1 0.296397 7.88606 8.11699 -0.756453 1.25187 0.557911 
299 1 5.30172 4.92275 3.39507 -1.28912 -0.659977 0.954669 
300 1 3.50116 2.888 9.07069 -0.780293 0.328366 0.132088 
301 1 4.1993 8.46596 5.20262 -0.197426 -0.787289 0.987757 
302 1 3.0771 3.3486 6.71373 0.753469 0.928085 -0.647814 
303 1 8.68792 2.44571 4.29301 0.238304 -1.02123 0.898799 
304 1 3.99097 6.21343 6.12578 -0.437028 0.515782 -0.225762 
305 1 7.77177 2.4172 4.70669 -0.67718 -1.23305 -0.278059 
306 1 4.80771 2.7497 1.38381 0.56557 0.585214 1.36228 
307 1 2.27295 2.61604 5.19787 -0.677868 -0.052734 -1.34552 
308 1 6.14451 7.24684 4.41023 -0.357633 -1.9247 -1.3446 
309 1 0.579489 8.32124 0.8566 -0.372394 0.00511056 -0.390146 
310 1 5.3515 6.96266 4.89608 2.30459 -0.413075 -0.0349606 
311 1 7.66011 2.31853 5.6672 0.465881 2.62795 -1.26893 
312 1 9.09434 6.22348 6.79216 -1.68754 0.277154 1.13602 
313 1 8.53947 2.22936 2.39184 -0.217065 -0.735706 0.0757613 
314 1 3.32632 3.65805 7.59136 -0.953694 0.500371 0.298125 
315 1 8.98564 1.34575 6.10579 1.05222 -0.767921 -0.935772 
316 1 0.739757 1.88979 4.31003 1.15089 -0.846332 -0.366092 
317 1 7.79932 8.08871 1.65377 -0.192736 0.518582 0.565803 
318 1 6.86781 4.69922 7.1876 -0.560884 0.739658 -1.19508 
319 1 8.73829 4.77021 3.83247 -1.29122 0.306837 0.279715 
320 1 3.22274 3.45175 3.23222 -0.535429 0.0761293 0.358103 
321 1 0.447644 2.85425 1.09025 0.752611 -0.134951 0.780839 
322 1 2.79022 6.30681 7.52266 -0.262472 -0.0624985 0.432683 
323 1 5.33946 1.63139 2.70585 -0.738235 -1.03185 0.125764 
324 1 8.03858 4.94241 6.85148 1.10429 0.695558 -0.368601 
325 1 0.481374 3.13591 0.157371 1.16405 0.70744 -0.876096 
326 1 1.22433 6.55909 2.70487 1.74698 0.201229 0.593976 
327 1 7.16274 8.70777 4.06749 0.165334 0.859562 1.57945 
328 1 7.17628 5.951 2.24555 -0.233299 -0.263332 -1.7843 
329 1 5.531 8.91963 6.23349 0.101946 -0.335487 0.234017 
330 1 5.09371 3.08634 8.59406 -0.557548 0.511042 0.110839 
331 1 7.96323 2.03091 3.85238 0.687134 0.913074 0.927176 
332 1 6.37287 9.18137 3.69129 1.24489 0.115521 -0.0721643 
333 1 1.10699 4.39822 7.42797 -0.168778 -0.968784 0.445644 
334 1 7.41996 3.88227 7.09341 -1.46773 -0.686504 0.0770623 
335 1 0.0972551 4.58134 3.13077 -0.612875 -0.12976 -1.51034 
336 1 6.3028 0.759351 3.76944 -1.40573 1.22819 -0.0183083 
337 1 8.81562 0.77525 4.54054 -0.607194 0.94026 -0.264796 
338 1 8.04321 5.53006 2.43535 0.224153 0.0477852 0.0261665 
339 1 8.74095 0.36995 3.42828 0.482693 -0.452741 1.14612 
340 1 4.53198 8.67527 6.09823 -0.244286 0.77082 1.20693 
341 1 3.162 5.77611 1.26039 -0.717706 -0.804034 0.197292 
342 1 9.41275 5.44521 3.63646 0.252953 -0.397707 -0.16882 
343 1 8.53914 1.50842 7.01279 -1.05004 -0.0607796 -0.931575 
344 1 2.22785 8.06276 7.01019 0.860717 1.13568 1.11166 
345 1 5.78405 2.4948 1.82595 0.819682 -0.141751 0.136384 
346 1 8.95498 3.27374 1.16813 -0.298461 -0.219698 0.707476 
347 1 6.68857 7.49194 0.425445 -1.3097 -0.171099 -0.923906 
348 1 6.21673 6.84484 5.36472 -0.234072 -0.327677 -1.01166 
349 1 2.09297 3.94486 8.94733 -0.45961 0.277823 -0.598219 
350 1 5.79172 2.53846 0.100434 -0.118363 0.706134 0.0826439 
351 1 0.679028 2.25202 0.318213 0.820452 0.12654 -1.17126 
352 1 8.59121 8.9931 7.42708 -0.162916 -0.203906 1.33863 
353 1 6.75394 8.43418 0.994849 0.12863 0.0597231 -0.486601 
354 1 3.32662 2.48565 6.2861 1.75707 -0.77046 -0.453956 
355 1 1.12297 8.24507 2.1779 -0.295287 -1.73646 -0.694544 
356 1 9.09866 1.49064 5.15233 -0.555937 0.116387 -0.608618 
357 1 0.644587 0.513218 6.44478 0.184548 2.05691 0.285435 
358 1 9.31735 3.60914 2.76033 -0.811158 -0.385045 0.218993 
359 1 7.51177 9.30671 4.77989 0.0125943 0.372102 0.177211 
360 1 7.8255 1.31631 2.07131 -0.769548 0.518677 -0.147029 
361 1 3.81622 1.36105 4.99152 -0.106108 0.178661 0.582862 
362 1 4.4773 1.82591 1.09684 -1.52987 -0.829752 0.513186 
363 1 9.14788 7.38014 7.47995 -0.359531 0.236914 0.0842985 
364 1 5.62927 2.91286 0.94302 -0.413322 1.10577 0.401561 
365 1 9.25929 2.52725 8.97288 -0.771507 -1.29153 0.801571 
366 1 1.61016 1.06667 9.20922 -1.08042 -0.8659 0.484517 
367 1 8.15226 9.04202 3.24716 -0.0470445 0.260886 -1.004 
368 1 7.38189 7.15873 4.07753 -0.744681 -0.132516 0.380736 
369 1 6.8254 7.59854 4.95733 -0.433708 -0.240993 -0.248336 
370 1 3.74178 3.95002 3.94014 0.641941 0.302096 -0.217812 
371 1 7.86797 1.39986 9.29006 -0.13044 -0.038322 1.12114 
372 1 0.701801 0.411842 2.05235 -0.0304262 0.910059 -0.338709 
373 1 7.54676 4.08268 0.345503 -1.35199 -0.286305 1.39557 
374 1 8.77923 5.9751 8.55246 -1.00895 -0.550434 -0.21899 
375 1 2.82717 5.96804 6.20726 1.9783 0.424118 0.14309 
376 1 2.59766 0.998308 7.80075 1.02397 -1.73872 0.893723 
377 1 2.19303 1.24467 1.64334 -2.13301 0.0444516 0.317489 
378 1 1.04271 6.37653 8.70778 -0.568661 -0.22904 -0.67748 
379 1 9.32574 3.83056 3.69499 1.25394 0.566557 0.365875 
380 1 3.96535 1.79647 1.92006 -1.09056 -0.77918 0.777331 
381 1 6.66129 3.61364 3.04663 -0.553941 -0.927658 -0.0129975 
382 1 6.65011 4.3783 5.59419 -0.00945671 1.49646 -0.612195 
383 1 0.805062 1.32215 0.417625 -0.391044 1.31045 0.290785 
384 1 1.52562 2.64108 9.30502 0.690473 -1.12097 0.681716 
385 1 5.12015 8.7061 5.37248 0.998534 -1.33437 0.538328 
386 1 1.58763 8.38038 9.104 -0.591678 -0.872438 -0.263211 
387 1 8.35208 8.99979 1.83051 0.395147 -0.365525 0.615415 
388 1 8.56499 1.7899 0.596142 0.814841 -0.0908318 -0.391153 
389 1 1.0311 6.18054 7.72536 -0.752228 -0.152313 1.51107 
390 1 6.04261 6.73483 0.257897 -0.757609 -0.44572 0.854942 
391 1 7.81991 7.36841 3.18921 0.245686 -1.33785 -0.634654 
392 1 0.233674 0.793842 5.61164 0.324916 -0.22295 -0.364277 
393 1 5.97327 8.14767 6.70368 -1.20863 -0.442065 0.710273 
394 1 3.45544 7.45818 2.2656 0.185118 -0.488319 -1.84551 
395 1 1.52855 3.23464 5.04463 0.197431 -0.367581 -0.0131601 
396 1 2.38483 4.47352 5.09306 1.06338 0.654748 1.11542 
397 1 6.46716 5.91007 5.2084 0.299556 0.487539 -0.529048 
398 1 5.66314 5.46471 4.79156 0.949528 -0.966132 -0.825904 
399 1 1.38134 3.50135 2.90786 1.08913 -0.316509 -1.17478 
400 1 0.291534 4.91366 7.54325 0.581969 0.111622 1.2309 
401 1 3.16733 7.44168 5.22511 -0.698414 0.394132 -0.892882 
402 1 3.42675 4.26759 6.83794 0.384684 0.328161 0.0382233 
403 1 5.03527 4.48976 7.71175 0.658675 0.24594 0.632018 
404 1 7.31251 3.21405 0.690862 0.910596 0.784929 -0.463075 
405 1 6.99585 1.85589 9.17393 2.02401 0.834873 -0.0839673 
406 1 4.04349 4.33044 7.62398 -0.562184 -0.732637 -0.39701 
407 1 1.77236 5.81645 8.36886 0.0954516 -0.3165 -0.0615136 
408 1 7.47153 3.14995 5.22685 1.40663 -0.393536 1.35544 
409 1 8.79327 2.03608 3.35028 0.269277 0.193981 0.184523 
410 1 0.64609 5.02108 2.4935 1.87176 0.566777 -2.91913 
411 1 0.506096 7.44194 0.475181 -0.955048 -0.600276 -1.15999 
412 1 6.73788 5.3017 0.413839 0.155767 -0.094745 0.505289 
413 1 6.98818 8.30972 7.59792 -0.317455 -0.611935 -1.21409 
414 1 5.48285 7.13259 8.17342 0.733953 -1.34831 -0.384304 
415 1 7.81102 1.62621 2.99434 -0.820515 -0.392585 -0.231254 
416 1 0.6586 8.97765 2.61635 -0.573329 0.830013 0.265789 
417 1 6.32872 6.09884 6.94266 -0.135129 0.0977502 -0.221471 
418 1 2.22339 9.05955 6.53159 -0.169243 -1.59937 0.226107 
419 1 2.02459 3.37729 0.307735 0.408763 1.19293 0.265271 
420 1 5.81161 4.76788 4.18506 -1.40371 0.872561 1.45693 
421 1 4.95357 3.61996 6.2371 -0.150116 0.809818 -0.349004 
422 1 4.39578 6.02353 2.09228 0.409293 -0.840588 0.617105 
423 1 7.14248 4.41069 3.29895 0.305703 -0.158851 0.691837 
424 1 6.90323 6.4378 7.59047 0.161311 -0.136063 0.662535 
425 1 8.72497 8.15169 7.89049 1.65426 0.298746 0.644803 
426 1 3.79682 4.35183 3.06661 -0.0256402 -0.683478 0.208007 
427 1 9.11363 6.89148 0.692375 0.781059 -0.00237359 0.529978 
428 1 0.63455 8.93981 1.64458 0.367884 -0.0583132 -0.389287 
429 1 9.17694 3.12164 5.44341 -1.02686 0.145449 0.145933 
430 1 1.1501 3.22437 6.76456 -1.00332 -1.4473 -0.358359 
431 1 0.186119 1.74805 8.53875 1.1347 -0.823561 0.0320637 
432 1 0.252752 4.89814 6.39953 -1.1361 -0.959346 -0.137357 
433 1 4.72023 9.05264 4.56128 0.914456 0.469708 0.585515 
434 1 8.66547 2.51952 7.25505 -1.03561 0.00326543 -0.555758 
435 1 2.53822 4.01053 7.14668 -0.0947991 -0.143269 -0.0946508 
436 1 7.27827 4.63845 6.31499 -0.528572 -0.211962 0.523663 
437 1 1.2564 4.55602 4.22799 0.279863 -0.211274 -0.741226 
438 1 4.93327 5.43869 5.41992 0.669068 0.380568 -0.328931 
439 1 0.463303 6.26308 1.10003 0.46271 -0.68661 -0.35691 
440 1 4.47368 7.07151 8.11864 -0.449391 0.22022 0.534294 
441 1 6.80113 2.40679 5.14858 0.390629 -0.440781 -1.14416 
442 1 5.54898 5.74028 3.85424 0.00555238 0.200641 0.49215 
443 1 7.78147 6.34373 4.52791 1.13811 0.684844 0.683158 
444 1 7.31762 4.79129 0.902268 0.845804 0.298196 0.125517 
445 1 8.63182 4.18796 3.07459 0.5845 0.112163 -0.0819831 
446 1 2.34142 6.72349 5.81298 0.809206 0.0476241 -0.291825 
447 1 5.42902 7.77704 7.49872 0.931441 -0.970141 -0.667408 
448 1 9.20079 7.36892 2.2789 0.20524 -0.421144 1.84949 
449 1 6.26546 9.12548 0.542442 0.936545 0.397271 -0.927688 
450 1 7.77288 2.13666 8.61899 -0.075226 1.16424 -0.657505 
451 1 6.57378 9.24953 4.61746 -0.749118 0.468891 -0.05464 
452 1 1.82606 3.2834 2.09824 -0.0973059 0.670239 0.475544 
453 1 9.03353 4.96367 5.42341 -0.902261 -1.23953 0.306707 
454 1 7.58372 5.23941 1.68168 -0.348132 0.0786138 -0.858118 
455 1 7.8597 3.90551 4.74203 -0.71225 1.02898 -1.22111 
456 1 4.87202 5.54775 2.79867 -0.050017 0.94217 1.68168 
457 1 7.35778 7.67911 2.3819 1.11535 -0.308179 -0.433673 
458 1 2.70631 0.813189 2.35843 -0.389268 -0.633572 0.0308801 
459 1 4.2101 5.67996 4.78579 -0.0760552 -0.084923 -1.0026 
460 1 1.30805 0.561213 8.26717 0.819689 -0.0614739 -0.245343 
461 1 5.48385 7.34495 0.699959 0.430892 -0.751583 -1.09249 
462 1 6.74313 4.50512 4.15747 1.14645 -0.847575 -0.373183 
463 1 0.909864 4.64453 5.78607 -0.139055 0.917199 0.778064 
464 1 8.18486 0.854983 6.32016 1.51019 -1.74874 1.70407 
465 1 2.8208 1.65854 8.49226 1.74687 -0.954701 -0.140347 
466 1 5.89972 5.03068 9.36397 0.0514174 -1.31966 -0.624376 
467 1 1.13568 2.46089 3.59202 0.548893 -1.35057 0.483416 
468 1 7.86203 0.120361 5.67403 -0.55077 1.03322 -0.162948 
469 1 1.88124 7.33452 6.42071 0.946386 -0.280369 0.572561 
470 1 4.00178 5.14135 9.34174 -0.466121 0.697986 -0.761533 
471 1 2.14506 3.88055 5.83853 -0.793291 0.38137 0.102256 
472 1 4.91053 2.4094 0.482596 -1.23591 1.19122 0.0147481 
473 1 0.813333 0.752723 7.35314 0.833575 0.23756 -1.95137 
474 1 7.62359 7.9371 8.20478 -0.255919 -0.637029 -1.01227 
475 1 6.36934 3.60051 4.02375 -0.263434 0.859864 0.875488 
476 1 1.05964 0.419642 0.291024 0.0450643 1.20345 0.598287 
477 1 2.95261 3.6101 9.33843 0.178286 0.139588 0.216324 
478 1 9.11088 4.1375 4.69081 -0.0236172 -0.240631 -0.207344 
479 1 2.05211 7.0041 0.405378 -0.141845 -0.533001 0.423049 
480 1 9.07456 2.957 2.07982 0.627559 -1.50777 1.97947 
481 1 3.01699 6.77812 6.73247 -1.05652 -0.66949 1.27966 
482 1 1.30409 6.85029 7.04532 0.438924 -1.33579 -0.133334 
483 1 0.190475 6.4823 8.28754 0.164521 -0.231091 -1.26397 
484 1 7.39321 6.96713 8.3478 -0.276823 -0.0421818 -0.70578 
485 1 3.47831 5.82549 0.342491 -0.123234 -0.0509456 -0.13605 
486 1 7.67577 5.61118 6.18478 2.40823 0.547037 -1.25757 
487 1 9.15516 5.2825 4.53689 0.760319 0.469415 -0.485254 
488 1 2.02234 5.76507 7.4548 -1.13227 -0.598925 -0.600318 
489 1 5.27972 8.20418 4.59312 0.113568 0.00939368 -1.56959 
490 1 5.49676 0.908541 3.28667 1.41435 -0.176447 -0.0206135 
491 1 2.22916 6.63654 2.65447 1.23739 -0.349277 -0.593095 
492 1 4.01574 7.43836 4.77438 1.14241 -0.933245 0.257151 
493 1 2.57297 4.5819 6.40465 -1.41553 -0.7549 1.2061 
494 1 4.81871 7.20587 3.28562 0.553593 -0.742589 -0.469736 
495 1 5.20776 6.41326 0.586893 0.635301 0.574757 -0.664795 
496 1 5.47383 2.37666 3.32259 0.0244644 0.386712 -0.0679328 
497 1 6.85402 9.42634 5.52066 1.56504 1.45467 0.280586 
498 1 0.272743 7.18205 1.38576 0.763766 1.20338 0.191816 
499 1 3.68442 3.41678 2.3692 1.1256 -0.470281 0.452215 
500 1 3.48264 8.19235 3.74325 0.553374 0.117308 0.024331 
501 1 2.56284 1.13145 9.30309 -0.0694674 -0.635686 -0.429387 
502 1 6.3235 5.90275 9.28011 0.049214 0.182123 -1.47381 
503 1 5.61555 3.06563 5.70441 0.636009 0.0568036 -1.37135 
504 1 -0.00302632 2.63513 2.90062 -0.12559 -0.199065 -0.198921 
505 1 6.86688 5.44604 6.60783 0.934978 -1.16181 0.694177 
506 1 3.06616 4.49154 4.38389 -0.942636 -0.142445 -1.31189 