ITEM: TIMESTEP
2932
ITEM: NUMBER OF ATOMS
1000
ITEM: BOX BOUNDS pp pp pp
0.0000000000000000e+00 9.4000000000000004e+00
0.0000000000000000e+00 9.4000000000000004e+00
0.0000000000000000e+00 9.4000000000000004e+00
ITEM: ATOMS id type x y z vx vy vz 
1 1 1.65574 6.01052 3.74708 1.75236 1.05307 0.225616 
2 1 3.49445 0.182099 9.36173 -0.0766589 -0.135372 0.180783 
3 1 0.354977 0.110068 6.75388 -0.0202789 0.832861 0.307923 
4 1 5.57993 5.89677 1.36908 -0.340023 -0.681135 1.20529 
5 1 1.14132 0.67945 6.678 1.08789 0.719652 -0.199148 
6 1 5.43524 1.14684 8.2259 0.445962 1.2163 0.192678 
7 1 5.1758 0.749393 6.6145 -1.17516 0.517797 -1.34487 
8 1 1.28824 0.634669 0.598857 -0.0050351 0.210237 -0.452067 
9 1 1.83058 2.55753 5.9518 -0.425724 -0.636149 0.819118 
10 1 5.17697 2.26064 7.74695 -0.181188 0.293482 -0.0150073 
11 1 7.02859 7.01268 2.21673 -0.890241 -0.151731 -0.92908 
12 1 2.43405 8.08712 7.35691 1.10667 -0.691827 -0.373309 
13 1 3.67215 9.26895 5.89605 0.23265 0.108026 0.680806 
14 1 5.89722 1.32393 9.06638 0.837306 -0.863925 -0.140485 
15 1 9.00048 4.80666 2.0489 -0.388874 -0.91299 0.896144 
16 1 1.1998 3.00418 5.3743 -0.570232 -0.343145 0.735242 
17 1 8.36312 0.815593 8.65355 -0.0379909 0.305659 -0.462531 
18 1 0.457913 8.63484 6.40977 -0.462848 0.547967 -1.3339 
19 1 3.90528 3.93356 5.10095 0.34904 0.0647922 -0.60295 
20 1 5.73294 6.9519 2.64265 -0.282322 -0.133639 1.10188 
21 1 2.32744 0.629604 4.55871 -0.524473 -0.982281 0.412971 
22 1 1.44363 8.66113 1.21002 -0.0446264 0.9758 0.527 
23 1 2.48136 6.04359 3.26639 0.278653 0.526559 -0.309673 
24 1 5.95224 6.18847 8.01707 -0.167986 -0.240106 0.701214 
25 1 7.5213 3.69178 0.631049 -0.0579107 -0.64697 0.168696 
26 1 4.19937 1.89419 9.18527 0.310193 0.00430279 -0.287098 
27 1 7.02074 7.81569 1.55061 -2.13311 0.030547 -1.06369 
28 1 3.36997 1.83284 1.43033 -0.0971626 0.587068 0.977304 
29 1 6.62426 2.09941 8.38222 0.244404 0.645111 -0.183489 
30 1 6.68222 3.84125 8.71485 0.379123 -0.284152 1.28555 
31 1 9.05111 3.15011 1.63047 -0.410134 -1.12273 -0.037535 
32 1 1.23866 8.13622 6.3276 0.985512 0.318296 -1.26678 
33 1 2.18068 4.69035 5.08617 -0.360449 0.318798 -0.486199 
34 1 7.67593 3.67755 2.44271 -0.621989 1.15116 -0.405914 
35 1 3.35069 3.78403 5.86034 0.297432 1.10507 -0.0346335 
36 1 3.3949 6.95353 1.84706 0.151893 0.204613 0.0165754 
37 1 0.936533 9.22004 4.28101 0.649335 -0.0218431 0.919181 
38 1 9.19599 4.36537 0.49927 0.977984 -0.321425 -0.120001 
39 1 0.028514 2.99905 4.18035 -0.238096 1.26759 -0.21278 
40 1 2.80693 8.70828 5.80909 2.00526 0.522672 0.023455 
41 1 6.55945 5.43425 2.41402 0.341086 1.44482 -0.622932 
42 1 7.61333 4.64222 0.610567 0.715234 -0.372974 -0.393027 
43 1 9.25242 1.14693 9.09003 -1.7043 0.247954 0.643384 
44 1 1.51551 8.21662 0.322126 0.692744 -0.209076 -0.810607 
45 1 9.37824 6.16183 9.13316 -0.036112 -0.622195 -0.01388 
46 1 1.92776 6.34802 2.54321 0.4011 -0.536403 -0.000974214 
47 1 0.455068 9.23371 5.09103 -1.13391 1.26112 -1.20468 
48 1 1.10815 1.71642 7.47819 -0.301176 -1.09139 0.658902 
49 1 0.0759338 7.65543 7.92309 0.43717 -0.278889 -1.74553 
50 1 1.17532 7.9147 8.86461 -1.76587 1.01677 1.02541 
51 1 5.77948 6.63002 5.72089 -1.9221 0.653181 -0.69293 
52 1 2.24479 7.27009 2.61987 0.815603 1.0779 0.272623 
53 1 0.413165 2.95999 8.74178 0.460912 -1.26488 -0.0639578 
54 1 2.35212 9.31028 2.07225 0.89706 1.58578 -1.13078 
55 1 2.83568 0.913505 9.15555 -1.44953 0.364986 0.062652 
56 1 5.6183 5.95126 0.380594 -0.481438 0.181729 -1.24715 
57 1 1.79149 0.194937 1.28157 -1.36705 0.283064 -0.111801 
58 1 2.28426 0.225226 3.48253 -0.932669 1.22911 -1.04506 
59 1 0.820771 6.36356 7.03306 -0.182529 0.15852 0.274657 
60 1 5.44994 9.10726 7.66387 0.0871049 -0.174892 0.177734 
61 1 4.68989 2.63981 8.82079 1.06732 -0.588353 1.54192 
62 1 3.80825 3.55131 7.62343 -0.433687 -0.543969 -0.038859 
63 1 0.610296 4.85891 0.677954 0.0170664 0.776523 0.82051 
64 1 7.06968 0.389564 6.71378 0.657266 0.388473 0.234468 
65 1 3.1619 0.908319 0.664537 0.440994 0.228092 -0.577564 
66 1 1.46743 8.16377 7.23137 0.399118 -0.0635084 -0.281972 
67 1 2.56319 2.24056 8.29024 0.379964 -0.576356 1.4253 
68 1 3.94855 8.79725 1.93333 0.466677 0.233174 0.292125 
69 1 0.0402759 3.93554 6.33968 1.54756 -0.449141 -1.04868 
70 1 5.30404 7.22139 8.05682 -0.280493 -0.404843 0.116831 
71 1 3.58953 1.77293 0.517027 0.39151 1.31998 -1.14829 
72 1 1.78679 5.43695 2.88479 -0.425594 0.0551832 -0.539952 
73 1 3.80798 1.63659 2.25302 -1.19066 0.403826 0.92126 
74 1 1.31061 0.911303 7.90861 -1.38427 -0.691185 0.836236 
75 1 7.26444 5.33711 1.77321 -1.07189 1.04757 0.987308 
76 1 3.57603 5.87217 2.4472 0.372685 0.456324 -0.947066 
77 1 1.96416 4.51569 4.17942 -0.833807 0.12551 -0.115527 
78 1 8.7225 3.38361 5.96686 -0.290137 0.890151 0.433511 
79 1 3.95088 8.33208 1.05135 0.0237693 -0.426613 1.15124 
80 1 5.20065 8.25325 5.0388 0.65374 -0.0709615 -0.843012 
81 1 4.02464 5.82595 4.4035 0.0617801 0.704638 0.294621 
82 1 4.55341 0.443645 0.176776 -0.577512 -0.54977 -0.817503 
83 1 5.35391 9.19449 3.6285 -0.238535 -0.92603 0.221948 
84 1 0.0366111 6.57264 3.82647 -0.152803 0.977801 0.917597 
85 1 5.89527 1.31365 6.83111 0.286477 -0.181305 -0.396974 
86 1 4.55431 4.86065 3.47101 0.333302 -0.512757 -1.15519 
87 1 0.375509 5.32902 5.0582 -0.548162 -0.0167524 0.225576 
88 1 0.498775 4.4811 2.35499 0.6909 0.272283 -0.81446 
89 1 6.86163 1.4722 9.09419 0.239171 0.0284945 1.34436 
90 1 9.39441 1.2913 4.68793 2.31001 -0.0772604 -0.276383 
91 1 7.70912 9.08312 6.6478 -1.2628 1.08824 -0.636111 
92 1 3.15098 8.9022 7.8786 0.802875 0.441521 -0.947939 
93 1 8.69299 6.19726 6.06279 -0.328853 0.881529 -0.577532 
94 1 0.965636 2.15688 5.70971 0.682839 0.734619 -0.604487 
95 1 8.17812 6.32595 8.39049 0.470434 -0.192012 -0.0594564 
96 1 8.78013 0.605725 6.08058 -0.881227 0.180075 -0.805164 
97 1 8.64949 6.35487 4.37495 0.122683 0.0922624 0.376119 
98 1 2.20661 0.646805 7.52508 0.91258 1.50104 0.758548 
99 1 1.41665 0.110292 7.42898 0.511152 -0.0321153 -0.490786 
100 1 3.18567 1.63307 6.02076 0.755422 -0.270844 -1.72297 
101 1 0.678026 5.97694 1.73219 0.799153 -1.02226 1.9048 
102 1 4.27733 8.79416 5.30889 -0.648003 -0.655124 0.362463 
103 1 7.59121 7.1296 1.18976 0.0333387 1.35371 -0.112482 
104 1 7.34258 6.01085 7.8101 0.212136 0.122865 0.345608 
105 1 1.31242 4.96624 4.74329 1.43003 0.34913 -1.59177 
106 1 4.14221 0.481051 8.68109 -0.310326 -0.712955 -0.0216417 
107 1 7.78225 0.07775 8.29678 2.12138 1.08771 -1.31604 
108 1 3.29395 0.0825285 2.0609 0.284873 0.610607 0.824124 
109 1 2.10008 1.30532 2.78648 -0.608805 1.71726 1.06097 
110 1 1.03287 2.90609 6.34303 -1.44472 -0.534324 0.496996 
111 1 6.99933 0.092544 3.67023 -0.180082 -0.690219 0.389857 
112 1 5.72448 1.18769 5.91512 0.0912258 0.474943 -1.85357 
113 1 1.7072 6.29047 4.67075 -0.526347 -1.06493 1.11004 
114 1 6.88092 7.51502 4.87004 -0.684261 -1.03533 1.08588 
115 1 9.01367 7.73803 6.81798 1.39175 1.65217 0.345241 
116 1 7.58863 8.48921 0.195774 -0.298421 0.0853437 -1.01897 
117 1 1.7399 0.654223 5.82868 -0.146027 -0.807673 -0.452508 
118 1 3.57218 7.6901 0.423657 0.196747 -0.775873 -0.315179 
119 1 6.16068 8.17543 4.70632 -1.12935 0.59944 1.30505 
120 1 5.29811 7.58244 0.524137 0.0945754 0.959554 0.0648575 
121 1 7.43837 0.0225754 1.478 0.276225 -0.111701 -0.988745 
122 1 1.19723 7.77278 4.34301 0.143875 -0.564301 0.692201 
123 1 3.40097 6.2889 3.30296 0.758697 0.243765 0.576533 
124 1 4.48043 7.69674 4.84467 0.225534 -0.258934 -0.0269465 
125 1 3.31827 8.63836 0.329954 -0.207089 -0.0294546 -0.0767195 
126 1 0.711624 3.61149 6.88055 -0.180676 0.0261912 -0.721368 
127 1 8.37191 2.21652 2.72814 1.47577 -0.357479 -0.566705 
128 1 4.67999 8.30032 0.417185 -0.266197 0.162857 -0.283068 
129 1 8.51023 8.73916 0.532719 0.57379 -0.113896 -1.16187 
130 1 7.75051 3.93175 3.40194 -0.506909 1.65735 -1.12465 
131 1 5.92113 0.26309 8.29772 -0.360254 -1.73975 -1.45376 
132 1 8.10292 6.12292 5.31694 0.385895 -0.829287 0.577874 
133 1 7.05618 5.03079 9.30459 0.531849 -0.27506 -0.998105 
134 1 7.20567 4.74233 8.40613 -1.40975 -0.816652 -0.186768 
135 1 3.31119 1.96317 7.72365 0.0637418 0.0329574 -0.800092 
136 1 9.00528 4.78759 4.16094 0.782014 0.246183 0.271836 
137 1 1.81045 1.30027 6.92299 -0.264886 -0.0966254 -0.6586 
138 1 2.86994 0.0930138 6.35828 -0.30445 -1.36281 -0.278545 
139 1 7.72035 7.30568 0.227187 -0.812908 -0.369917 -2.55794 
140 1 7.19529 8.63274 8.29964 -1.18379 -1.26066 -0.630664 
141 1 3.25768 2.7446 3.34735 -1.81556 0.155803 -1.43451 
142 1 2.84697 4.86407 4.40647 -1.0453 0.0628848 -0.349868 
143 1 0.587028 3.86914 0.697624 -1.19185 -0.120059 0.306606 
144 1 0.504015 0.438398 3.61147 -0.677684 -0.934369 0.222104 
145 1 6.2772 5.19387 0.457873 0.818183 0.495381 0.6086 
146 1 7.00579 4.36251 3.97623 0.044901 -0.237062 -0.159047 
147 1 5.02929 1.69127 6.39188 -0.192172 1.13303 0.488376 
148 1 6.35363 7.50505 3.99903 -0.774934 -0.440553 -1.40934 
149 1 5.72905 7.32758 6.39375 -1.44857 0.380875 0.359714 
150 1 4.44265 7.50934 0.951902 -0.900115 -0.159734 -0.475281 
151 1 1.29388 3.19583 0.997132 0.463266 -0.883697 -0.609599 
152 1 7.59992 2.20876 8.2729 -0.506253 0.417143 0.983477 
153 1 4.25275 1.84746 7.60184 -0.19346 0.397658 0.303764 
154 1 5.18806 5.25096 5.42392 0.281295 -0.729659 -0.684197 
155 1 8.44269 8.35249 5.40559 0.528863 -1.72032 -0.968198 
156 1 0.142376 7.43822 3.42495 0.181554 0.749957 0.243093 
157 1 3.0615 8.04219 9.01206 -0.40243 -0.755409 0.24401 
158 1 3.77994 3.20301 4.40625 -0.97574 0.362017 -0.876699 
159 1 3.913 0.132554 7.81288 0.535035 0.630532 -0.603701 
160 1 1.72451 2.64614 0.32656 1.34118 -0.32668 -0.499084 
161 1 7.56111 6.85147 5.0087 0.451595 0.186137 -1.39088 
162 1 7.99586 4.56776 4.21016 1.47904 -0.21514 0.970147 
163 1 2.09169 5.46045 4.45423 0.0229777 -0.697928 -0.513901 
164 1 7.9864 7.61502 8.0391 0.549264 0.860923 -0.882773 
165 1 3.72096 8.17137 8.21979 0.0323574 -0.41819 0.117281 
166 1 7.46636 4.09771 7.14409 0.576961 1.32954 1.13606 
167 1 8.54914 6.55218 9.36235 -1.11334 -0.823771 -0.0435183 
168 1 8.37518 0.123409 1.72297 1.07988 -0.742935 0.00106211 
169 1 0.760758 5.66649 0.0555844 -1.42525 0.0740673 -0.100263 
170 1 7.43368 7.55228 5.65358 1.3994 1.36158 -1.41087 
171 1 0.814803 5.40965 6.91598 -0.640613 0.847735 0.922296 
172 1 1.15874 7.53793 3.44294 -1.19754 -0.321663 -0.281128 
173 1 6.14219 5.67593 9.01626 0.209852 -1.09866 0.69496 
174 1 0.813907 0.690503 4.81757 -0.201922 -1.36396 1.75379 
175 1 8.93178 4.50272 8.99881 -1.05179 -0.62628 -0.536806 
176 1 9.04861 5.95492 8.22091 -1.6412 -0.577337 0.296601 
177 1 8.30377 1.02633 0.258595 -0.193674 -0.628544 -0.645421 
178 1 5.95242 3.58732 0.37502 -0.218597 -1.80537 -1.30745 
179 1 4.47282 2.86705 7.82067 0.303704 0.96933 1.92153 
180 1 6.46319 6.34838 2.71063 -0.312418 -0.171858 0.88042 
181 1 0.450087 8.38272 1.08708 -0.0334098 0.257267 0.183152 
182 1 9.16042 1.11773 0.642606 -0.229902 -1.67787 -0.544382 
183 1 0.293934 1.02772 2.06716 0.579017 -1.32003 0.81435 
184 1 5.37899 6.2892 3.19842 0.815295 -0.363757 -0.0894708 
185 1 0.860539 4.50059 6.50803 -0.290257 -0.215662 -0.571802 
186 1 1.10702 4.15942 4.22423 -1.38901 -0.102779 1.2189 
187 1 1.49246 3.30403 4.51852 0.562945 -1.76345 0.574814 
188 1 7.42066 1.28708 6.82623 -0.741275 0.559599 0.462685 
189 1 8.94032 8.67208 9.03663 0.144853 0.498249 0.907462 
190 1 0.534143 4.93843 4.15951 -0.706646 0.142423 0.0263071 
191 1 8.12829 6.92376 5.84121 -1.18204 0.652731 0.245174 
192 1 6.94882 0.233769 0.519397 0.660884 -0.0540948 1.5006 
193 1 6.44028 1.56447 5.39066 -0.58751 -1.10426 1.23684 
194 1 2.539 6.00322 5.10838 0.117636 1.09498 0.698531 
195 1 8.42937 9.28154 4.34773 1.22891 -0.641481 -0.991902 
196 1 2.20564 0.816674 0.538131 -0.832496 -1.02889 1.12061 
197 1 6.76492 3.21822 0.0245157 -0.0114231 0.251766 -0.728169 
198 1 0.679374 2.8796 2.37267 0.148307 1.19827 1.00737 
199 1 6.34006 8.52558 1.50815 0.607451 0.00850545 1.3706 
200 1 6.35634 4.56849 2.08724 1.17707 -0.939575 0.292502 
201 1 4.18787 4.104 3.06636 -0.724201 1.32312 -0.159851 
202 1 1.27165 9.08082 6.57208 -0.0776612 1.06483 0.345849 
203 1 6.89355 3.60994 6.47198 1.24027 1.02557 1.05491 
204 1 6.67528 4.24713 0.321385 -0.99131 0.742662 -0.19308 
205 1 3.09854 3.319 5.07233 0.997981 -0.159487 1.47491 
206 1 0.502794 0.794845 7.41232 0.115626 -0.35518 0.947127 
207 1 1.31617 9.38095 3.42543 0.340911 -1.38814 -0.322446 
208 1 2.12045 8.1105 4.33694 -0.589271 -1.41282 1.56477 
209 1 1.44946 4.36207 2.39766 0.597887 -0.199733 -1.01883 
210 1 3.27151 4.02541 4.42647 -0.338458 -1.28434 -1.43876 
211 1 4.6314 8.16137 1.73415 1.17713 -0.538532 -0.206679 
212 1 5.85374 8.44963 7.10432 -0.191389 -0.248622 -0.973977 
213 1 7.42713 3.88073 8.07625 0.754959 0.314212 -0.232337 
214 1 8.79361 8.08287 1.17595 0.743086 -1.62387 -0.5724 
215 1 8.73022 5.53394 2.63403 -0.420547 -0.0426432 -0.237266 
216 1 7.88799 7.23903 2.81409 -0.61219 0.52625 -0.842892 
217 1 7.35464 6.21666 1.3806 0.335767 0.108147 -0.416243 
218 1 8.92768 1.5461 6.29485 -0.462146 0.892184 0.355696 
219 1 2.1255 8.58145 6.57636 0.0296013 -0.54859 0.442097 
220 1 5.01692 6.70177 0.270583 0.421825 -0.270337 -0.710174 
221 1 4.07684 2.1707 6.17274 0.116664 -1.09788 -0.115011 
222 1 1.77742 9.15166 0.461504 0.723677 0.655113 0.772354 
223 1 9.26197 8.61459 7.13539 0.61471 0.0493448 -1.30946 
224 1 8.34155 8.26942 4.42494 0.38975 0.655674 0.251124 
225 1 2.5681 8.17505 2.72885 -0.247651 0.640417 0.620973 
226 1 4.55543 1.00226 2.41945 0.556911 -0.0121336 0.71333 
227 1 0.311572 7.12498 5.40823 1.06076 0.174537 -1.47291 
228 1 8.78998 4.6511 7.38152 0.876402 -0.658265 0.653001 
229 1 6.62563 6.78006 7.74332 -0.717066 -0.268068 -0.145713 
230 1 8.12007 4.66718 6.69579 0.576753 1.1384 1.00395 
231 1 2.72602 7.86606 5.17448 -0.581083 -1.59063 -1.26879 
232 1 8.96271 2.48231 0.946131 0.787425 1.02701 0.400868 
233 1 5.8463 4.39138 6.29064 -0.0923239 -0.898407 0.405453 
234 1 3.0759 1.16723 4.1202 -0.504156 0.178318 0.950037 
235 1 6.21654 6.6066 9.36601 -0.206843 0.100729 0.154863 
236 1 1.51212 4.01272 5.13583 0.108764 -0.378382 -0.657429 
237 1 8.54142 3.94283 1.96994 -0.137935 -0.889824 -0.35725 
238 1 6.00046 8.87698 6.235 0.586077 0.35655 0.442342 
239 1 8.74109 5.96178 3.50816 -0.476999 1.03896 0.176098 
240 1 0.73256 6.72896 3.18848 -0.0509043 -0.269474 -0.418081 
241 1 2.29474 4.53217 2.86814 -0.0695225 -0.189179 -0.510573 
242 1 0.964054 4.2817 1.5237 -0.720928 0.161951 0.0981743 
243 1 8.12188 3.10724 8.28135 -1.38127 -0.446355 -0.362259 
244 1 0.370193 2.70609 3.27907 0.934661 -0.166761 0.127983 
245 1 4.56596 5.4312 6.16198 0.607346 1.22232 0.518611 
246 1 5.65259 5.10157 4.63728 -1.22626 0.219546 -0.749688 
247 1 0.698998 5.83749 3.5203 0.142429 0.616772 0.71593 
248 1 3.31419 5.49844 4.98191 0.316306 0.0714924 0.148487 
249 1 6.27648 6.53497 3.587 0.173126 0.821474 0.277228 
250 1 6.69844 2.81671 5.91664 -0.304493 0.169515 -0.586579 
251 1 4.60362 9.00494 1.20788 0.556182 -0.0646623 -0.202236 
252 1 8.79378 7.82556 8.55843 1.33237 0.618472 -0.529941 
253 1 0.902161 8.80102 8.61395 0.250256 -0.148928 0.538123 
254 1 3.19937 1.82184 8.9947 -0.941145 0.635379 0.283396 
255 1 4.7063 0.199605 7.31557 0.794206 0.687388 0.210425 
256 1 8.95533 3.04623 5.05656 0.329863 0.231715 -0.115487 
257 1 6.3863 1.58843 1.34974 -0.525904 1.76495 -0.823942 
258 1 1.94681 3.61166 3.76811 -0.905469 0.312427 2.74791 
259 1 0.731633 0.747218 8.70396 -0.2222 -0.218014 -0.944512 
260 1 8.10739 6.29276 2.82589 -0.113604 -0.257152 -0.366199 
261 1 7.09479 1.55778 7.76173 0.472084 0.0280966 -0.297964 
262 1 4.04023 5.06536 2.69601 -0.105202 0.0230042 1.19315 
263 1 7.36954 8.10818 6.68425 -0.0748866 0.677082 -1.10535 
264 1 0.834925 1.70583 4.85289 -0.925044 -0.609616 -1.08858 
265 1 1.33604 1.08122 3.32931 0.333944 -1.85027 0.687287 
266 1 6.38906 5.13755 3.96831 0.197826 0.583106 0.561739 
267 1 8.96654 8.43104 6.18946 0.514271 -0.591257 -0.970631 
268 1 8.71305 7.58904 2.51273 -0.704636 1.37774 0.875318 
269 1 7.79913 5.60573 0.163215 0.637411 0.0775892 -0.28096 
270 1 2.36245 8.78226 4.97265 -1.06677 -0.556767 1.0355 
271 1 0.590974 8.31088 3.57732 0.616905 -0.163529 0.740791 
272 1 0.00708369 2.2646 7.77988 -0.0975809 -1.39946 0.980043 
273 1 5.57762 7.2413 3.52432 -0.75264 -0.12035 0.930347 
274 1 0.361251 2.51169 5.01874 0.856962 0.0205823 -0.778784 
275 1 2.89775 1.3019 8.22561 -0.629156 -1.36653 0.20675 
276 1 8.90119 5.72465 5.03303 0.281185 1.12373 0.862711 
277 1 1.78757 6.82769 3.33862 -1.83122 1.81272 -0.945868 
278 1 4.42818 7.99036 5.80179 0.481717 0.0602343 -0.481416 
279 1 8.20941 4.03515 8.59968 -0.0266948 -0.757554 -1.3105 
280 1 4.29346 6.77213 4.59386 1.16243 1.47861 -0.0996687 
281 1 9.17737 8.23208 3.02053 0.830924 0.851482 1.17599 
282 1 7.78059 5.353 2.64869 -0.208873 -1.07242 0.977871 
283 1 0.666362 2.49816 7.13826 1.3374 1.39666 -0.974084 
284 1 6.47511 5.92522 5.71398 0.108427 0.820149 -0.442467 
285 1 3.10421 7.92169 3.50294 0.734995 0.245053 1.08207 
286 1 1.18173 4.76971 5.64694 -0.165458 -0.816616 0.269654 
287 1 1.00504 8.24612 1.92593 0.630535 -0.208732 -0.223386 
288 1 3.38679 0.853265 6.66028 -1.09731 1.15611 1.08365 
289 1 5.1171 4.10066 3.41605 -0.0143762 -0.515077 -0.00729598 
290 1 6.98836 6.7858 0.505255 -0.310677 -0.061229 0.118925 
291 1 0.412808 7.69153 6.17647 1.00339 0.619787 0.975993 
292 1 4.42829 3.3442 6.93968 0.752126 -1.11176 0.311321 
293 1 1.08389 3.95529 7.68784 -1.06764 0.410598 -0.936979 
294 1 4.78877 5.65092 2.03054 0.530774 0.663253 0.182771 
295 1 8.03694 1.1853 6.09454 0.166551 -0.73704 -0.206827 
296 1 2.50514 0.991923 6.31993 1.59962 -0.299754 1.38276 
297 1 8.55655 7.23604 0.686834 -0.0977483 0.393673 0.542987 
298 1 6.39751 0.555028 5.58193 0.243331 -0.22113 0.908022 
299 1 6.29294 4.73067 8.77021 0.81499 -0.361373 -0.0328909 
300 1 5.5953 5.35808 8.314 -0.0843327 -1.1209 0.454576 
301 1 0.0121802 7.85354 1.88503 0.229999 -0.202087 0.221898 
302 1 1.80779 8.75449 8.93716 -0.697716 -1.29388 -0.150841 
303 1 8.66347 5.05863 8.25627 0.28347 -0.241202 0.282403 
304 1 3.99859 8.29293 9.16014 -0.375832 -0.590694 -1.34496 
305 1 2.78715 3.55862 2.99766 0.711731 -0.417969 -0.123228 
306 1 1.89711 9.14199 4.20677 -0.0585347 1.10816 1.31386 
307 1 3.11486 5.68523 4.01651 -1.09342 0.57506 -1.64185 
308 1 2.89372 6.55414 2.55436 -1.03236 -0.178831 -0.904555 
309 1 3.31489 0.740907 5.73759 1.22407 1.10429 0.0362095 
310 1 6.10512 5.0574 5.66179 0.844599 0.165809 -0.0401331 
311 1 3.8034 0.0729636 4.21539 -0.260135 -2.00554 1.36149 
312 1 4.97796 9.03633 2.04449 -0.629705 0.114648 -0.265553 
313 1 2.20735 1.16571 3.73488 0.123285 0.759662 0.582509 
314 1 3.59085 7.41128 5.97082 1.37836 -0.825708 0.128854 
315 1 0.139714 7.05629 2.49112 -0.021864 -0.0746955 -0.107483 
316 1 2.53175 2.34172 7.30883 -0.671846 -0.633262 0.48055 
317 1 5.07796 3.58661 5.52461 -0.829904 0.262733 0.05899 
318 1 0.935089 1.17196 5.64973 0.481184 0.197653 1.51662 
319 1 8.04617 6.8002 3.70259 0.746939 0.226262 1.45041 
320 1 6.59344 5.45455 8.19728 -0.740156 -0.421083 -1.27374 
321 1 1.82154 7.11512 7.39988 0.128798 1.26657 0.512338 
322 1 3.85906 0.0518664 6.83299 0.119625 0.286881 1.29765 
323 1 5.61928 0.618228 7.44893 0.998933 1.1164 -0.437144 
324 1 6.25396 6.37235 6.53575 -0.366283 -0.198752 -0.146661 
325 1 6.10333 0.390317 6.57477 -0.0696891 0.309523 0.877109 
326 1 8.3909 0.618868 2.54851 1.5437 -1.08087 -0.58163 
327 1 5.96857 7.98341 8.63509 -1.04908 0.101243 1.06115 
328 1 8.17527 7.18091 8.82276 -0.0155535 0.442759 -1.22607 
329 1 3.25269 0.568244 4.82323 0.596375 -0.18435 -0.61547 
330 1 7.90039 6.24951 6.55123 -0.315576 -0.426812 -0.773564 
331 1 -0.00169982 3.56109 3.30379 0.259512 -0.0974607 0.839949 
332 1 8.01462 1.41217 7.96114 -0.641682 0.311534 -0.554131 
333 1 0.724399 5.62723 7.8588 0.380511 -0.710316 -0.700882 
334 1 0.031514 6.17481 2.89586 0.0859194 -0.178964 -1.34694 
335 1 9.18889 8.06799 4.03039 -0.392499 0.695072 0.146244 
336 1 4.50366 0.962393 7.89886 0.12547 -0.269517 0.483587 
337 1 9.12596 2.80192 2.55663 1.00681 -0.893957 -0.824338 
338 1 1.44752 7.01466 8.59201 1.38337 -0.219179 -0.220054 
339 1 5.98784 7.36134 5.14763 -2.02153 0.756812 -0.581009 
340 1 2.37255 9.3502 8.22916 0.472505 -0.794716 -1.00191 
341 1 6.42587 6.09999 0.872121 -1.92123 -0.0517147 -0.148146 
342 1 2.76163 1.37938 7.18587 1.16868 -0.349127 0.773353 
343 1 2.88991 9.07754 2.85315 0.0611375 -0.438872 1.12143 
344 1 9.36202 5.68917 4.19662 -0.696795 -0.501676 0.356607 
345 1 8.65009 3.94921 4.64795 1.29757 1.26899 -0.128356 
346 1 0.355358 7.33052 4.39008 0.0380702 -0.482797 0.461828 
347 1 8.74082 7.16571 7.65115 0.0466492 0.473315 -0.618158 
348 1 0.0565135 8.97252 4.00722 0.0957942 0.0381037 0.51043 
349 1 8.84885 3.06765 7.56088 0.7956 0.043932 0.31836 
350 1 7.96342 5.4229 6.05224 -1.32283 0.215531 -1.31808 
351 1 8.34881 5.46368 4.27504 -1.73839 0.907615 0.538247 
352 1 8.55324 6.41362 1.28467 1.21896 -0.712054 -0.199478 
353 1 8.11095 9.12248 9.12765 0.493648 -0.634772 -1.37349 
354 1 2.04452 1.55699 7.82806 -0.239705 -0.797577 0.482373 
355 1 5.26328 7.63402 7.17104 0.706757 0.44315 0.0558518 
356 1 5.82071 6.84055 0.8021 0.596494 0.278313 -0.242884 
357 1 7.74478 4.48532 5.77669 -0.587809 -0.0993172 -0.454782 
358 1 4.68663 9.19098 4.51984 0.526812 0.112698 0.298882 
359 1 1.63187 1.66351 0.31717 -0.312 -0.0331006 0.364276 
360 1 6.27461 0.195399 4.62419 -0.5531 -0.411777 -0.256349 
361 1 6.78235 3.46718 7.45049 -0.618323 -1.43467 -0.395468 
362 1 2.69088 0.575364 2.65399 0.1247 0.92223 -1.14119 
363 1 7.69903 0.507874 4.20942 -1.46017 0.809449 -0.229539 
364 1 8.55429 3.5582 2.84698 -0.429795 0.217787 -0.37393 
365 1 3.13705 4.51359 5.25807 -0.516725 -0.0627715 1.05451 
366 1 9.09104 3.61808 8.31577 -0.436562 -0.530341 -0.683414 
367 1 3.41438 6.64286 4.20711 0.424857 1.87311 0.209173 
368 1 3.1306 5.31332 3.09992 -0.0693773 0.864724 0.61876 
369 1 5.72793 4.48682 0.0949736 0.505722 -0.0880021 -1.21199 
370 1 8.46472 5.02187 3.41457 0.25599 0.723138 -1.22955 
371 1 9.22303 0.052573 7.56395 -0.610828 -0.197138 1.15571 
372 1 8.94173 6.30817 7.30519 -0.140804 -1.22082 0.517573 
373 1 7.14197 0.3223 5.01747 1.62249 -0.184648 0.464433 
374 1 0.818585 3.83413 5.77856 -0.0332217 -1.95697 -0.770673 
375 1 5.68413 5.97664 2.33477 -0.634297 0.0802038 0.745082 
376 1 4.4823 8.55984 2.70142 0.594737 -0.0632732 -0.911758 
377 1 6.43078 8.03756 6.45881 0.608614 -0.412614 -0.181266 
378 1 0.296247 0.979219 6.327 0.10025 -0.0248176 0.541365 
379 1 6.64482 1.15214 6.29125 0.372903 0.827877 0.118141 
380 1 7.09519 5.18165 5.66707 0.369257 -1.94781 -0.32259 
381 1 1.77363 6.6741 6.52257 0.658069 0.496153 -0.744701 
382 1 6.87039 3.91332 2.97811 0.272374 -0.118657 0.737725 
383 1 8.03891 5.44078 1.08019 0.12633 -0.25079 -0.980873 
384 1 4.30252 3.80549 6.03443 1.14124 0.644967 0.801134 
385 1 6.41686 8.84511 4.02422 1.10505 0.296892 1.27005 
386 1 8.05161 2.45883 1.28078 -0.789607 0.749023 0.188626 
387 1 8.7903 2.22001 1.86168 -0.0716524 -0.722648 -0.682534 
388 1 5.73477 3.75448 8.82709 0.310677 -0.0472742 -0.720281 
389 1 8.98049 5.08972 1.09756 -0.638765 -1.80706 -0.292531 
390 1 1.52123 8.44772 3.63937 0.51591 0.363422 -0.75345 
391 1 1.44883 5.80744 6.25303 0.139715 1.48731 0.00758385 
392 1 8.73663 1.86779 0.123798 -1.14498 0.430918 1.00011 
393 1 5.15375 9.1374 0.433411 -0.112845 0.887037 -0.341147 
394 1 6.53862 7.26665 3.01714 -0.842131 -1.20981 -0.88619 
395 1 0.512456 7.17497 8.64214 -0.45962 0.112964 -0.219384 
396 1 8.367 9.13522 5.93669 -0.209469 -1.52468 0.0453103 
397 1 3.70983 7.6277 4.28356 -1.11101 0.0686705 0.891459 
398 1 1.40538 7.32237 5.87753 -0.908931 -1.27551 -0.0740245 
399 1 2.35012 3.80585 4.62456 -0.262196 0.351363 1.89193 
400 1 7.64531 4.05667 1.56239 -0.0722445 0.561073 -0.360845 
401 1 4.87679 6.1759 5.61802 -0.134731 -0.674199 0.978407 
402 1 1.16446 2.0622 2.60413 1.26126 -0.255922 1.07448 
403 1 6.93828 7.22197 9.05678 -1.22619 -0.332822 -0.46186 
404 1 5.06912 7.57771 2.38399 -0.0528822 -1.20404 -0.401873 
405 1 6.85001 8.83423 4.88536 0.298648 0.0765471 -0.11588 
406 1 4.12338 9.05754 0.42314 -0.0726418 -0.30571 -0.467679 
407 1 1.17462 5.21367 2.08404 0.600354 -0.256584 -0.192036 
408 1 2.70978 4.21558 3.68444 -0.080529 0.994119 -0.78233 
409 1 0.320343 6.53064 7.89545 0.906126 -0.734782 1.76192 
410 1 1.10507 0.038465 9.27374 -0.246595 -0.239404 0.261741 
411 1 4.16609 7.66929 2.67872 0.212591 0.473892 0.367839 
412 1 6.82801 3.76845 1.9836 0.586848 -0.443407 1.20156 
413 1 1.70809 7.53009 1.83531 -0.21853 0.584478 -1.37586 
414 1 7.89927 4.76019 7.73462 -0.980483 0.249664 -0.687716 
415 1 2.3911 6.02526 6.11573 -0.271481 0.655111 -1.35864 
416 1 7.37286 1.15394 0.460916 -0.991093 -2.04002 0.584677 
417 1 5.91074 3.60053 7.80519 -0.436715 0.0984512 -0.14409 
418 1 7.83025 2.00827 0.420392 0.516156 -0.404019 -0.890086 
419 1 1.86234 1.77626 1.99631 -0.4217 0.701044 1.29824 
420 1 8.84008 2.41909 5.84057 -0.602443 -0.744981 -0.156156 
421 1 3.74819 9.02623 8.62172 0.273024 1.27967 0.730264 
422 1 0.654691 7.63344 0.223869 0.173014 -0.113931 -0.748173 
423 1 2.69731 3.04643 5.94943 0.610163 0.443045 1.56966 
424 1 7.18565 1.95033 6.12144 0.77275 -0.265959 0.499164 
425 1 1.55284 0.905453 9.15425 -0.851844 -0.132958 -0.0280307 
426 1 0.508119 4.66244 7.39611 -0.719915 0.457015 -1.15319 
427 1 8.78767 2.8178 3.46227 -0.828445 0.320084 0.0926656 
428 1 8.71819 5.84803 0.551501 0.111927 1.5533 -0.331152 
429 1 2.09916 7.83649 8.96572 -0.397201 0.219253 0.208326 
430 1 0.846662 9.24522 0.771031 -1.6 -1.07282 0.686958 
431 1 2.61621 1.69507 0.399202 0.964332 -1.04046 1.03415 
432 1 8.10715 2.08555 6.39614 -0.342575 -0.397411 0.577687 
433 1 6.4143 1.05722 0.476111 0.747071 -0.351485 -0.302537 
434 1 7.24533 6.5957 3.21192 0.278875 -0.263874 0.699644 
435 1 7.99027 4.89306 8.92337 -0.149859 -0.186968 -0.491103 
436 1 6.01347 4.40095 1.04473 0.485296 -0.0429744 1.68566 
437 1 0.764721 1.41274 9.36955 -0.770011 0.114022 -0.337614 
438 1 6.97774 0.850553 1.287 0.618328 0.182007 -0.39742 
439 1 6.75485 6.31601 8.59764 1.19082 -0.439539 0.846742 
440 1 0.113444 3.97811 4.20397 0.256917 -1.22515 -0.934831 
441 1 0.510599 4.3456 3.42575 -0.223336 0.252861 -1.96691 
442 1 2.17352 0.210678 9.14397 0.793429 -0.019201 -0.157561 
443 1 0.244239 2.24352 6.33073 -0.0323127 0.289081 0.411369 
444 1 8.93686 7.52531 5.81929 -0.264833 -0.170275 -1.06101 
445 1 0.621173 3.85275 8.51282 0.0554833 -0.441219 -1.95198 
446 1 9.35952 3.87961 7.40181 1.20083 0.0177083 0.427313 
447 1 3.91412 6.7596 2.61447 -1.13305 0.327689 0.176776 
448 1 6.54306 7.22193 6.88152 0.141565 -0.672461 1.1194 
449 1 5.78054 6.75066 1.74086 1.28688 -0.799242 0.300072 
450 1 6.10799 7.62029 7.66418 -0.389673 -0.0524853 -0.4617 
451 1 3.52425 8.3715 2.72965 -0.44945 -0.20242 -0.76267 
452 1 4.9641 7.94924 3.25002 -1.21668 0.583504 -0.476257 
453 1 4.45562 6.03599 2.86708 -0.346162 -1.33681 1.09218 
454 1 3.78727 2.63387 7.19848 0.218103 -0.339476 0.170968 
455 1 0.758052 0.291325 2.56396 -1.11115 0.587994 -1.32094 
456 1 5.6146 5.73941 6.11381 0.763247 -0.299706 -0.590691 
457 1 7.87955 9.12242 5.13128 0.60983 -0.336963 0.288103 
458 1 1.86373 7.03295 1.01078 -0.495199 -0.415185 0.330155 
459 1 2.00351 2.14829 1.10377 0.506002 -0.068093 -2.12251 
460 1 6.51671 4.31179 7.91685 -0.372671 -0.109046 -0.0741466 
461 1 2.63074 2.30436 1.8387 -1.59437 -0.0553088 -1.36078 
462 1 8.71786 1.24956 5.37457 0.267215 -0.610241 0.6928 
463 1 3.17213 2.88457 7.91681 0.0955005 0.2437 0.107116 
464 1 2.46335 3.89143 5.53686 0.455594 -0.910635 1.79999 
465 1 8.6196 3.33221 9.07683 -1.35284 0.0355911 -0.0640151 
466 1 0.121417 7.46183 1.00843 -0.363816 -0.0453828 -0.369484 
467 1 6.64417 4.81323 3.11166 0.0277981 -0.102376 0.840872 
468 1 1.04933 2.16913 0.884771 -0.521363 0.0936757 -0.405082 
469 1 6.30038 8.59561 0.549107 -0.0623762 0.197152 0.205082 
470 1 1.39794 6.6068 1.766 0.64666 -0.387903 -0.728264 
471 1 6.29728 4.38973 4.64284 -1.42289 0.260883 -1.26532 
472 1 6.01232 5.0353 7.50141 0.699263 -0.628385 1.14953 
473 1 4.85634 4.55559 2.52885 -0.0272223 1.49814 -0.534379 
474 1 4.13228 6.30339 1.77634 0.195255 0.188597 -1.08418 
475 1 9.19132 1.96091 3.20991 0.485656 -1.04641 -0.629504 
476 1 0.937909 7.24917 7.73535 -0.965188 -1.36103 0.844016 
477 1 8.29164 5.70824 7.68325 0.161733 0.993577 -0.343904 
478 1 3.02495 8.14322 1.08986 1.25456 0.998807 0.349479 
479 1 7.42236 0.544591 2.9479 -0.278919 -0.125987 -1.8331 
480 1 1.71546 2.4213 7.82495 0.790727 0.529143 0.465332 
481 1 6.46557 8.45949 2.43224 -0.953166 1.39604 -1.39272 
482 1 7.59961 2.26088 2.1092 -0.26764 -0.503065 0.654921 
483 1 0.901441 1.70097 1.71815 1.61542 1.13229 0.185102 
484 1 2.70624 2.03912 3.77517 -0.489896 -0.881189 -0.464731 
485 1 3.93785 5.55632 3.51335 -1.47558 -0.64155 -0.0844449 
486 1 4.35279 7.23036 1.85012 1.31251 1.5132 0.285559 
487 1 9.37918 1.65843 1.40159 0.128261 0.445173 -0.904433 
488 1 6.56899 7.21961 5.90597 0.418416 -0.833003 0.0750093 
489 1 6.22606 7.56676 2.0377 -0.28809 0.390732 1.03241 
490 1 0.392218 0.552261 0.228057 1.99161 -0.80157 -0.623224 
491 1 2.6009 5.64413 2.38192 0.216532 0.215149 -0.305805 
492 1 2.36929 1.92838 6.45695 0.436381 0.518361 0.242746 
493 1 7.3382 0.940341 8.45054 0.627686 -0.843842 1.15991 
494 1 7.14784 3.03466 8.39509 0.15028 -0.243967 -1.14537 
495 1 1.82156 7.56731 5.05431 0.283437 0.970144 -1.13438 
496 1 5.94181 9.22348 2.16979 0.191754 -0.625507 0.260322 
497 1 4.30766 1.00544 6.93127 -1.49182 -0.708534 -0.729511 
498 1 8.88935 2.22716 6.96931 0.382666 0.57578 -0.246397 
499 1 8.18713 2.44865 8.99389 -0.0832626 0.713936 -0.174978 
500 1 0.0181036 3.6786 2.33616 0.706257 0.500504 1.32885 
501 1 4.52427 1.33658 0.532238 1.53708 -0.301788 1.21506 
502 1 7.68139 3.25555 9.16023 1.12459 1.48794 -0.398725 
503 1 7.6271 0.527841 9.22487 1.01045 -0.535002 -1.25209 
504 1 0.241535 5.78294 0.894795 -0.537462 0.363604 -0.159677 
505 1 0.135138 1.70214 5.555 0.764896 0.638971 -0.339977 
506 1 2.14186 7.71975 3.47637 -0.886013 1.00033 0.145366 