ITEM: TIMESTEP
2037
ITEM: NUMBER OF ATOMS
1000
ITEM: BOX BOUNDS pp pp pp
0.0000000000000000e+00 9.4000000000000004e+00
0.0000000000000000e+00 9.4000000000000004e+00
0.0000000000000000e+00 9.4000000000000004e+00
ITEM: ATOMS id type x y z vx vy vz 
1 1 4.54811 1.18168 7.49804 -0.036561 0.267242 0.494731 
2 1 2.44879 6.19513 5.09441 -0.596678 -0.602693 -0.0549474 
3 1 1.49411 9.17025 2.61613 -0.768577 0.697516 1.14334 
4 1 5.84959 0.757398 2.64028 0.585414 0.505829 1.10618 
5 1 7.86047 1.68087 7.78206 1.11607 -1.19277 0.150748 
6 1 2.48182 1.98803 0.969479 -0.191292 0.467813 -0.0161655 
7 1 6.74639 7.92259 6.87255 1.17723 -1.33072 -1.69728 
8 1 1.41431 4.89228 2.72096 -0.508974 -0.297654 -0.60672 
9 1 8.5665 5.5645 1.06875 0.274615 0.0191361 -0.748391 
10 1 7.7804 2.58758 8.02616 0.0120181 -0.186887 1.02973 
11 1 5.64302 3.50743 4.12895 0.920625 0.176043 -1.29778 
12 1 2.43175 5.3559 9.11566 -0.228631 -0.302812 -1.20318 
13 1 1.97472 0.329607 1.05526 1.10583 0.0277825 1.51661 
14 1 6.73555 0.422461 9.26858 -1.35157 -0.636248 -0.105633 
15 1 8.56804 1.17312 8.10311 -1.69914 0.0921031 0.0824115 
16 1 0.196394 2.28103 9.35261 0.0500292 0.000516894 -1.37093 
17 1 0.728743 4.41574 7.42789 -0.282521 0.0292516 0.473675 
18 1 5.31749 8.04671 4.51 -0.131191 -0.42041 -0.489306 
19 1 4.36045 6.02477 8.13888 -0.294561 1.87329 0.833695 
20 1 1.46626 8.3319 5.49919 -0.0738003 1.38026 -0.476064 
21 1 0.807479 6.25989 1.18574 -0.0728164 0.794822 -0.786458 
22 1 0.0465687 2.35783 8.39789 0.194037 1.14743 1.16843 
23 1 6.01971 0.633173 8.61038 0.556004 -0.816921 0.565523 
24 1 0.480302 4.97717 2.64751 0.320503 1.27802 0.95411 
25 1 0.900306 0.410264 4.58027 0.114882 -0.42324 -0.474499 
26 1 8.04891 0.365137 9.14386 -0.130828 -0.705952 0.786155 
27 1 2.48833 3.522 3.03464 -0.545584 -1.1484 -0.659711 
28 1 2.15016 2.05658 1.88122 -0.0762705 -0.248217 0.0879502 
29 1 4.01047 7.84637 4.45187 -0.146383 -0.937021 0.829541 
30 1 3.19305 4.36962 6.38699 1.26031 -0.120862 -0.63134 
31 1 4.16688 2.45318 4.7023 -0.465905 -0.796297 -0.299626 
32 1 0.661316 2.6246 4.03235 -0.359394 0.20737 -0.0155443 
33 1 5.83195 6.79406 3.47123 0.239868 1.02467 0.511606 
34 1 0.997155 7.38991 5.2137 -0.916125 0.432414 0.966613 
35 1 2.07419 2.31482 0.0454263 0.386375 -0.293167 0.270491 
36 1 0.479848 3.11943 0.424596 -0.507299 -0.207341 0.700079 
37 1 6.70973 7.01673 3.15794 -0.402525 -0.870877 0.4943 
38 1 1.00164 3.07026 7.29828 0.341657 0.128535 0.434485 
39 1 0.747604 5.40223 7.25519 -0.267019 1.2114 -1.05946 
40 1 6.77752 2.17559 6.46051 0.931021 -1.494 -1.09109 
41 1 2.1747 5.25365 1.31949 -1.0469 -0.725179 0.00746945 
42 1 4.13571 0.335228 6.94948 0.724486 -0.426589 -0.0488243 
43 1 6.5798 5.73767 1.11925 -0.262298 -0.983156 0.0395978 
44 1 7.62776 3.51208 3.43922 0.391838 0.12276 0.842218 
45 1 6.92641 0.383408 7.28687 1.08285 0.636419 -0.472049 
46 1 1.69732 2.65806 6.81669 1.3404 -0.508421 -0.420928 
47 1 0.935146 6.13061 4.33002 -1.19749 0.526116 -0.861249 
48 1 5.54721 5.9448 2.25302 0.0722055 -0.555277 -0.919355 
49 1 3.06385 7.6217 4.56545 0.0685314 -0.349329 -1.41506 
50 1 9.20704 4.82728 8.82766 -1.44665 0.434561 1.18584 
51 1 8.35114 4.91397 6.95421 0.136403 0.466074 0.508127 
52 1 2.53208 0.71397 5.10942 -0.199791 -1.97734 -0.220375 
53 1 9.35835 3.84266 0.753539 0.00547293 -0.822211 -2.07872 
54 1 4.9519 0.980978 2.73057 -0.240092 -0.592571 -0.285318 
55 1 4.93198 4.42528 3.86426 -0.597487 -0.0619255 -0.400162 
56 1 1.46107 7.79811 3.69054 -0.384321 0.319909 -0.0644075 
57 1 5.94097 4.81122 5.33795 -0.259668 0.11172 -0.668183 
58 1 9.03502 7.71905 5.92443 -0.674626 -1.67391 0.211504 
59 1 6.59552 8.97812 1.54094 -1.01612 0.674511 -0.237958 
60 1 4.98536 7.45861 7.33555 -0.00422252 0.69788 -1.46939 
61 1 0.136825 5.84874 2.67992 0.431553 0.281451 0.0978404 
62 1 3.46557 8.52431 4.86132 1.81817 1.01751 -0.179571 
63 1 7.68046 0.915812 8.40549 -0.525223 0.599909 -0.923883 
64 1 8.51217 7.2417 2.72676 0.144003 -0.237274 -0.550734 
65 1 8.88497 1.37848 6.26058 1.57441 1.43755 0.275351 
66 1 4.83746 5.2408 6.34657 0.466169 -0.202718 1.44018 
67 1 1.65739 3.49103 5.6895 0.666128 -0.686181 0.147567 
68 1 0.4119 0.70511 0.769071 -0.135619 0.708577 0.0990371 
69 1 3.21937 2.34908 1.65415 0.454503 0.450232 -1.08708 
70 1 0.1965 0.769313 1.72219 -0.273718 0.662561 -0.14152 
71 1 1.93353 6.211 2.74593 -1.18933 0.599284 1.02846 
72 1 0.917797 6.39978 5.65326 1.40593 0.275691 -0.371141 
73 1 2.87384 2.24472 5.64158 0.267577 -0.970755 -0.919607 
74 1 8.18984 5.78061 1.98189 0.540268 0.491384 -0.693511 
75 1 5.64296 0.128761 3.37051 -0.0925494 0.23731 0.382037 
76 1 5.77368 6.11062 4.16751 0.770393 -0.554996 -1.24999 
77 1 2.35735 8.22898 4.941 -0.444701 -0.194584 -0.0101406 
78 1 4.02294 6.87061 8.36614 -0.390825 0.498978 0.14778 
79 1 5.72638 4.01634 8.29182 0.0124279 0.0364394 -0.236967 
80 1 0.157289 8.23596 3.62365 -0.623176 -0.094343 0.821885 
81 1 5.45593 0.461591 5.91209 0.192049 1.82553 -0.0490098 
82 1 4.21842 8.32044 1.71198 1.02212 -0.139008 0.984134 
83 1 4.16914 2.58305 6.5074 -0.683992 0.0324706 -1.88428 
84 1 4.21483 6.8072 5.78377 -1.43161 -1.17348 -0.409035 
85 1 1.85509 0.25733 4.55486 -0.401916 0.405803 -0.955384 
86 1 3.00671 3.58565 6.83723 0.921567 0.18374 -0.404724 
87 1 2.60695 4.42728 2.82283 -1.10784 0.413327 -0.041365 
88 1 4.87921 3.2675 3.58757 0.681324 1.63483 -0.0234133 
89 1 3.72912 6.37609 7.5029 0.0150948 -1.68908 0.137558 
90 1 2.99023 7.3798 3.63528 -0.83328 -0.171516 -0.372788 
91 1 3.34078 6.50166 3.43872 -0.332392 0.442886 -0.8436 
92 1 0.722996 7.56566 3.15944 -0.796325 -0.834604 1.17609 
93 1 2.79642 6.68043 4.31064 0.122698 -0.466948 0.595652 
94 1 3.66171 7.50052 1.87085 0.138644 0.766955 0.38661 
95 1 4.68381 9.23749 3.68657 0.223772 1.9351 -0.593729 
96 1 6.73525 8.60429 6.20643 -0.712335 0.0517284 0.919875 
97 1 8.22851 6.21569 3.03208 -1.36777 -1.57458 0.612287 
98 1 7.09728 0.0599374 2.18907 -0.803115 0.991308 -0.0493971 
99 1 8.97919 5.47213 4.65632 -0.0959085 -1.11468 -0.667653 
100 1 8.09489 7.22648 4.44834 0.190157 -0.938398 0.194414 
101 1 1.05689 5.41752 8.13024 -1.99519 1.04738 0.741734 
102 1 5.07313 8.46378 7.1675 -0.214049 -0.767794 -0.931512 
103 1 3.31917 7.65625 7.00371 -0.24885 0.0781779 0.840036 
104 1 6.46824 7.51625 2.35761 0.75216 -0.18958 0.0868534 
105 1 3.16018 8.12477 3.02692 -0.358516 1.042 -0.990664 
106 1 4.1173 8.9621 2.42539 -0.256033 0.130238 1.28805 
107 1 6.34727 0.69955 5.64669 0.341496 0.72656 -0.830912 
108 1 8.94009 4.05097 1.61257 -0.333912 -0.609444 -0.145339 
109 1 3.06705 3.17429 5.57917 -0.52497 0.501109 0.823168 
110 1 5.59953 6.74007 9.07115 -0.961582 -0.924977 1.02793 
111 1 3.31314 0.666444 2.45156 -0.45846 -0.247803 1.30097 
112 1 7.13555 6.37554 6.73257 -0.86386 -1.57924 -0.949451 
113 1 7.50721 7.32519 6.80841 1.10356 0.555161 0.150964 
114 1 5.88474 4.43857 3.95107 -0.134723 1.43393 0.63552 
115 1 4.39492 6.10427 6.42713 0.518201 -0.0329396 1.57525 
116 1 6.66235 1.10347 0.569257 0.99707 -1.10116 0.719179 
117 1 7.00145 2.19695 7.69428 0.572111 0.000805914 -0.43337 
118 1 8.4456 1.8027 0.822435 -0.818702 -0.424721 1.45872 
119 1 6.83873 4.2404 9.38017 -0.859 -0.461176 -0.0103448 
120 1 7.53343 9.23293 1.36418 0.195456 -0.139956 0.245359 
121 1 6.45028 4.81942 4.57202 -0.124384 0.868541 1.25407 
122 1 5.97207 8.53694 6.78401 0.456707 -0.116513 -3.05896 
123 1 6.4651 2.76998 7.14119 -0.681122 0.0355005 1.22211 
124 1 4.86494 3.6616 8.50069 -0.881192 0.72465 0.480216 
125 1 0.131326 6.92823 7.38068 -0.911083 -0.113281 -0.524997 
126 1 6.85223 4.62505 3.75153 1.38502 0.966213 0.477134 
127 1 0.970241 4.77469 6.5816 -0.00318683 -1.5943 0.170155 
128 1 2.45213 2.05864 6.50299 0.797629 -1.3548 0.114231 
129 1 7.59828 4.1975 6.89195 -0.306589 -0.994627 -0.102126 
130 1 5.32975 9.29025 6.66195 -0.282488 0.625071 0.908611 
131 1 6.35563 1.31299 1.4727 -0.846761 -0.795376 -0.260972 
132 1 6.05722 4.49057 0.648796 -0.678709 1.09768 0.332897 
133 1 0.626987 3.33353 5.66699 0.535791 -0.763591 0.683724 
134 1 3.13144 2.80548 7.87147 0.754493 -1.08676 0.343187 
135 1 4.14418 6.09555 3.95135 0.220702 1.13346 -0.550715 
136 1 8.84872 2.94408 8.83802 0.533815 -1.45366 -0.437722 
137 1 7.20671 7.87858 2.86069 0.328213 -0.201999 0.766974 
138 1 1.54295 1.40009 9.15007 1.47877 -1.08572 -0.0281416 
139 1 4.62586 7.25588 4.03492 -0.0422165 1.04563 -0.130048 
140 1 8.64983 4.08058 8.6702 0.5452 0.288199 -0.719113 
141 1 5.92285 8.66005 4.96915 -1.00969 0.398078 -0.217471 
142 1 2.90892 2.00757 2.49244 1.13623 -0.899392 -0.933531 
143 1 0.486315 0.677248 5.53052 0.305078 0.329443 0.309952 
144 1 9.36927 6.17698 4.21696 0.717684 -0.854704 0.972083 
145 1 6.16407 5.92642 0.0987476 -0.170266 -0.262258 -0.462466 
146 1 4.5639 8.3242 5.0453 1.51069 0.129161 -0.861867 
147 1 5.92451 5.00618 9.18847 1.16836 -0.0310246 0.525897 
148 1 8.86187 4.66459 4.18502 -0.450323 -0.372318 -0.819677 
149 1 7.35187 4.96565 4.51973 -0.0407283 0.826278 -0.432177 
150 1 8.97439 1.35837 3.44342 -1.87184 0.020613 -0.614079 
151 1 5.28861 6.8203 1.95181 0.110283 0.378249 -1.31218 
152 1 6.84259 1.25346 4.37638 -0.0288788 -1.53278 -0.452123 
153 1 8.19731 5.63493 5.1665 -0.780451 -0.199073 1.00092 
154 1 9.39297 3.68895 9.16204 0.205834 -0.289105 0.12669 
155 1 5.92522 2.93841 4.97739 -0.227296 1.60411 -1.17935 
156 1 6.40019 0.236998 0.862766 -0.134722 -0.552565 0.583317 
157 1 9.24347 9.34589 5.89258 -0.478613 -0.517365 0.54105 
158 1 6.33226 7.88067 3.24682 0.0198408 0.548363 -1.09519 
159 1 4.62627 6.13817 2.15197 0.219117 -0.179932 0.370539 
160 1 4.92163 5.89501 4.58574 0.534617 -0.381051 0.0502709 
161 1 5.2859 7.87531 6.45943 -0.790171 1.28035 -0.551472 
162 1 8.13644 2.91805 2.81845 0.496581 0.0317061 0.360331 
163 1 3.49347 7.21664 2.79262 0.576687 0.396387 -0.114551 
164 1 6.07706 2.6638 4.04077 -0.704432 -0.149334 0.121036 
165 1 0.788023 1.28165 4.81693 1.4946 -1.38678 -0.676711 
166 1 2.03178 1.23442 1.41013 -0.728399 -0.32168 2.51325 
167 1 1.19652 8.9754 4.85909 0.351047 -0.425938 -0.38992 
168 1 6.14786 6.65962 5.72016 -0.58312 -0.639315 0.436111 
169 1 1.57797 8.00462 6.37788 -0.522581 -0.433777 0.482324 
170 1 1.51761 1.80908 6.43544 -0.141066 -0.292963 -0.147775 
171 1 9.18105 1.55716 8.79268 0.660087 0.267809 1.07949 
172 1 8.46314 1.94086 4.0726 0.468586 0.569312 0.31636 
173 1 8.50292 2.58207 1.35731 1.57448 -0.289069 -0.826119 
174 1 9.12118 2.33421 4.88701 0.782031 -0.513906 0.352691 
175 1 1.44004 2.0412 7.48094 -0.168821 -0.591831 1.42567 
176 1 6.68829 4.53255 6.88784 -1.10057 1.50049 0.794173 
177 1 3.1798 2.08255 7.13449 -0.706085 0.1117 -0.666158 
178 1 2.33718 8.36996 5.91748 1.42657 0.993314 0.609119 
179 1 0.66872 5.6138 1.9129 0.353021 -0.184428 1.5114 
180 1 6.60594 9.18938 5.46122 1.27751 0.0857135 0.238856 
181 1 3.19476 4.57696 7.35542 -1.12092 0.325553 0.29088 
182 1 7.69341 4.78712 5.37976 2.08026 0.692928 -0.289767 
183 1 7.95523 9.03895 4.42025 0.447953 -1.06273 0.923174 
184 1 6.51631 8.46198 2.44416 -1.08216 -0.950466 -1.42412 
185 1 0.609217 3.24365 3.17658 -1.15145 1.66473 -0.191137 
186 1 2.02519 6.6486 7.48981 -0.101923 -0.481844 -0.201812 
187 1 8.04392 8.4933 2.58265 0.304693 -1.11866 1.40057 
188 1 5.7607 3.58956 0.743568 0.347343 -0.0719898 -0.159267 
189 1 0.0855749 3.27884 8.20833 -0.165323 0.995915 -0.127394 
190 1 4.22639 6.79104 3.29265 -0.859968 -0.790046 -0.444422 
191 1 7.46484 5.61568 0.708736 1.92066 -0.288291 -0.570719 
192 1 2.10139 6.88704 2.05465 -0.736262 -0.763764 -0.220359 
193 1 9.00081 8.86499 2.24498 -0.354634 -0.723049 0.175722 
194 1 1.2184 2.4249 3.33563 -0.199185 0.168587 1.1059 
195 1 1.64812 5.78249 7.38395 -1.6398 -0.0815933 -0.818299 
196 1 5.35355 4.62617 1.30647 -0.107573 0.880211 -1.15149 
197 1 6.05476 9.35704 7.32693 -0.358544 1.66351 0.974048 
198 1 6.2766 8.45678 7.69432 0.606025 1.95136 0.201328 
199 1 1.26288 1.96712 1.52873 -0.127179 0.684291 0.905443 
200 1 6.29943 6.87746 1.6275 0.626714 -0.265902 0.363834 
201 1 6.29251 4.40442 3.03309 1.38966 0.237066 1.72568 
202 1 4.61659 7.34477 1.45873 0.584467 1.39909 0.801343 
203 1 6.0105 8.464 0.913102 -0.378252 -0.370338 1.1666 
204 1 1.82754 5.91606 5.89622 -0.446921 0.555365 0.107311 
205 1 3.33745 5.82263 1.84178 0.494816 -0.157168 0.164271 
206 1 5.45212 2.39744 2.28026 -1.24535 -1.15454 -0.289644 
207 1 9.35922 7.63797 5.01703 -0.236493 -1.01175 0.263045 
208 1 5.46619 3.1203 7.97063 1.31459 -0.0549369 0.331119 
209 1 0.229554 5.02264 7.99847 -0.019058 -1.44209 -0.171758 
210 1 0.31709 4.06943 6.48524 0.561339 0.0105869 0.241726 
211 1 5.07663 5.37904 0.00822642 0.0970518 -0.835423 0.0784184 
212 1 8.94589 0.565815 7.48896 0.727822 -0.00200301 0.209627 
213 1 5.30374 1.57705 6.3172 -0.189967 -0.338169 0.059146 
214 1 7.01203 5.1028 2.96525 -0.915112 0.48349 0.315953 
215 1 6.00998 5.8127 5.2756 -0.745384 -0.842659 1.43814 
216 1 4.19512 0.313077 4.41981 -0.238455 0.190568 0.931028 
217 1 6.08779 1.71747 3.91236 -0.488354 0.310825 -0.350063 
218 1 0.932167 5.73006 6.35703 0.646188 -1.10618 -0.569787 
219 1 6.80694 7.26612 5.38222 0.12615 -0.290711 0.976083 
220 1 2.3074 2.91375 6.09098 0.306471 -0.481955 1.53219 
221 1 8.61706 7.14301 5.28193 0.409148 0.400334 -0.682992 
222 1 1.52532 6.2467 8.23415 -1.71548 0.130751 -1.13154 
223 1 3.79516 2.05779 3.1187 0.125024 1.46344 -0.235344 
224 1 3.26091 3.95123 4.52516 0.525015 -0.132506 0.287422 
225 1 6.60528 7.99497 1.54974 0.590261 -0.131853 0.231334 
226 1 6.20425 1.529 6.10503 -0.237831 -0.358334 0.848413 
227 1 7.40141 0.409388 0.603648 0.48192 -0.831108 -0.0845321 
228 1 1.98293 1.94861 2.84708 0.357525 0.515395 0.0975002 
229 1 3.71249 1.59298 2.22475 1.08588 0.855181 -1.3382 
230 1 0.845853 8.534 6.68021 0.174099 -0.211422 0.0128424 
231 1 1.92501 3.79117 8.51506 -0.0751142 0.291698 -0.331567 
232 1 2.29291 4.50629 8.00375 1.37711 -0.204746 -1.11646 
233 1 3.01057 8.92974 5.55381 1.04496 -0.661599 -0.0389715 
234 1 9.15381 3.92076 4.68544 -1.24496 0.367595 0.741187 
235 1 8.79911 3.78359 7.79173 -1.18128 -0.797459 0.0476656 
236 1 2.22024 1.35399 5.87102 -0.58767 0.0791313 0.646962 
237 1 0.257068 2.5079 2.65945 0.741024 0.0608826 -0.017943 
238 1 5.4899 3.93786 3.25321 -0.802025 0.933006 -0.238683 
239 1 0.259897 9.25053 5.01106 2.77052 0.998338 -0.699562 
240 1 9.07739 4.74402 0.95359 -0.857245 -1.11216 -0.835407 
241 1 3.72983 5.89855 5.73896 0.399163 0.449791 -1.07978 
242 1 7.17354 0.393319 5.98076 0.0752058 0.252898 -0.567987 
243 1 3.39038 3.76344 2.86453 -0.904666 0.791861 -0.745259 
244 1 4.7611 8.52594 2.97362 0.773353 1.17705 -1.93937 
245 1 8.0293 7.82046 3.32416 -1.9974 -0.172898 -0.173728 
246 1 2.46676 3.63625 7.64292 1.97038 0.33158 -0.201208 
247 1 6.4167 1.30334 3.14186 -0.840231 2.60702 0.67412 
248 1 6.39351 1.84095 2.31762 1.73241 -0.091734 0.484946 
249 1 2.51533 3.74006 5.04898 -0.161219 0.381336 1.4667 
250 1 1.81334 2.93586 7.79278 -0.987778 -0.367761 0.958855 
251 1 1.28764 4.38691 4.19681 -0.0670133 0.830302 -0.921479 
252 1 5.60837 5.22838 4.48552 0.173689 -1.43187 1.2871 
253 1 1.35043 7.14637 6.06009 -0.34814 -0.701892 0.141284 
254 1 5.90736 4.03927 9.23391 -0.285323 0.232408 0.462241 
255 1 1.16272 1.49853 3.09962 0.178812 0.952192 -0.68517 
256 1 7.19151 1.62313 1.79742 -0.44107 -0.986147 0.0391378 
257 1 0.929475 2.57296 8.11826 -0.437261 -0.930931 0.789766 
258 1 2.75136 7.62681 2.28904 -0.419596 0.562908 0.263308 
259 1 6.46544 6.0103 2.03786 0.333672 0.930334 -0.559838 
260 1 6.82692 5.48065 6.83952 1.14996 0.968047 0.689259 
261 1 3.6611 0.862415 1.56073 0.163752 0.117463 0.623195 
262 1 3.19891 2.71363 6.42116 0.687383 -0.459777 -1.19707 
263 1 6.49597 4.92577 6.07283 -0.910232 -0.656742 0.972965 
264 1 8.82022 8.23897 3.04776 0.570643 -0.294992 1.4801 
265 1 6.67858 8.2365 5.35243 0.0228107 0.336401 0.207337 
266 1 5.36288 8.14349 5.51918 1.77264 -0.305206 -0.374293 
267 1 3.14683 3.21072 2.11775 -0.944341 -0.662031 0.225725 
268 1 6.96555 5.24021 2.0453 -0.682371 -0.214482 -0.403716 
269 1 0.267345 8.19361 2.58884 -1.343 0.37603 0.241578 
270 1 3.45225 5.46538 7.44453 1.00215 -0.435447 -1.12374 
271 1 8.40966 3.31288 1.95986 -0.579253 1.1244 -0.39009 
272 1 4.79619 6.37214 1.25729 0.840224 1.8376 -0.655594 
273 1 1.22034 5.38529 1.13652 -1.84894 1.22168 -0.441712 
274 1 8.15393 5.29142 4.23311 0.282093 -0.558297 1.69813 
275 1 3.74987 7.32395 5.17083 -0.876486 0.137727 -0.53942 
276 1 1.16522 2.66297 6.05492 0.563793 -0.518542 0.624236 
277 1 2.88379 3.52702 8.50521 -0.0900883 1.60513 0.115778 
278 1 3.69929 9.20618 6.19698 0.679455 -0.13134 1.65177 
279 1 6.8914 0.350203 8.23856 -1.08752 1.03477 0.505738 
280 1 3.23579 9.08482 2.75016 1.53128 -1.40223 0.433337 
281 1 9.02021 6.82046 6.50515 -0.77843 0.392152 0.541951 
282 1 5.55203 9.24344 1.29684 -0.237698 1.31841 -0.736338 
283 1 4.53981 4.72837 1.80174 0.259683 0.134628 -0.22812 
284 1 4.81459 7.01875 6.49498 -0.108425 0.215642 1.48632 
285 1 3.3427 4.99258 9.07835 -0.10508 -0.483309 0.350444 
286 1 5.35718 3.73842 6.35971 -0.159963 -1.17643 -0.921055 
287 1 8.43811 2.73055 6.35498 0.682886 0.700767 -0.300434 
288 1 7.74493 3.35794 4.40307 0.503689 0.0973244 0.483063 
289 1 8.54676 4.65989 3.28726 1.12669 -0.699465 -0.896055 
290 1 8.39136 6.95716 3.61736 0.992173 0.223675 0.438063 
291 1 8.03134 0.671383 1.38729 0.849661 1.38933 -0.334769 
292 1 7.58839 8.43325 5.10407 0.834481 -2.11234 -0.185261 
293 1 0.688738 8.85316 5.7718 -0.0789242 1.72647 -0.626834 
294 1 3.81317 2.56824 5.60476 0.434626 1.36764 -1.13869 
295 1 6.18126 0.407599 1.79773 0.0972469 -0.328774 0.528968 
296 1 6.75293 2.00249 0.924643 1.53985 -0.0979855 1.25136 
297 1 8.24513 4.96882 8.76654 -1.20217 -0.749505 -0.219453 
298 1 4.64022 6.55718 7.32763 -0.406403 -1.28951 -0.0188089 
299 1 0.0851838 6.12389 6.01323 -0.746091 0.0918314 0.680471 
300 1 4.006 1.65595 5.31059 -0.143696 -0.230176 1.69771 
301 1 4.32122 4.77538 9.2935 0.540821 -0.0325516 -0.244223 
302 1 0.00557462 1.65273 4.29227 -0.309187 -0.601096 0.207958 
303 1 1.77913 5.5591 3.42469 -0.196494 0.199461 0.538748 
304 1 4.1532 2.11349 1.53805 0.184806 0.162094 -0.699091 
305 1 7.06466 0.68195 1.45952 0.371137 -0.0412543 0.0744829 
306 1 5.31801 6.32811 6.04107 0.736855 0.751473 -0.266393 
307 1 1.78264 4.69512 8.90897 -0.932207 0.801105 0.485823 
308 1 4.3727 5.64522 7.2639 0.80424 0.45722 -0.104143 
309 1 2.55956 2.81629 7.12243 -0.527187 -0.0513757 0.860744 
310 1 0.415307 2.39003 1.69631 -0.666351 0.386146 0.481175 
311 1 8.9104 0.758751 5.5586 -0.946785 -0.242616 0.680543 
312 1 4.72269 2.85543 1.88009 -0.429027 -0.452876 -0.107334 
313 1 2.24578 2.84766 5.06746 0.758753 0.189664 -1.32241 
314 1 8.77787 8.84989 3.79924 -0.538727 -0.475525 -1.52203 
315 1 1.35826 6.41622 3.51741 -0.825954 -0.203784 1.06405 
316 1 8.28823 9.40153 0.75367 -1.0084 2.08955 -0.132849 
317 1 5.08276 2.83416 6.20548 0.531436 0.503947 -0.91647 
318 1 8.5764 8.0226 6.71686 0.418014 -0.401996 -0.670681 
319 1 6.15658 0.872849 7.66424 -0.472455 -0.159517 0.178028 
320 1 7.1961 8.8451 2.91087 -0.365973 -0.589688 1.42304 
321 1 0.938635 0.0974464 1.49823 0.0183435 -1.85407 0.510333 
322 1 3.08488 0.436103 5.83826 -0.0136508 0.459816 0.734868 
323 1 7.90146 5.36327 3.3116 -0.123255 0.681153 -0.922531 
324 1 5.64134 8.35807 2.78166 0.289767 -0.65164 -1.28004 
325 1 6.13876 5.29247 2.6442 1.11528 0.802185 0.738198 
326 1 7.06514 9.31079 3.75929 -0.872925 -0.09506 0.168929 
327 1 0.31397 4.50506 0.168231 -1.51248 -0.0381834 0.377539 
328 1 3.91632 1.68636 4.02783 0.119411 0.408995 -1.14976 
329 1 5.26828 0.441001 4.22459 0.888321 0.196442 -0.416539 
330 1 7.35852 3.42887 9.13973 -0.149847 -0.566551 0.649371 
331 1 1.80905 8.63111 3.35034 0.165093 0.178247 0.937373 
332 1 4.89811 2.01055 7.8924 -0.9355 -1.62623 -1.63277 
333 1 7.7922 2.21638 3.32111 -0.707013 -1.5346 0.238896 
334 1 8.88252 5.60985 8.33364 -0.0626379 -0.505435 0.0151988 
335 1 6.01184 7.61203 4.99155 0.313529 -0.0432277 0.13721 
336 1 5.46252 7.04053 1.00857 0.184818 1.31526 -1.49672 
337 1 0.745334 3.16052 2.17932 -1.14093 -0.291824 -1.58547 
338 1 4.09447 2.1217 7.36954 -1.03058 -0.0745894 0.132816 
339 1 9.01035 4.46897 2.48227 0.253913 -1.079 -0.173271 
340 1 7.45781 2.63447 6.93524 1.20442 0.159371 -1.10437 
341 1 7.35436 5.09145 9.1884 1.30888 0.612991 -2.54024 
342 1 1.86074 8.73813 4.27076 -1.06968 0.182409 -0.82482 
343 1 2.25733 5.29981 2.63468 -0.487988 0.477666 -0.134071 
344 1 6.879 8.82094 4.57443 -0.242844 -0.104941 -0.201692 
345 1 0.940647 3.13214 1.24507 0.169035 -0.999385 0.473412 
346 1 5.59753 2.23755 5.64593 0.286396 -0.69237 -0.854161 
347 1 1.40477 3.13084 0.251562 1.31362 -0.513486 -0.0642359 
348 1 5.07501 5.50385 1.54778 0.340919 0.550663 0.386625 
349 1 5.32864 4.34786 4.7589 -0.467307 0.0759938 -0.403845 
350 1 8.93275 4.5717 6.20014 0.727416 -0.20168 -1.25459 
351 1 7.79272 5.67384 6.79022 -0.219641 -0.900959 -0.417612 
352 1 3.0641 6.71612 2.08717 0.904551 1.06385 0.508299 
353 1 4.34589 6.61663 4.77267 -0.396209 -0.104892 0.169648 
354 1 3.15657 1.32331 3.12158 1.30399 0.478995 -0.100631 
355 1 5.50181 7.69577 3.64584 -0.241625 0.0879376 -0.177193 
356 1 8.51144 9.22549 2.96556 -0.61205 0.427886 -0.682929 
357 1 3.47073 1.08308 4.69624 -0.257206 0.181336 -0.644002 
358 1 2.05262 3.52896 6.74948 0.896357 0.497909 -2.08487 
359 1 7.88711 8.7546 3.51492 0.0538526 -0.67012 0.396009 
360 1 1.5705 7.10435 2.88281 -0.882613 0.2391 0.628818 
361 1 0.0156621 9.0029 3.10446 0.125875 -0.186681 0.82873 
362 1 1.24275 9.30062 3.85323 0.0225501 -1.17789 1.11835 
363 1 1.12536 3.56017 6.49966 -0.475205 1.72707 0.644634 
364 1 0.398097 1.5611 1.16715 -0.142636 -1.0506 0.0964381 
365 1 4.77876 2.71661 8.55006 0.229058 -1.00506 -1.86281 
366 1 7.95121 6.6684 2.15497 -1.06913 -0.318155 0.131054 
367 1 0.444638 1.5687 6.27399 -1.13575 0.770875 -0.0612627 
368 1 1.42188 5.5926 9.00569 -0.995149 1.25855 -0.426574 
369 1 1.00318 3.91663 9.05434 0.351604 -1.10514 0.237817 
370 1 0.0944549 5.22286 6.57141 0.0696823 0.493377 0.377167 
371 1 2.90897 6.80281 6.89939 -0.573711 -0.0170797 0.327332 
372 1 6.73077 3.18211 4.48758 0.301639 0.134557 0.716538 
373 1 8.87042 3.13556 7.05901 0.587645 -0.543916 0.530364 
374 1 8.43918 0.765781 2.91163 0.229083 -0.37559 -0.849171 
375 1 7.46394 4.25549 2.86206 0.80912 -0.449971 0.820621 
376 1 4.14819 9.16308 5.22491 0.53965 0.174333 1.33545 
377 1 7.99454 1.31522 3.52594 -1.57869 -0.509749 0.491427 
378 1 7.65151 0.0157196 6.73432 -0.0784178 1.53207 0.404463 
379 1 0.0153941 3.43579 3.94219 -0.176762 0.39837 0.277104 
380 1 0.184136 7.00948 5.69211 0.143864 -0.485476 0.0848463 
381 1 3.89276 7.68484 3.52182 -1.6336 0.676933 0.29638 
382 1 1.01906 3.51884 8.15316 -0.476818 -0.343268 0.76654 
383 1 6.65579 6.43247 3.90397 0.611988 -0.581877 0.216985 
384 1 3.25972 6.68507 5.98787 -0.183027 1.07613 0.107111 
385 1 9.0478 7.05637 4.32558 0.0183652 -0.242762 -0.378197 
386 1 8.07505 1.29834 5.63282 1.37686 0.0895929 -0.187118 
387 1 7.01507 6.74031 2.28618 -1.67929 -0.218797 -0.0275585 
388 1 4.91365 0.790419 6.66327 0.437754 0.132428 0.555254 
389 1 6.19489 8.24558 4.15524 0.538134 0.331472 -0.430258 
390 1 0.359895 4.34729 4.06276 -0.988421 -1.17583 -1.08352 
391 1 1.22061 0.953917 6.11643 -0.635044 0.365709 0.747189 
392 1 2.28474 6.70573 6.02089 2.16288 -0.422735 -0.700655 
393 1 5.71994 5.04926 8.19593 -1.0734 -0.348513 -0.190997 
394 1 4.67179 1.13907 5.77795 -0.411785 0.24992 -0.0504199 
395 1 5.16418 2.66319 4.38741 1.14041 0.310678 -1.09777 
396 1 3.91319 4.45638 2.49455 0.824475 -0.0958209 0.370769 
397 1 0.639833 4.06841 2.46894 -0.537146 0.820779 -0.41798 
398 1 4.38248 7.0731 2.36064 -0.434223 -1.37772 -0.24908 
399 1 6.39482 0.0696192 6.43409 -0.924639 -1.69753 -0.909594 
400 1 4.00789 5.68889 4.81454 -0.756955 0.202478 -0.530639 
401 1 1.64262 3.63815 4.70178 1.86037 -0.0980247 -0.473961 
402 1 8.19379 0.603878 4.94579 -0.445941 0.00348702 1.13424 
403 1 5.70408 3.16837 8.88911 -1.11891 -1.30405 0.271109 
404 1 4.16498 4.73123 7.47789 0.989985 0.134076 0.0763536 
405 1 4.0349 8.0017 2.6149 0.848093 -0.0941754 1.33606 
406 1 0.937478 3.50817 4.07533 0.351424 -0.919237 0.00136296 
407 1 4.74389 7.55961 3.10413 -0.924093 0.568743 -0.71624 
408 1 6.61968 5.88997 6.03051 2.32373 0.864738 -1.12697 
409 1 7.97551 3.31612 7.40124 0.144695 -0.959057 -1.44644 
410 1 9.15491 2.54495 3.96737 0.171464 -0.888849 0.179423 
411 1 6.15803 6.21766 6.7715 -0.0615127 -0.369196 -1.27334 
412 1 9.14245 6.37314 1.19174 -0.483283 -2.33148 -0.830188 
413 1 4.62976 2.09125 5.874 1.55945 1.10498 -0.994451 
414 1 2.61768 4.29213 9.05644 -0.999422 0.511845 -0.0108273 
415 1 8.06417 4.24729 4.6267 1.61695 -0.986256 0.468698 
416 1 5.90172 1.05189 4.57716 -1.17436 0.0374808 0.343517 
417 1 5.86522 9.22422 2.48301 -0.270431 1.19857 -0.957779 
418 1 0.630308 2.19324 4.8632 -0.600915 0.198886 0.558511 
419 1 9.02022 0.456893 0.301165 -0.713909 -0.616226 -0.847812 
420 1 1.37392 3.82261 1.86162 -0.0498997 0.763327 1.51146 
421 1 6.33846 2.754 8.1375 0.847041 0.559469 -0.730755 
422 1 3.8891 6.87591 6.71221 -0.422901 0.426521 0.94874 
423 1 8.5268 3.83684 5.36341 0.401769 0.983448 0.4274 
424 1 1.61376 1.02885 5.20845 -0.0257964 -0.682448 -0.00791358 
425 1 1.27151 4.43132 8.18988 -1.06878 0.996631 0.579425 
426 1 3.44952 2.4957 3.90238 -0.344473 -0.262868 -0.203772 
427 1 0.515276 5.88776 3.52083 -0.347653 -0.444862 0.153953 
428 1 3.42364 6.42525 4.99192 -0.920582 -1.13497 -0.557606 
429 1 8.73138 5.81024 6.58468 -0.560051 1.3165 0.892544 
430 1 3.57895 1.85644 6.23413 -0.611715 -0.327138 -1.24867 
431 1 2.91168 5.32631 8.26031 -0.620664 -0.727278 -0.613345 
432 1 1.82561 3.52953 1.06167 1.76306 0.149838 1.22847 
433 1 3.07596 7.94995 5.47675 0.289152 -0.409346 1.40279 
434 1 7.77416 3.39066 6.3856 -0.64744 1.05991 -0.414591 
435 1 5.09227 6.6433 2.85583 -2.19842 -0.28604 0.4462 
436 1 2.52563 9.02307 1.77821 -0.154326 0.189308 -1.95533 
437 1 8.47066 8.95713 6.32734 0.0948469 -0.108556 0.0350464 
438 1 3.153 1.33009 5.55692 1.36988 0.457587 0.286308 
439 1 5.96505 3.08102 5.98178 0.71169 -0.541553 -1.25474 
440 1 7.92919 4.22684 7.78234 0.00821313 -0.791925 -1.63138 
441 1 5.54079 3.05426 7.01242 0.665529 -0.0631202 0.214958 
442 1 3.98403 3.36707 5.1067 1.59264 0.478863 -0.0268137 
443 1 5.6198 5.83861 8.70605 -0.697889 0.159139 0.272572 
444 1 7.15743 2.7028 0.379063 -0.678849 0.698719 -0.332283 
445 1 7.3656 1.65618 6.97957 0.0215481 -0.176046 -0.257342 
446 1 2.16685 4.5752 4.43798 0.487233 -0.384448 -0.546833 
447 1 4.04219 3.24589 4.15726 -1.2322 -0.667262 0.352648 
448 1 8.22703 0.94714 0.478133 -0.395507 -0.113029 1.0553 
449 1 6.28551 1.74325 8.11462 -0.0170701 -0.110513 1.2081 
450 1 4.25495 3.51757 2.43419 0.204686 0.811542 0.406678 
451 1 0.284985 2.38995 5.79626 0.938939 0.450738 0.136976 
452 1 1.84471 5.6292 0.463111 0.158199 -0.430952 -1.09825 
453 1 7.3989 4.92757 6.30517 0.447859 -0.663687 -0.536843 
454 1 8.85028 6.41811 2.37129 -1.5551 0.45745 -0.489555 
455 1 7.84901 2.42769 2.06351 0.574122 -1.29808 0.0162503 
456 1 1.65762 2.04225 8.43566 0.341881 1.39331 -0.397072 
457 1 4.60675 6.90704 0.508411 -0.0392389 -1.21315 0.213659 
458 1 3.70218 6.97204 4.18178 0.38986 -1.2893 0.496251 
459 1 7.16078 2.6118 2.70874 -0.68399 -0.645145 -1.18009 
460 1 7.62955 2.24081 1.14252 -0.63673 0.829076 0.0473824 
461 1 8.1522 3.01951 5.52093 -0.304678 0.732425 -0.0125342 
462 1 7.01583 1.85284 3.68607 1.00653 1.57414 1.25224 
463 1 0.423165 0.897918 3.88598 0.271095 1.31331 -1.23163 
464 1 7.82135 8.11373 4.23174 -0.406987 -0.265243 -0.834184 
465 1 0.465996 5.29911 4.27316 0.311257 0.0286044 -0.531265 
466 1 0.716011 1.7116 8.66646 -0.71803 0.490291 0.0380889 
467 1 2.28085 1.12707 3.43341 -1.21391 -0.191929 -0.799947 
468 1 3.79397 6.31049 2.58168 0.303883 -0.0846544 -0.00844618 
469 1 9.1023 3.06515 5.48986 0.130965 -0.216664 -0.806845 
470 1 2.01737 7.55799 5.54745 0.138067 -0.443069 0.578414 
471 1 8.47177 3.48961 1.00742 -0.588946 -0.129758 -0.303701 
472 1 0.702939 5.49512 0.273613 0.00889537 -0.27478 0.063292 
473 1 2.58439 6.88815 2.91283 0.757891 -0.236419 -0.481799 
474 1 2.09287 0.175516 3.59683 -0.466679 0.140603 -0.645769 
475 1 2.92332 1.18406 6.49628 -0.200586 -0.0389584 0.39188 
476 1 8.65945 2.18004 9.38732 -0.478596 -0.0684606 -0.670409 
477 1 5.77158 7.04744 6.55314 -1.80154 1.42423 0.181474 
478 1 7.57777 2.40721 4.22913 -0.797609 -0.560029 1.80702 
479 1 3.65567 1.24008 7.12912 -1.74265 0.871849 0.764912 
480 1 4.64104 2.88746 7.58567 0.27011 -0.591731 -0.266664 
481 1 5.49632 7.06482 4.3498 -0.374562 -0.065869 1.29553 
482 1 4.98608 5.24359 2.48309 -1.48462 -0.70469 -1.13678 
483 1 9.26855 3.50826 2.33588 0.123135 -1.00522 -1.12697 
484 1 8.17004 0.261346 3.73311 0.345136 -2.26259 -0.127244 
485 1 2.02614 7.25463 6.7705 1.02959 -0.109411 -2.43794 
486 1 4.05581 5.65082 9.03959 -1.44344 -0.961715 -1.49511 
487 1 7.7498 1.94185 0.199318 0.772129 0.643492 -1.16559 
488 1 4.30435 5.1314 5.56452 1.02184 0.60342 0.59402 
489 1 8.14246 5.51896 7.70985 -0.973242 0.110793 1.30165 
490 1 0.902122 8.4809 4.11926 0.0678352 -1.13709 0.0656318 
491 1 7.42033 5.05139 8.25139 0.377221 0.10828 0.666411 
492 1 4.8495 2.83572 5.27517 -0.658943 0.451942 0.568007 
493 1 7.34353 2.82644 5.08687 1.4283 1.0088 -0.495374 
494 1 5.71549 7.61749 1.74383 0.128502 0.0164312 -0.487938 
495 1 8.69384 2.83103 7.92225 0.53133 1.66107 -0.421055 
496 1 8.16047 6.41703 1.24614 0.767345 -0.519216 -0.232638 
497 1 8.8408 0.0303438 4.52597 -0.454731 0.445576 0.16482 
498 1 4.65724 8.18244 3.83761 -0.653535 -0.33321 0.818818 
499 1 5.42783 1.45364 7.25263 0.122058 0.0727205 -0.966115 
500 1 8.2989 2.33165 7.21482 -0.299932 -0.149038 -0.430575 
501 1 4.70459 8.62417 6.22616 -0.0802634 -1.10478 1.40174 
502 1 5.54586 1.38341 1.97413 -0.0553951 -0.249046 -0.230016 
503 1 6.49664 4.56323 8.53087 -0.0542037 -1.2071 -1.39058 
504 1 6.91417 5.34155 5.30583 -0.869657 -0.256046 -0.847264 
505 1 3.89699 5.11894 6.6041 -0.70871 0.0291536 -0.175537 
506 1 6.56159 5.74448 4.52759 -0.0955585 -0.726582 0.581873 
507 1 0.160179 2.66416 7.4787 -0.528288 1.38438 -1.23821 