ITEM: TIMESTEP
2508
ITEM: NUMBER OF ATOMS
1000
ITEM: BOX BOUNDS pp pp pp
0.0000000000000000e+00 9.4000000000000004e+00
0.0000000000000000e+00 9.4000000000000004e+00
0.0000000000000000e+00 9.4000000000000004e+00
ITEM: ATOMS id type x y z vx vy vz 
1 1 1.54509 4.03155 2.89707 0.937105 -0.58958 1.12971 
2 1 8.65894 0.405267 6.29703 -0.901637 1.51647 -0.122405 
3 1 7.3388 2.90887 4.86463 1.74044 0.223598 0.286268 
4 1 5.1463 4.89263 7.27249 -0.475151 0.636298 -0.105111 
5 1 8.88628 8.60177 2.79033 -0.68279 -0.589956 0.277692 
6 1 3.06913 3.83005 0.525721 -0.655042 -0.173234 -0.248054 
7 1 0.857591 0.104318 2.65318 1.14865 1.03248 0.914029 
8 1 0.255984 2.19697 6.28581 0.770845 0.248629 -0.95356 
9 1 3.76174 6.45123 5.35358 0.587842 1.41724 0.581197 
10 1 1.15124 6.09302 4.37125 -0.430133 0.877666 -0.630513 
11 1 1.22457 3.88061 1.03617 0.212265 -0.181595 1.86089 
12 1 5.59745 3.49814 1.05127 -1.06812 0.0533234 1.46549 
13 1 5.03404 4.2764 6.54191 0.758765 0.596937 -0.104951 
14 1 1.03266 7.5278 1.0213 -0.573054 1.16257 -1.5853 
15 1 4.86768 4.12086 1.12917 -0.858914 0.190465 -0.376839 
16 1 2.59259 4.98179 2.68979 0.611664 0.428288 -0.813613 
17 1 0.77025 6.67009 0.552808 -0.341265 0.515841 -2.01344 
18 1 5.67251 5.55596 6.8573 -0.500764 0.0740925 -0.0268478 
19 1 9.26114 8.76501 1.14747 0.609668 0.853733 -0.452636 
20 1 4.10851 3.7285 3.40276 0.723371 -1.19837 0.833033 
21 1 4.1734 8.53391 5.9372 -0.473828 0.956359 1.11939 
22 1 6.11868 6.76586 6.50293 0.521127 -1.50845 0.236314 
23 1 1.91965 3.2704 2.40294 -0.270303 -0.0604651 -0.151932 
24 1 0.437773 2.61899 2.28593 1.01755 1.15061 0.174646 
25 1 2.7898 9.29092 8.13708 0.264324 -2.17124 0.704733 
26 1 4.816 6.93521 7.04433 0.605028 -0.907665 0.865818 
27 1 3.09703 7.90503 8.96756 0.864481 -0.134769 0.0581462 
28 1 1.88234 6.59192 4.02369 0.434795 1.44237 -1.63824 
29 1 5.03605 3.44989 5.08469 -0.104188 0.10118 0.526209 
30 1 6.89826 2.27983 7.38335 -0.404027 -0.0852053 -0.828215 
31 1 8.27668 4.0615 4.85285 0.749821 -0.167119 -0.0112097 
32 1 0.41863 9.11007 5.3603 -1.43124 1.04949 -0.0663082 
33 1 1.58163 8.24972 1.64945 0.398854 -0.358286 -0.298108 
34 1 8.53525 6.86727 2.4385 0.675743 0.810898 -1.72055 
35 1 0.0460893 3.11216 1.56972 0.46037 -0.468102 -0.139217 
36 1 4.31416 6.00679 8.48389 1.11088 -0.0528642 0.559512 
37 1 7.80248 2.18926 6.88949 -0.72304 -0.372078 0.337868 
38 1 8.06841 1.31121 1.59472 -0.454982 0.72047 -0.575709 
39 1 0.520975 1.304 5.05057 0.534328 1.04793 0.191913 
40 1 7.0822 2.11406 5.31818 0.109174 -0.278435 -0.819398 
41 1 6.19197 2.04394 2.70915 -0.20357 0.735321 0.357788 
42 1 2.9595 8.81981 7.26783 0.213721 -0.0777851 0.470224 
43 1 4.76844 0.748292 5.90958 1.12795 -1.26554 -0.597371 
44 1 6.39044 8.32681 9.02909 -0.218913 0.218838 -0.878844 
45 1 2.42205 3.84647 4.15851 -0.423939 0.601583 0.325059 
46 1 7.46442 1.54283 7.51962 1.33791 -0.691885 0.905318 
47 1 6.51256 4.28405 7.95502 -0.396707 -0.511897 0.242922 
48 1 3.29849 0.438906 7.32983 0.529959 0.887725 -0.830705 
49 1 2.29607 2.44651 2.6353 0.599856 -0.803426 0.558529 
50 1 8.94809 3.56839 5.338 1.31257 0.190793 -1.29724 
51 1 1.55443 6.24137 0.22037 -0.65108 -0.591546 -0.75413 
52 1 4.27247 9.06 9.277 0.331776 0.370252 -1.02247 
53 1 2.55573 0.865055 0.361363 -0.211827 -1.06154 -0.382894 
54 1 9.39568 8.93938 6.17606 0.27728 0.210214 0.0943145 
55 1 6.55591 7.56708 6.82246 -1.10169 0.892843 0.867558 
56 1 7.41285 1.25541 5.56646 0.95094 -0.271977 1.56815 
57 1 1.34049 2.56805 2.79693 -1.20223 -0.664105 1.14728 
58 1 1.73078 1.6482 2.78861 0.171357 -1.38249 -0.569476 
59 1 9.16834 1.21976 6.45677 0.0912181 -0.35667 0.495607 
60 1 2.20265 5.07814 9.11767 2.24172 -0.440065 0.105995 
61 1 4.91098 5.02193 4.90358 -0.0516239 0.852534 -0.914872 
62 1 7.71764 0.268508 8.00358 1.44536 0.123778 0.33862 
63 1 8.13529 2.26981 2.99868 -0.545222 2.05968 -0.450754 
64 1 3.25483 4.40416 2.17544 1.91762 0.866866 -0.923211 
65 1 3.31541 1.35872 1.70689 0.153639 0.950214 -0.538652 
66 1 9.31172 4.38178 2.59867 1.08279 -0.00133207 0.759743 
67 1 7.03277 8.43254 7.05338 0.394205 0.198597 -0.752925 
68 1 0.512373 3.93681 1.8297 0.974779 -0.0177068 -0.137403 
69 1 8.2701 0.343313 3.59642 1.36213 0.306656 0.933304 
70 1 3.55026 5.97758 7.81177 -0.393056 0.223564 -0.471928 
71 1 2.55672 9.23315 0.398378 0.531009 -1.61118 0.901679 
72 1 0.25803 9.19513 9.0016 0.797582 0.241652 -0.056165 
73 1 8.56052 1.68924 2.30638 -0.490898 -1.39402 0.139852 
74 1 6.0967 3.56022 3.43131 0.619545 -0.894354 0.343784 
75 1 3.30522 1.76071 9.22917 -0.0469711 -1.0797 0.227769 
76 1 5.43639 7.96247 9.20848 0.435305 -0.601466 -0.249907 
77 1 7.10454 5.01309 0.271977 1.19025 0.934345 -0.0284411 
78 1 8.52276 7.41284 7.12334 -0.251375 -0.22926 0.0705861 
79 1 2.91623 5.48373 0.174765 -0.92576 0.69869 0.767579 
80 1 1.77566 7.66687 7.86352 0.481963 -1.59465 -0.712956 
81 1 9.25153 1.89484 5.45987 -0.880755 -1.24596 -0.6868 
82 1 2.56074 3.6801 8.3129 -1.09685 0.608891 0.0301344 
83 1 6.5643 8.33025 6.22858 0.3257 -0.525268 0.519186 
84 1 6.44701 5.10935 4.67656 0.877221 0.142714 -1.08745 
85 1 1.28727 3.28624 3.4786 0.0528972 -1.27366 -0.208754 
86 1 0.373704 2.19993 4.63717 0.249641 -0.205427 0.817065 
87 1 3.64516 3.11269 0.87775 0.0635828 0.760573 0.182705 
88 1 4.06066 3.15209 5.94909 0.272451 0.43795 0.118398 
89 1 3.96481 1.65322 1.04073 -0.0332283 -0.110935 -1.51745 
90 1 1.23802 5.83657 2.02123 -0.488432 0.606665 -0.960213 
91 1 7.02341 9.32903 7.32917 1.25448 -0.812762 0.722101 
92 1 3.82349 4.92311 4.58608 0.680771 0.176751 1.28203 
93 1 4.37515 4.30866 7.24693 0.503662 0.56028 0.929719 
94 1 3.20567 6.26509 1.39423 -0.462747 -0.210648 0.750592 
95 1 9.20816 1.03527 7.53152 0.317962 -0.901215 0.584422 
96 1 6.71525 1.77069 3.73498 0.492547 -0.0531603 0.16563 
97 1 0.161606 8.3482 6.89633 -0.0674821 0.600504 2.28792 
98 1 4.79697 4.74117 0.371181 -1.46472 -0.135986 -1.64012 
99 1 4.91604 4.45641 2.12866 1.02587 0.304823 0.715552 
100 1 4.93345 8.57154 0.43646 0.108103 0.302019 1.09486 
101 1 3.26155 2.34324 1.33473 -1.5442 0.79787 -0.435458 
102 1 4.10433 6.1012 6.95451 0.184057 0.765032 -0.0951527 
103 1 8.55391 2.9638 7.20926 -0.276825 -0.556718 0.344016 
104 1 7.5045 8.67311 7.86293 -0.528336 0.572523 0.382581 
105 1 6.85417 4.11241 3.69965 -0.486438 0.308462 -0.134267 
106 1 4.06522 7.74278 0.646264 0.361153 -0.0271034 -1.19659 
107 1 5.66764 5.80893 8.72822 0.871882 0.31232 -0.954189 
108 1 0.525349 3.27531 0.764305 0.105335 -0.784726 -0.0666034 
109 1 4.49351 2.56258 7.39927 0.0963626 -0.384127 -0.0400171 
110 1 6.39263 5.09837 7.38169 0.300366 -0.895354 0.40163 
111 1 6.34532 3.24365 0.416562 -0.524139 -0.0767096 -0.25668 
112 1 7.89562 4.49388 6.69306 0.365167 0.792379 -0.0499846 
113 1 4.19095 4.49924 2.74698 1.49637 1.12743 -0.599861 
114 1 5.64457 2.92583 5.67621 -0.74022 -0.441055 0.212779 
115 1 0.573966 3.8685 3.0955 -1.0171 1.59847 -0.908703 
116 1 8.19439 8.23517 8.84987 -0.466899 1.25162 -0.266199 
117 1 1.6499 0.0765154 6.78808 -0.574314 1.4357 -1.19764 
118 1 3.58969 2.03163 3.40631 -0.302701 0.539782 -0.215058 
119 1 5.21768 7.30077 7.85297 0.969254 0.453104 1.5377 
120 1 2.47431 2.9173 4.16703 -0.848235 -0.371144 -0.857557 
121 1 7.53834 2.08478 1.31321 -0.823716 -0.555295 -0.358702 
122 1 7.00236 3.24139 3.37984 -0.363191 0.927625 -0.012216 
123 1 6.3972 7.19349 5.11726 0.730406 -0.488527 2.2097 
124 1 6.84817 5.0483 3.81289 1.09225 -0.190093 0.488133 
125 1 5.36957 2.12554 6.12554 -0.703686 -0.135516 1.36934 
126 1 4.00339 2.9342 3.92225 -2.04817 0.0591151 0.375904 
127 1 5.13935 4.4695 8.89846 1.98777 -0.709009 0.306829 
128 1 7.09554 6.79298 6.56151 0.862375 0.802596 -0.643471 
129 1 -0.010736 7.40912 7.70352 0.109039 -0.31839 0.279158 
130 1 2.98547 1.41594 4.74641 -0.702657 -1.16891 -0.521159 
131 1 3.98768 5.73812 6.03491 -0.640619 -0.588857 0.978608 
132 1 8.96381 5.65826 1.56351 1.04668 -0.457315 0.191027 
133 1 1.50385 3.45957 4.41909 0.191993 -0.164556 0.62046 
134 1 0.104433 6.97632 2.18914 -0.4776 0.39075 0.735353 
135 1 1.05515 2.29337 3.72848 -1.03628 -0.557521 0.819765 
136 1 6.49578 2.26545 4.56215 -0.299587 -0.570115 0.666387 
137 1 8.03059 0.427536 0.218302 0.376762 -0.0302722 -1.16705 
138 1 3.6926 5.97817 4.4197 -0.0411796 0.358712 1.54418 
139 1 5.94423 3.51095 8.03918 -0.630611 -1.16807 0.33268 
140 1 2.06857 3.63946 0.507116 -0.0667681 -0.288346 -0.292616 
141 1 7.08741 6.37436 4.92206 -0.658181 -0.220453 -0.986119 
142 1 2.29987 6.89135 0.342695 1.11943 0.134171 0.580519 
143 1 4.25894 3.74308 8.58292 0.109544 -0.599174 -0.251777 
144 1 5.19934 3.53801 8.74407 -0.150585 -0.510522 -0.580316 
145 1 0.67358 9.1746 8.16492 -1.27848 -0.423196 -0.643692 
146 1 4.68547 0.783684 4.97479 -1.09984 0.471646 0.954749 
147 1 7.46414 3.16453 8.45191 -0.645028 0.230914 0.422969 
148 1 0.588071 7.08613 4.96529 0.0803892 0.981716 0.107032 
149 1 7.18763 4.68967 2.93932 -1.22076 -0.0610627 -0.804484 
150 1 4.09113 0.813872 6.90212 -0.00654779 -0.821438 -0.227066 
151 1 7.83571 9.2078 6.85366 0.450207 0.08897 -0.786968 
152 1 4.03441 3.49471 7.65189 0.558072 -0.209508 2.0957 
153 1 8.04339 5.95287 6.43503 0.0837599 -0.576341 -1.03359 
154 1 6.82445 9.3635 8.28452 -0.189784 0.42548 -0.699915 
155 1 2.74484 7.9613 4.72551 0.376497 -0.0785712 -1.59964 
156 1 1.82784 7.35173 1.78499 -1.27526 -0.461743 0.468486 
157 1 6.5651 3.25099 4.29144 -0.547179 0.529264 -1.31801 
158 1 2.39255 6.14386 9.14411 1.03956 -0.220616 -0.758105 
159 1 6.50623 1.35542 6.16123 -0.846407 -0.019565 0.143031 
160 1 2.65395 3.67627 5.63588 -0.268706 -0.727872 -0.683835 
161 1 8.57124 0.869004 0.853595 0.254628 0.141021 0.710529 
162 1 2.59235 1.28157 8.78541 0.696932 1.82513 -0.601634 
163 1 5.17635 5.97277 4.77871 -0.436065 0.868036 0.297829 
164 1 9.08327 1.31749 4.60844 -0.0773426 0.202747 0.212314 
165 1 4.75053 2.63094 5.5263 1.33255 0.299964 0.817936 
166 1 7.347 5.6046 8.71406 -2.16458 -0.939756 -0.593222 
167 1 2.81861 6.61936 2.30346 -0.882642 -0.0711457 -0.314399 
168 1 0.689509 7.71351 1.87421 1.08035 -0.884483 0.22216 
169 1 0.969166 6.46391 3.45902 -0.609917 -0.0689482 -0.407469 
170 1 2.49929 1.1337 2.36641 -1.14125 -0.336431 0.424771 
171 1 1.07089 2.83272 5.00569 -0.929143 0.0151208 -0.377576 
172 1 6.44839 5.23208 6.34041 -0.800237 -1.45949 -0.205663 
173 1 5.66703 4.04738 2.63459 -0.341196 -1.3852 0.344947 
174 1 1.41976 9.18399 1.46217 0.0524195 -0.376322 0.632484 
175 1 6.24939 4.68867 3.02399 -0.0109078 0.47828 0.160093 
176 1 2.61798 4.69483 5.60971 -1.07047 0.479274 -0.290076 
177 1 5.15032 6.4061 8.17136 -0.0432589 -0.630915 -0.357141 
178 1 8.09134 2.92903 6.3784 0.74722 -0.323082 -0.0168512 
179 1 5.68767 4.60551 0.723902 0.211615 -1.05842 0.62518 
180 1 7.49349 3.69605 6.30975 0.797797 0.011442 0.356172 
181 1 2.12974 8.75255 7.70129 -1.15121 -0.928566 -0.186625 
182 1 1.77891 2.45878 1.85278 -0.140962 -0.236848 -0.759636 
183 1 8.75676 7.32909 5.95447 0.996104 0.268586 -0.258989 
184 1 8.18989 1.73602 8.65855 0.765188 -0.555485 0.367771 
185 1 0.775144 4.68175 8.28454 -1.13059 0.642504 0.598099 
186 1 1.32357 5.38253 9.22693 -0.349324 1.45416 -1.7709 
187 1 0.248753 7.01887 1.25165 0.78023 0.884274 -0.396155 
188 1 2.32605 1.62546 5.78413 0.602041 0.144363 -0.471424 
189 1 5.73514 1.32146 8.60052 -0.985002 -1.41274 0.993304 
190 1 8.26633 1.25154 6.07018 0.629032 0.126996 0.478168 
191 1 3.86474 8.51222 8.59034 0.0710058 -0.52069 -0.0635228 
192 1 4.28926 3.46138 1.56693 1.49198 -0.153318 0.171785 
193 1 1.8653 8.98103 5.99815 1.93136 0.811505 0.00498348 
194 1 4.74588 1.5135 6.49411 0.72287 -0.393051 1.64623 
195 1 4.74241 5.46123 6.5875 0.419899 -0.71013 0.168922 
196 1 1.60984 5.15433 8.33966 -0.533603 0.707068 1.15691 
197 1 2.95975 3.39398 2.68386 -0.253063 -0.295962 -1.71611 
198 1 0.877017 4.13979 7.30706 0.344491 -0.912308 -0.886053 
199 1 7.12276 4.72665 5.29656 0.199913 -0.182856 -1.45236 
200 1 6.89515 0.747426 0.208203 -0.0650678 0.0660422 0.317589 
201 1 2.68082 2.91605 1.8973 0.703782 0.120272 -0.0892964 
202 1 1.39931 2.90723 0.699551 -0.162008 0.312643 -0.74047 
203 1 2.05856 1.59571 4.73661 -0.47523 -0.442301 1.16739 
204 1 3.38281 5.4464 7.00106 0.953207 -0.765509 -0.153882 
205 1 8.55619 5.76695 3.13718 0.212029 -0.750286 0.176119 
206 1 4.90645 2.25323 0.655407 1.29511 0.0680327 -0.9024 
207 1 8.91529 7.12618 4.27522 0.287061 1.42638 -1.07676 
208 1 0.927876 0.654131 6.63194 0.24069 0.967645 0.413256 
209 1 6.14393 3.56045 1.98321 0.470829 -0.0505521 -1.06221 
210 1 0.215274 0.72006 2.08943 1.1379 -0.266123 0.709104 
211 1 2.23173 4.74561 4.31217 0.90955 2.1532 -0.725975 
212 1 1.18394 4.35308 4.72638 0.633361 -0.372012 0.716782 
213 1 8.04438 6.91461 6.46754 0.726043 0.654593 0.185651 
214 1 5.68322 1.69067 0.830223 -0.0220656 0.872161 0.835471 
215 1 5.84312 2.59928 0.98562 -0.575733 0.449648 0.790653 
216 1 6.84697 3.65591 8.94947 0.0653326 0.880912 -1.8764 
217 1 1.05188 5.48299 2.88758 -2.26103 -1.01622 0.52346 
218 1 3.88024 5.19541 8.3168 0.993142 0.256705 -0.829378 
219 1 1.78577 9.39151 5.16915 -0.705135 0.971451 0.00498832 
220 1 6.98045 2.17332 6.35504 0.593739 -0.255009 -0.168531 
221 1 8.55348 4.43207 8.39096 0.459443 -0.460602 0.126477 
222 1 4.57497 1.96232 8.89961 -0.799174 -0.319725 0.496263 
223 1 7.29361 9.3926 0.645339 -0.405217 -0.597409 -0.406636 
224 1 0.982433 3.37183 2.42931 -0.542899 -0.191917 -0.302823 
225 1 3.37349 0.818091 9.23349 0.357601 0.36837 -0.160877 
226 1 8.27546 8.97993 5.99983 0.818635 -0.66089 -0.426339 
227 1 1.75263 0.146151 -0.00490496 -0.869459 -0.448649 -0.0874926 
228 1 5.01864 5.83967 5.72586 0.22969 -1.404 0.303447 
229 1 1.68898 2.33011 6.32104 -0.848579 0.0282687 1.13156 
230 1 8.59194 2.11882 1.38143 -0.0609931 0.226689 0.124386 
231 1 4.5462 2.8877 2.29037 -0.325621 -0.402922 -0.778652 
232 1 1.19736 8.63267 3.01953 -0.138448 -1.11928 0.539943 
233 1 2.02645 6.39684 1.82041 -0.367529 0.319851 -0.543139 
234 1 0.310999 5.34646 1.13468 -1.41759 0.78715 -0.26699 
235 1 3.81755 7.32219 9.21101 0.862732 0.321684 0.123051 
236 1 8.07163 3.78884 8.8964 0.410637 1.36669 -0.388805 
237 1 6.7479 0.540865 5.7029 -0.629995 -0.956875 1.13709 
238 1 2.39996 4.61292 8.31819 -2.40853 0.936917 0.78709 
239 1 7.83004 2.09787 5.90832 -0.873263 1.0215 0.384113 
240 1 0.444951 5.31015 8.93153 0.714868 0.470016 -0.438417 
241 1 6.11674 7.46929 7.68148 -0.150302 -0.601861 1.48744 
242 1 7.6878 2.80341 7.6218 0.124607 -0.738539 0.705528 
243 1 4.35072 7.55334 7.61737 -1.04653 1.41524 -0.793473 
244 1 8.23581 5.96716 2.10419 0.189787 0.824926 -1.1281 
245 1 2.19807 2.19646 1.00175 0.8557 0.730271 -0.515848 
246 1 9.35968 6.77332 0.0554159 0.208253 0.936049 1.87114 
247 1 6.48879 5.98937 6.95573 0.0402341 0.0107489 -0.446325 
248 1 2.35712 1.75503 6.7453 0.261733 0.523613 -0.109112 
249 1 1.39116 7.90619 8.86466 0.883408 -0.426101 0.677652 
250 1 6.69152 3.87428 2.73224 -0.217623 0.902163 -0.718381 
251 1 1.633 4.32934 7.83616 0.790479 0.362553 -1.97027 
252 1 4.07781 4.37342 1.72719 -0.281 0.260809 0.128352 
253 1 7.83704 3.6413 7.16712 0.089021 -0.827081 -0.958238 
254 1 5.08683 8.77156 8.88773 -0.4009 -0.880121 0.457207 
255 1 7.9194 3.22714 3.22709 -0.717251 -0.228053 -0.619438 
256 1 9.06373 3.02905 6.20696 0.13168 -1.01662 -0.122298 
257 1 0.945529 8.37066 6.33771 -2.04451 0.504936 -0.707069 
258 1 8.03946 7.80543 7.92784 -1.18993 -0.435183 -0.690798 
259 1 8.23433 8.99128 4.96785 0.691609 0.275028 -1.25085 
260 1 0.788539 7.1911 2.80873 0.146923 0.9882 0.721256 
261 1 5.59647 0.750915 0.654519 1.27391 0.38153 -0.55088 
262 1 8.63992 2.23179 0.0251606 1.20573 -0.319583 1.82587 
263 1 2.72607 8.2869 0.508574 -1.28448 1.03896 -0.718258 
264 1 2.53779 4.81245 1.75507 -0.514714 0.792439 -0.756955 
265 1 5.19418 3.56819 1.90654 -0.0353442 -0.0473128 2.43327 
266 1 5.57679 2.06744 4.19494 0.0877665 0.548986 -0.542652 
267 1 3.57809 3.78162 5.40771 -0.339274 -0.352992 -0.954271 
268 1 7.41396 6.1309 7.16695 -1.95526 -1.06991 1.06777 
269 1 5.95688 9.06388 8.6009 0.664142 -0.400165 -0.139408 
270 1 2.44078 5.63235 5.47161 -0.254927 -0.630376 0.0548768 
271 1 0.354881 8.33443 7.8342 -0.569429 0.586831 -0.992435 
272 1 2.50997 2.61203 5.85288 -0.0926901 1.10263 -0.227284 
273 1 2.24611 7.34353 2.65379 -1.25648 0.163915 0.0947191 
274 1 2.95352 5.87229 2.96141 -0.565912 -0.219227 0.600169 
275 1 2.52144 5.29438 3.59848 0.433791 -1.20185 -0.761335 
276 1 1.19377 5.91344 1.08026 1.40633 -0.473629 0.68052 
277 1 3.19231 5.22512 6.1168 -0.17857 0.182336 -0.823896 
278 1 0.0232799 7.41365 6.74101 0.843438 0.00910842 -1.14946 
279 1 5.66533 1.31451 7.64134 0.112931 -0.430836 1.24042 
280 1 0.224373 7.03041 5.83397 0.0496991 0.957105 1.3695 
281 1 1.06294 0.606646 0.941666 1.42569 -0.604205 0.0417094 
282 1 2.22266 3.35415 3.32005 0.301886 -0.620628 0.943999 
283 1 2.61616 7.53277 5.92458 1.57879 -0.763673 1.07906 
284 1 2.45308 0.804862 3.27652 0.60334 0.447312 0.756084 
285 1 8.0633 0.31642 1.47989 0.454569 0.471281 -2.37989 
286 1 4.9556 5.99001 7.34997 -0.088561 -0.155185 -0.337418 
287 1 3.65002 5.73839 0.721652 1.31897 0.166761 0.953425 
288 1 1.94214 9.17252 3.30039 -0.641195 0.330958 0.855621 
289 1 4.00788 2.32102 0.328038 -0.660084 -1.98065 -0.11497 
290 1 7.33993 4.38697 1.05967 1.59531 -0.783809 0.59096 
291 1 9.32752 4.40871 3.57533 0.200455 0.536525 1.85913 
292 1 7.0843 1.33788 1.69164 -0.433151 0.0229874 -0.256643 
293 1 3.38999 5.55524 5.26342 -0.417631 -0.337419 0.973441 
294 1 0.0850513 5.29831 5.46227 -0.720833 -0.00309709 -1.11452 
295 1 5.49046 7.12402 8.75 0.0726893 0.442116 0.338472 
296 1 1.75894 8.54014 6.86854 -0.509737 -0.65749 1.78632 
297 1 9.08661 5.28985 8.41241 0.953008 -0.14459 -0.501554 
298 1 2.33997 6.15934 0.916544 0.561511 1.8612 0.375541 
299 1 3.18513 3.49278 3.69415 0.77774 0.0106745 -0.0384199 
300 1 2.40824 0.797291 6.54911 -0.791768 0.545171 -0.684282 
301 1 1.88679 7.55593 6.8602 -0.428077 -0.00186433 0.677219 
302 1 6.61428 1.60366 8.08394 1.64277 0.333167 1.07748 
303 1 5.8281 3.77744 6.17491 0.952999 0.443505 -0.880732 
304 1 1.22921 2.0557 1.17111 -0.440532 -0.255272 -1.05265 
305 1 0.920477 7.85346 3.54951 -0.337076 -0.215091 -2.52216 
306 1 3.86675 1.29855 8.59364 0.547903 0.309953 0.657267 
307 1 4.56302 4.56512 8.13253 -0.844772 -1.15167 -0.196161 
308 1 0.603216 1.96567 2.98009 1.08714 1.24634 0.133625 
309 1 6.54881 1.42196 7.12618 -0.730941 0.790623 -0.161611 
310 1 2.56582 7.24496 3.66608 0.976359 1.73369 0.867968 
311 1 7.18624 2.98209 6.82458 -0.236172 -0.427658 0.216517 
312 1 1.02423 7.66308 5.5612 0.32404 -0.0653455 -0.871613 
313 1 7.8051 4.16836 3.48595 0.0661456 0.261078 0.516448 
314 1 3.46034 0.843112 0.80013 0.24443 -0.761748 -0.0945992 
315 1 5.40669 9.19308 7.08777 0.690636 0.525253 -0.859729 
316 1 4.77285 8.03938 8.33177 -0.72847 -0.439106 0.431089 
317 1 8.24748 5.42826 4.31993 0.446191 -0.36666 1.3033 
318 1 2.33146 6.6389 5.49092 0.623147 1.26899 1.17448 
319 1 1.77013 4.36696 6.90477 0.045082 -1.08852 -0.21192 
320 1 8.82175 7.16485 0.743539 0.604219 0.947776 0.307418 
321 1 1.71093 2.44453 4.42834 -0.165505 0.326657 -0.195148 
322 1 8.79103 4.75829 6.6024 -0.351522 -0.382554 -0.627751 
323 1 4.11381 8.9266 0.822876 1.31571 -1.00071 -0.625342 
324 1 5.68769 4.33439 1.61973 0.473124 -0.0675323 0.288906 
325 1 1.15629 3.68298 0.116254 0.93093 -0.723746 -0.480264 
326 1 6.41944 3.96108 1.14922 -0.536041 0.00473655 -0.503476 
327 1 2.42421 8.53767 3.97626 -1.27439 -1.64895 -0.196597 
328 1 7.00121 4.49521 6.26985 0.0820933 -0.375641 0.795838 
329 1 2.84307 5.39579 1.10113 -0.228265 -0.276476 -0.274465 
330 1 0.411533 8.20256 8.77563 -0.29409 -1.04166 -0.667654 
331 1 5.74771 5.35662 5.27651 -0.840997 0.924386 1.18713 
332 1 3.10842 6.40977 0.36624 -1.44896 -0.217321 0.322267 
333 1 7.39365 2.183 8.3092 -0.115915 0.329523 0.977516 
334 1 4.94246 3.73853 7.85939 0.0211684 0.381602 0.355242 
335 1 1.95371 8.08638 3.27728 -0.48359 0.120349 0.606351 
336 1 8.575 4.80712 3.1631 0.136566 -0.140226 1.14806 
337 1 1.78968 8.06103 6.03618 -0.190702 -1.19192 0.574496 
338 1 1.79128 4.62564 1.20845 0.308322 0.792397 -0.07896 
339 1 5.69975 6.62808 7.33395 -1.05632 -0.103926 0.0520708 
340 1 0.140131 0.0819181 3.98572 0.00224716 1.44379 1.33889 
341 1 1.91213 8.50884 4.78932 -0.0919828 0.178137 -1.20239 
342 1 0.621954 1.30681 6.00016 -0.872795 -0.263506 -0.0408797 
343 1 7.66192 1.23663 9.31907 -0.755421 -0.248824 -0.324126 
344 1 0.69524 3.9376 4.02917 -0.503278 0.502761 -0.835728 
345 1 4.66661 3.55738 4.20833 0.831254 0.0119023 0.33492 
346 1 8.26934 2.73399 8.66706 -0.013082 -0.104923 -0.744746 
347 1 8.13739 1.17609 4.37351 -0.505114 0.217944 0.733688 
348 1 0.56469 6.62344 8.09177 -0.290069 -0.0698905 0.0708504 
349 1 3.31326 6.90188 4.29329 -0.246343 -0.204669 0.544326 
350 1 6.99646 3.4969 7.64196 0.606531 -0.133169 0.118318 
351 1 0.86017 7.59866 8.11474 -1.40655 -0.576785 0.387793 
352 1 4.48343 2.8719 8.27339 0.553042 -0.03781 -0.397169 
353 1 5.75359 2.87708 4.71874 -0.285822 1.3633 -0.0157806 
354 1 0.471601 8.09242 2.73156 -0.157316 -0.244196 -0.194212 
355 1 8.47541 6.37739 0.258374 0.169049 -0.627967 -0.832538 
356 1 3.12119 4.5474 3.93034 -0.972232 -0.53308 1.40186 
357 1 2.08379 0.450916 1.8392 0.310416 0.270215 0.169491 
358 1 3.9915 6.38292 9.33262 -0.561127 -0.368288 1.02333 
359 1 2.22481 8.22466 8.49574 -1.24737 0.587896 0.834376 
360 1 7.68055 2.2062 9.32651 -0.756666 -0.336443 -0.262788 
361 1 4.35667 5.37443 3.14944 0.438149 0.023267 -0.123867 
362 1 9.32407 6.49162 7.40164 0.835234 -0.991617 -0.600056 
363 1 3.76267 2.78986 6.85126 -1.06522 0.909374 -1.42924 
364 1 1.91329 4.20049 5.96631 -0.243805 -0.681785 -0.399969 
365 1 8.83042 8.9054 3.73644 0.171936 -0.0930164 -1.03088 
366 1 0.577413 2.35812 0.524851 0.0250714 1.72358 0.213327 
367 1 0.366333 8.50627 0.280663 0.431822 0.260648 0.166191 
368 1 0.236749 4.63401 6.13601 -0.0340908 1.94049 -0.570636 
369 1 2.90101 2.6634 3.34209 0.110821 0.396365 -0.0402038 
370 1 2.65405 5.93113 7.47354 1.14566 0.17334 -1.1984 
371 1 5.51614 0.400017 5.37211 1.15718 0.693229 -0.0766402 
372 1 3.20942 2.22955 2.51083 -1.3194 0.702259 1.13561 
373 1 4.68791 2.96281 3.25374 0.414964 -0.026683 -0.584147 
374 1 8.61792 6.72908 3.39702 -1.1079 -0.46437 -0.385673 
375 1 0.898407 6.12151 7.3548 0.958532 1.20905 0.359444 
376 1 7.42114 4.10544 8.26884 -0.203078 1.08433 1.17951 
377 1 0.154362 0.00684412 0.51184 0.675438 0.0283317 0.628338 
378 1 0.944735 4.80978 1.61372 0.615121 0.3071 0.254681 
379 1 8.61536 1.2704 9.39617 -0.41234 -0.765166 -0.868325 
380 1 3.26732 8.81526 6.09823 -0.681898 0.903814 0.122722 
381 1 8.22621 0.742149 8.72743 0.017686 -0.288446 -0.145905 
382 1 6.5562 2.04012 1.21983 0.361223 -0.520283 0.588531 
383 1 3.52401 5.15832 2.70346 -0.310016 -0.00996722 -0.0263908 
384 1 8.95045 6.61824 6.5406 -0.0471849 -0.441377 -1.05238 
385 1 9.14459 7.5496 5.12064 -0.575507 -0.31149 -0.0443219 
386 1 6.94653 7.47375 5.91173 -1.02175 0.62186 -0.414816 
387 1 8.89604 8.44413 5.46849 -0.915648 -0.0373162 0.824322 
388 1 5.46026 2.08736 5.15623 0.183599 0.60282 1.25223 
389 1 8.24282 9.35641 2.64732 -1.29606 0.677753 -0.393327 
390 1 3.76936 3.27485 9.36434 1.33054 0.153998 0.297344 
391 1 6.67285 9.24383 9.25084 1.28148 0.379666 0.36525 
392 1 3.56112 0.0321302 8.71248 0.54327 -0.53466 -0.242996 
393 1 5.02122 5.39764 8.09682 1.10069 -0.580451 -0.108126 
394 1 2.49505 3.7755 6.62487 -0.696682 0.869126 0.548293 
395 1 0.167108 5.56023 7.61132 0.408737 0.675597 -0.843475 
396 1 1.59191 4.20458 3.83311 0.159219 -0.0623724 -0.312489 
397 1 7.57539 8.39815 6.25334 0.383295 -0.146934 -0.194884 
398 1 7.80745 6.18323 8.03937 -0.43046 -0.584941 -0.108672 
399 1 2.13505 0.661041 8.19159 0.404803 -0.389225 -1.54556 
400 1 4.3788 5.24517 2.16534 -0.145758 0.599628 -1.20502 
401 1 7.64911 0.68941 7.15711 1.01674 0.198824 -0.184493 
402 1 2.60044 2.33321 4.95175 0.134605 -0.319053 -2.10296 
403 1 8.074 4.99103 5.13526 1.78213 0.857703 0.126225 
404 1 4.68264 1.64725 5.55179 -0.0777633 0.912988 1.14108 
405 1 3.76734 2.90402 2.9718 -0.543578 0.257274 -2.67959 
406 1 4.09695 3.17876 4.90402 -1.20907 -1.25634 -0.0936751 
407 1 8.66892 1.74681 3.79879 -0.080913 -0.181999 0.351708 
408 1 2.56029 1.92907 1.85333 -0.559754 -0.928162 0.8307 
409 1 8.3171 7.08167 5.10344 -0.387302 -0.586078 -0.384302 
410 1 1.95676 7.65699 5.19816 -0.330622 0.526859 1.18256 
411 1 2.69651 2.4097 8.83393 -1.24978 1.71598 -0.895827 
412 1 7.8809 5.61539 0.155026 -1.12206 1.24627 0.78631 
413 1 6.27612 2.60738 3.59653 -0.152149 0.589233 0.26101 
414 1 3.99752 4.84149 6.51499 1.40005 -0.493358 0.303347 
415 1 3.38831 4.0529 9.00425 0.0193158 -0.280755 -0.891149 
416 1 8.81191 4.50222 0.974784 0.126691 -0.104697 0.0530621 
417 1 0.0142519 9.21198 2.25998 0.127801 0.4285 0.152527 
418 1 5.23898 9.28895 6.15886 -0.720905 -0.671755 -0.794718 
419 1 2.35386 1.79345 0.132025 1.11862 0.797893 0.51115 
420 1 0.899878 5.26412 4.96416 -0.480906 -1.00335 -0.577306 
421 1 8.66212 0.722599 2.25048 -0.232535 0.68951 -1.87079 
422 1 3.31115 6.9676 7.64452 -1.12279 -0.230034 -0.636991 
423 1 7.19377 5.01307 7.94583 0.719164 0.0473457 -0.97546 
424 1 3.422 7.01864 6.09696 -0.903809 -0.161379 -1.29042 
425 1 2.92879 6.97148 9.02721 1.00363 0.630285 -0.228935 
426 1 1.728 1.30964 0.790604 -0.00275495 -0.24092 -0.728777 
427 1 1.26486 8.18299 0.367583 0.110485 0.263215 0.98134 
428 1 4.6817 3.19383 0.743055 0.582529 0.325036 -0.0691789 
429 1 3.02784 4.36959 4.84309 0.624961 0.214811 -0.228131 
430 1 5.91496 4.95632 9.23737 -0.00993527 -0.924866 -1.40352 
431 1 3.07072 8.37919 8.11424 -0.646704 0.233128 0.590674 
432 1 4.58784 5.71982 0.502357 -0.474364 -0.6946 0.990852 
433 1 2.42438 6.69778 6.46983 0.281024 0.218049 0.149063 
434 1 3.26056 5.90739 8.76483 -0.83829 1.3811 -0.665973 
435 1 6.50239 4.52104 2.05962 1.27353 -0.612935 0.227613 
436 1 4.95137 3.43688 6.0518 -0.42299 -0.25739 -0.521026 
437 1 6.12816 6.61238 8.20324 0.0901854 -1.94407 0.585932 
438 1 0.113175 5.67743 4.56234 -1.04446 -0.839359 1.03304 
439 1 6.63278 0.846577 8.71266 1.47695 -0.806996 -0.0864137 
440 1 2.73161 2.00695 4.04612 0.159356 -0.531463 -0.649188 
441 1 8.2887 2.62539 3.87946 -0.475777 -0.463798 -0.0335471 
442 1 9.35677 8.30956 1.96693 0.283891 -0.209084 1.37059 
443 1 7.66249 5.14627 6.06271 0.769715 -0.445787 -1.1584 
444 1 1.27577 0.431878 8.57521 0.392315 -0.0819281 0.287253 
445 1 0.406253 4.8061 4.2971 -0.269551 -0.0793821 2.07874 
446 1 7.38784 7.33293 4.99218 -0.245699 -0.883842 -1.15838 
447 1 0.128103 1.71993 2.20856 -1.05294 0.179493 0.370781 
448 1 3.40864 4.44901 7.14746 0.675044 0.0150605 0.494445 
449 1 4.43398 8.06875 9.2038 -1.01422 0.0873044 0.369109 
450 1 0.222968 0.451796 5.94774 -1.39324 0.715565 -0.509687 
451 1 7.91562 5.21558 2.60079 -0.269589 -1.04198 -1.55471 
452 1 6.0087 0.557965 7.19154 0.0657251 -0.881048 -0.495493 
453 1 2.41738 0.788207 4.27226 0.73361 -1.02451 0.458121 
454 1 6.12689 2.19032 6.74049 0.641053 0.0550828 -0.35965 
455 1 4.00908 7.27675 4.90226 0.649719 -0.267164 0.669407 
456 1 5.80738 8.8957 0.142404 0.330621 0.647135 0.544347 
457 1 2.86649 0.228287 1.21961 -0.589324 0.81719 1.67383 
458 1 0.868949 5.72096 8.2137 0.798647 -0.633059 -0.968135 
459 1 7.74433 5.82755 5.45632 -0.0197985 -1.18347 -0.307479 
460 1 5.05363 0.629946 6.79569 -0.312923 -1.08947 -0.219288 
461 1 5.55944 1.2107 4.76652 1.16685 -0.505903 -1.11979 
462 1 5.11138 1.98846 8.02569 -0.729492 0.497849 -1.06844 
463 1 8.03333 4.7376 0.503657 1.25198 0.219058 -1.35137 
464 1 2.45445 5.57985 8.34888 -1.44668 -0.33687 1.6604 
465 1 2.07787 3.12232 5.09999 -0.405516 0.114657 0.020168 
466 1 9.17926 1.69755 0.676098 0.617802 -1.5878 0.0217145 
467 1 8.93448 3.88226 1.75661 0.220428 0.312764 -0.439227 
468 1 5.32351 2.62518 8.64339 -1.20214 1.64946 0.537583 
469 1 1.60313 7.20625 3.34583 0.290631 -0.297885 0.286539 
470 1 5.24534 2.08664 7.09015 -0.959272 -0.440418 1.62705 
471 1 0.253969 1.6146 3.8407 -0.794813 0.702394 0.209809 
472 1 6.26513 3.00762 7.25338 -0.518362 1.4703 -1.30093 
473 1 9.04241 7.63417 2.71339 1.20806 0.680485 1.58027 
474 1 5.97517 4.53231 6.75324 -1.28533 0.262021 -0.156543 
475 1 0.622604 6.24205 8.98692 -1.04396 0.37469 -0.149993 
476 1 4.32266 0.557239 8.95767 1.63056 0.713099 -0.92756 
477 1 9.08772 2.66753 0.760513 2.19019 0.904096 0.319142 
478 1 8.6219 5.06185 9.18819 0.468336 -0.414814 -1.35213 
479 1 7.08159 1.66479 0.533614 0.319036 -0.492712 0.99056 
480 1 2.40992 7.0435 4.62063 -1.08635 -0.166704 0.133516 
481 1 9.06737 7.78715 9.36467 1.08466 -0.190833 1.14437 
482 1 9.18603 4.03306 4.46174 -0.402703 0.840032 -0.0311587 
483 1 1.87588 3.38342 8.95307 0.963361 -1.23856 1.72705 
484 1 5.46022 2.9 0.187615 -0.996584 -0.5698 -0.0671653 
485 1 4.72595 1.68611 4.60616 0.028744 -0.423988 0.72293 
486 1 3.70594 4.71042 5.50301 0.729905 1.10224 0.049554 
487 1 2.46064 4.16205 9.17268 0.172749 -0.731082 -1.08761 
488 1 4.50608 7.79016 6.70358 0.82973 -0.602986 1.99815 
489 1 5.5954 1.29543 5.72991 0.822546 -0.542207 0.216088 
490 1 7.34685 5.46521 4.63937 0.328114 -0.758461 -0.329427 
491 1 6.61832 2.79683 8.15342 -0.855481 0.884964 0.743327 
492 1 7.27676 2.9078 5.83353 -0.69032 1.08558 0.587414 
493 1 4.18994 7.51361 5.81892 -0.46638 0.290713 0.118921 
494 1 6.21051 4.56987 5.64917 1.04538 -0.110798 1.01364 
495 1 6.72583 3.74487 5.75845 -0.563474 0.152121 0.167603 
496 1 7.50843 5.33229 1.09452 -0.0813989 0.0719949 -1.46618 
497 1 1.62161 0.633813 3.68634 -2.05688 -0.666928 0.25245 
498 1 0.624314 6.27506 2.5901 -0.289677 0.352221 0.988254 
499 1 8.38941 4.40568 2.3168 -0.835679 -0.328869 0.00343058 
500 1 9.35207 8.1044 3.51706 0.388518 -0.494397 0.568082 
501 1 0.609859 6.15452 5.16294 0.922158 0.215911 0.423259 
502 1 4.733 3.41754 6.98304 -1.38445 1.2131 -0.503347 
503 1 0.0790115 7.86349 0.911003 0.253407 -0.971291 0.531104 
504 1 8.81809 4.49458 5.62032 1.0971 2.06799 -0.241379 
505 1 6.85139 0.754505 7.73398 -1.15059 0.283143 0.158737 
506 1 2.55682 4.64734 0.590941 -0.0106618 0.94815 -0.895245 
507 1 9.2371 1.16015 2.88963 1.61513 -0.179597 0.136307 