ITEM: TIMESTEP
1868
ITEM: NUMBER OF ATOMS
1000
ITEM: BOX BOUNDS pp pp pp
0.0000000000000000e+00 9.4000000000000004e+00
0.0000000000000000e+00 9.4000000000000004e+00
0.0000000000000000e+00 9.4000000000000004e+00
ITEM: ATOMS id type x y z vx vy vz 
1 1 5.71208 5.61475 9.00059 0.32398 -0.932686 -0.249157 
2 1 0.210192 5.58076 7.87894 -1.95101 -1.22073 -1.14212 
3 1 3.54392 2.66954 5.40024 1.27971 0.598625 -0.0364343 
4 1 1.35485 8.50137 2.44977 1.33754 0.522483 0.111572 
5 1 9.12918 9.02359 7.26541 0.421444 1.45365 0.59887 
6 1 8.38527 7.45641 2.83854 -1.29123 0.0562478 0.346284 
7 1 4.79419 6.21328 3.78706 -0.830262 0.407924 -2.61778 
8 1 2.72676 7.06627 6.26227 0.0455091 -0.117098 -0.768437 
9 1 7.73686 8.74734 3.90549 0.19685 -0.946871 -1.14018 
10 1 1.08565 6.70264 5.10962 1.2745 -0.706686 -0.43946 
11 1 4.43805 0.299162 4.26651 0.0479348 -0.903254 -2.27251 
12 1 3.81137 9.01658 3.61684 0.676317 0.601825 0.632378 
13 1 7.75274 4.30869 7.15958 0.194858 1.12875 -0.542133 
14 1 9.12525 1.50536 5.74166 1.49578 -0.364918 -1.09901 
15 1 3.19441 3.85159 0.810318 0.888973 0.119273 -0.461509 
16 1 2.04713 9.07228 0.368567 1.04056 0.520556 1.24645 
17 1 7.98285 7.77233 4.62935 -0.0697924 -0.0373144 1.12564 
18 1 5.40044 4.28789 2.07618 0.353877 -0.0162573 0.0848916 
19 1 0.159183 8.56868 8.97634 0.345872 -0.826064 -1.07624 
20 1 2.9738 6.01565 7.44413 0.155181 0.818729 -0.403561 
21 1 1.09355 4.47069 6.19533 -0.344143 1.13795 -0.411842 
22 1 8.77062 5.53522 0.111664 -0.564308 0.101472 -0.232952 
23 1 2.28019 7.89654 6.39429 -0.177876 0.454996 0.0277249 
24 1 2.91148 3.16426 4.86269 0.156182 0.303323 -0.197838 
25 1 0.252642 7.81512 0.198976 0.46904 0.692383 -0.57217 
26 1 1.73007 5.53499 9.12819 0.786188 0.0768765 0.270249 
27 1 6.99635 8.24477 8.20276 -0.880628 -0.227031 0.703784 
28 1 6.31211 8.09094 4.7616 0.0452563 -0.862374 0.388431 
29 1 4.81195 1.03584 2.81189 0.831907 0.770287 0.490198 
30 1 0.511024 4.54243 5.42359 -0.963405 0.0853349 1.96062 
31 1 0.471901 4.71118 2.50834 -1.15245 0.0845195 1.15511 
32 1 8.1072 6.00954 5.00355 -0.0619016 0.124275 1.50264 
33 1 1.13459 9.24433 0.344386 0.152331 -0.371372 -1.56827 
34 1 5.20275 2.02436 5.91795 -0.715081 0.228867 0.242843 
35 1 3.37475 3.61265 6.44365 -0.0201477 -0.0702441 -1.12701 
36 1 1.58301 8.81922 4.71945 0.0558392 0.815091 1.87229 
37 1 7.12859 8.07957 4.2344 1.05735 1.95509 1.39226 
38 1 0.172381 5.11463 0.297205 0.231625 -0.362202 0.00996701 
39 1 7.66016 7.03467 7.70726 -0.400508 0.0139992 0.509034 
40 1 0.876157 9.18497 6.45605 0.522361 1.59857 -0.230056 
41 1 1.11487 6.78565 6.08503 -1.77213 0.272547 -0.003242 
42 1 0.618771 7.74722 8.7277 0.558017 -1.45573 0.786786 
43 1 4.22552 2.15737 5.90745 0.264347 0.997352 0.449871 
44 1 5.83228 3.06988 0.634139 0.319372 -0.225941 0.246169 
45 1 2.55546 0.462193 0.640169 -0.0445193 1.47349 -1.56367 
46 1 8.27297 9.31051 5.36221 1.22247 -0.612335 -1.00012 
47 1 1.97196 7.00337 4.20478 -0.355568 0.448732 0.446021 
48 1 3.97023 4.54501 2.2509 -0.993612 0.139738 0.115017 
49 1 1.16264 5.99199 3.45586 -0.705743 -0.286074 -0.169632 
50 1 9.03232 6.28006 0.681812 -0.642587 1.06543 0.313183 
51 1 4.203 5.51869 1.95204 -0.76368 -1.7555 -1.98667 
52 1 2.88283 2.90718 7.99959 -0.279939 -0.249305 0.298732 
53 1 0.196627 7.71057 6.31781 -0.242429 1.04774 0.225427 
54 1 1.81014 7.28138 0.848318 0.390869 0.141618 0.376249 
55 1 7.19538 3.62114 1.6979 -0.243737 -0.125679 0.18989 
56 1 2.04258 6.02977 7.68569 0.314927 0.522296 -1.27091 
57 1 9.16774 2.1299 4.64566 0.361696 -0.220659 0.0963226 
58 1 4.64162 7.45996 5.33539 -0.146076 -0.147994 1.83423 
59 1 9.13104 5.01708 5.66398 0.400295 0.627956 0.833924 
60 1 3.09316 1.03993 5.6164 0.240224 -1.57956 0.403059 
61 1 6.9559 7.6188 3.39794 -0.0447813 1.24535 0.0795578 
62 1 0.214466 1.23867 7.39055 0.498501 0.329536 1.32978 
63 1 8.18778 2.583 8.98566 -0.227205 1.06601 0.134364 
64 1 3.19202 5.93936 2.21007 0.0164195 -0.593468 1.19072 
65 1 8.56248 6.51098 5.83338 0.127557 0.0817359 0.288841 
66 1 1.84421 4.2817 6.77069 1.5811 1.00491 0.613947 
67 1 2.72137 9.21631 7.71274 0.0011224 0.0292632 0.434511 
68 1 1.1261 6.95021 8.5672 -0.576992 1.2751 1.22845 
69 1 7.18977 5.84173 6.66088 -0.446973 0.633213 0.147897 
70 1 0.78868 8.16516 6.9339 -0.11009 -0.226087 1.01286 
71 1 4.44831 4.18565 7.40939 -1.36124 -0.758956 -1.31469 
72 1 5.55198 1.526 3.30255 -0.342272 -0.480443 -0.520556 
73 1 1.95435 3.63238 2.95252 0.506885 0.852166 0.238601 
74 1 8.91351 7.61161 4.59985 0.397586 0.799547 -0.489677 
75 1 0.723262 1.41773 2.27637 0.00329449 -0.449323 -0.0387746 
76 1 0.159431 7.18299 8.1356 1.516 1.10908 -2.58256 
77 1 8.19708 7.16293 9.04133 0.0307335 -1.10404 -0.866448 
78 1 2.88578 1.69414 9.00365 -0.357993 -0.335088 0.886615 
79 1 1.46808 8.98253 5.69672 -0.806852 -0.211541 -0.0955973 
80 1 8.72699 0.998366 3.18019 0.443202 -0.0702862 1.05116 
81 1 8.57466 0.959953 0.711392 -0.0468858 0.291369 -0.569065 
82 1 2.40816 8.37104 9.07562 0.038477 0.736945 -0.0690928 
83 1 6.75759 5.05075 6.08472 -0.815146 -0.344927 0.820219 
84 1 8.72701 5.07112 6.57488 1.07783 -0.488666 0.123807 
85 1 2.82237 0.162732 5.94456 0.398772 0.682323 0.257657 
86 1 3.70436 1.84198 4.26383 0.572151 0.484649 0.380228 
87 1 4.95818 2.72802 6.56184 0.0550373 -1.01107 -0.0460942 
88 1 1.74526 6.90084 7.8446 0.680657 -1.78394 -1.1805 
89 1 6.40434 6.76372 1.19047 0.192059 -0.0547641 -0.574318 
90 1 1.72818 8.11067 5.45402 0.693171 -0.687158 1.42241 
91 1 3.82839 5.89478 6.96618 -0.152613 -0.123011 0.638507 
92 1 8.56189 1.52128 4.14273 1.05918 0.22057 -2.0423 
93 1 4.66725 3.98581 0.910532 -0.0442496 0.392873 -0.300583 
94 1 8.14001 5.85791 6.60403 1.2271 0.201145 -0.24874 
95 1 6.20709 5.34844 7.54705 -0.39627 -0.0340507 -0.962153 
96 1 4.29347 3.43888 7.96664 -0.0907965 -0.0988229 1.43153 
97 1 1.66849 0.136162 1.16052 0.0395403 0.121618 -0.622536 
98 1 9.2126 3.14718 4.46099 -0.378676 0.791386 0.919445 
99 1 1.74789 2.529 0.685691 1.25517 -1.07752 -0.041274 
100 1 4.62074 8.22269 7.26632 0.134283 1.24616 -1.0681 
101 1 7.14419 5.28078 0.791362 -0.543459 -0.277242 0.188203 
102 1 0.0715929 8.96787 8.1256 -1.116 1.12819 -0.238413 
103 1 7.62613 3.44257 7.60955 0.0563218 0.375115 -0.687694 
104 1 0.717823 2.0324 7.21786 0.828518 0.989391 -0.49632 
105 1 9.20282 3.64476 6.50294 0.117145 -0.815675 -0.110499 
106 1 0.131721 3.25168 0.850906 -0.743133 -0.519223 0.0390315 
107 1 8.56344 9.2971 8.02011 0.26653 -0.70384 -0.507864 
108 1 1.23529 2.15898 5.36748 0.0381177 -0.440925 -0.314908 
109 1 7.25823 8.52636 7.29752 0.456815 -0.207738 -0.604578 
110 1 9.2777 2.42257 1.24022 -0.199986 -0.952465 -0.0595263 
111 1 8.99546 8.63354 2.51786 -0.902288 -0.992706 -0.134389 
112 1 8.71762 3.29708 1.3367 -1.21257 -0.996026 -0.335756 
113 1 0.423952 6.93449 9.2527 0.154448 0.264371 -0.726041 
114 1 8.73525 8.32281 7.95737 -0.240096 -0.217198 0.512332 
115 1 7.25875 8.66214 6.36624 0.8127 -1.65632 0.905248 
116 1 8.74098 5.09257 7.95371 -1.47307 0.512156 0.701873 
117 1 4.16941 9.05241 7.15672 2.38446 -0.409959 -0.283778 
118 1 4.58243 3.85579 1.83769 -0.0457806 0.164712 -1.1177 
119 1 6.93304 4.92498 7.00864 -0.668839 -0.867396 -0.589572 
120 1 5.81957 8.81467 3.48375 -0.412591 0.525197 -0.801485 
121 1 7.87306 0.603359 7.84468 -0.756361 -1.52636 -0.646901 
122 1 2.00407 0.777747 4.63314 -0.600436 -0.395588 -0.128456 
123 1 6.73544 7.40414 7.7936 -1.22813 0.88371 0.27306 
124 1 1.37433 8.63997 1.0887 1.10702 -0.0785337 0.601019 
125 1 9.00241 4.26484 8.29944 -0.57789 0.345247 -1.09378 
126 1 8.91759 6.506 7.81866 -0.722426 -0.206891 -0.384818 
127 1 1.25768 7.44407 9.39562 -0.833398 0.338955 -0.321414 
128 1 0.519433 0.728512 5.1128 -0.621902 0.258945 -1.55847 
129 1 5.93306 8.26496 1.0065 0.329804 -0.413913 1.26095 
130 1 4.1167 1.12029 5.97168 0.133066 -0.021968 0.0118589 
131 1 4.87356 0.354264 1.49128 -0.122575 0.633372 -0.317953 
132 1 6.01066 8.16291 8.39431 -0.703826 -0.45 0.0865936 
133 1 0.256647 1.20044 3.13008 -0.867529 -0.558959 0.639165 
134 1 0.850876 5.25198 8.98913 0.0464771 1.26491 0.137771 
135 1 7.71784 4.9974 6.3981 -0.13767 -0.0809237 -0.392704 
136 1 3.36615 7.33263 7.84768 0.168906 0.95342 0.513049 
137 1 6.93732 1.26903 6.42799 -0.450837 0.77803 0.92003 
138 1 7.99567 9.06413 2.63439 0.795518 0.844267 1.18285 
139 1 2.47289 8.54956 4.9326 -0.578987 0.795208 -0.33322 
140 1 8.9421 0.0599042 6.39404 0.117473 -0.524766 -1.11581 
141 1 3.14526 3.11235 1.84437 -0.202789 -0.191787 -2.18595 
142 1 0.262791 3.07526 3.02198 -0.0772985 -0.0535758 1.37271 
143 1 3.80639 4.35973 8.07359 1.098 -0.779924 -0.0399434 
144 1 1.2159 3.02692 2.47408 0.0237431 0.308364 -0.39839 
145 1 0.307183 6.16791 3.76562 -0.974005 -0.290383 -0.222319 
146 1 1.70069 6.75114 3.27357 -0.363116 -0.248728 0.102158 
147 1 5.53414 6.03089 6.15386 -0.523553 -1.40964 0.489988 
148 1 3.41172 8.06817 3.69631 0.34793 -0.167202 -0.508244 
149 1 6.23311 3.62311 8.44875 0.695324 -0.0499832 0.971546 
150 1 3.38199 0.722187 6.46765 0.670993 0.235203 -0.311948 
151 1 1.73526 1.95342 6.83248 0.403518 -0.870853 -0.767768 
152 1 0.698076 8.54632 1.74921 -0.417455 1.54867 0.512132 
153 1 0.932942 8.26786 3.24534 -0.0285237 0.0668328 0.143898 
154 1 6.6585 0.202644 5.22231 -1.32546 -1.33263 -0.64248 
155 1 2.65594 2.68813 8.89978 -1.76857 0.408394 0.0791726 
156 1 1.68246 4.82319 1.99505 0.846695 0.884938 1.36116 
157 1 5.42923 3.60311 1.36755 -0.466373 0.627464 0.33947 
158 1 5.20648 0.00901764 3.8551 -0.785031 -1.02769 1.68864 
159 1 1.7552 2.69806 6.04364 -0.133571 -0.327869 -1.05216 
160 1 1.06515 5.69622 7.35014 -0.0609815 -0.403143 -0.209944 
161 1 4.63795 8.50366 2.31516 0.274184 0.33865 -0.315065 
162 1 1.2194 1.40275 9.08657 0.0947067 0.712897 1.24447 
163 1 5.85265 7.34294 0.684715 -0.920172 0.887689 0.637756 
164 1 2.14521 3.93814 5.88025 -0.348622 0.119419 -0.612926 
165 1 3.9015 0.77127 1.35248 -0.232588 0.418509 0.0324907 
166 1 3.76884 9.25504 9.02 -0.387583 0.0919359 1.14945 
167 1 3.51865 6.19988 0.00763098 -1.275 0.129638 0.0216601 
168 1 8.1326 0.0827861 1.03385 -1.1392 1.31665 0.320098 
169 1 1.24823 5.9337 4.51997 -0.0597803 -1.20843 1.20499 
170 1 6.03408 1.60493 6.1413 0.691009 -0.850786 0.509925 
171 1 0.0525874 5.64875 2.14252 0.239687 0.361092 -0.273395 
172 1 8.02188 5.93926 3.31137 0.314069 -0.274074 -1.72519 
173 1 7.36933 6.69125 9.08301 1.46776 -0.383453 -0.506694 
174 1 0.277769 7.05684 0.829943 0.325211 0.128276 -1.15618 
175 1 8.13022 6.73493 0.518061 0.802554 0.110822 -0.0180508 
176 1 7.80318 6.91661 5.04656 1.28378 -0.200457 -0.0641437 
177 1 0.0841212 4.07195 3.1226 -0.374803 -0.370238 0.0724495 
178 1 1.08862 6.65065 0.581692 0.114796 0.429646 -0.404408 
179 1 0.798492 4.85255 0.963945 -0.123492 0.230684 0.366101 
180 1 8.15094 1.38065 5.99014 -0.550947 -0.978591 0.899245 
181 1 8.86048 6.78377 2.23702 0.500421 0.741738 0.68403 
182 1 0.475267 2.90931 6.35935 0.274737 -0.400565 0.214884 
183 1 7.96841 8.01955 6.63344 0.585135 1.10988 -0.171488 
184 1 7.1101 9.34113 7.79709 -0.248329 -0.52304 -0.964964 
185 1 4.23368 1.66151 1.07946 1.10601 -0.20606 -0.435717 
186 1 4.81819 4.89236 0.600976 1.4182 0.20726 -0.897447 
187 1 7.92931 4.37336 1.94314 0.525876 -0.0238891 0.158284 
188 1 0.529679 2.66496 4.84676 1.3553 1.20355 -0.337517 
189 1 8.65856 6.66268 3.28328 0.289937 0.870179 1.00172 
190 1 9.20584 2.00347 2.132 0.314119 -1.08819 0.257851 
191 1 3.7248 2.45337 2.42127 0.458109 -0.892887 -0.492439 
192 1 6.93871 6.90161 5.48294 -1.26956 0.202823 0.533975 
193 1 0.209928 6.49087 1.61973 0.328024 -1.25885 0.514101 
194 1 1.4208 1.20652 5.26723 -0.489618 0.0389706 0.947299 
195 1 8.25788 7.02959 4.12736 -0.745465 -0.818907 1.2174 
196 1 3.87836 1.38554 2.86752 -0.40776 0.876446 0.766937 
197 1 2.41928 3.76081 1.38395 -0.0134722 -0.268957 0.736198 
198 1 6.55755 2.17726 6.73131 -0.0813394 -1.15475 -0.134191 
199 1 0.0731326 4.81604 1.61988 -0.502386 -1.40716 0.771832 
200 1 1.56231 2.62774 1.6559 -0.152762 -0.482737 -0.896817 
201 1 1.90762 4.41641 4.73067 -0.542834 0.0296156 -0.570593 
202 1 5.98721 6.87613 7.38824 -1.45946 -0.126488 0.29577 
203 1 1.49796 1.02506 2.7798 -0.35061 -0.649828 -1.5088 
204 1 6.1805 7.39446 6.59399 0.545167 0.187322 -0.190621 
205 1 1.85632 6.72079 0.0347298 -0.30524 -0.597707 0.860485 
206 1 4.58722 5.84172 7.60743 0.0780189 0.738859 1.29841 
207 1 2.00342 0.26735 3.42246 0.440388 -1.29274 1.40678 
208 1 0.840225 3.89991 0.909771 -0.174762 0.655514 1.24223 
209 1 5.38059 9.06133 1.98489 0.750938 1.53909 -0.483189 
210 1 0.779756 6.04227 6.51843 0.359417 0.0401875 -0.161287 
211 1 4.39134 7.21642 0.90483 1.14328 -0.46962 1.05668 
212 1 5.10156 6.60935 7.85168 -0.506212 -0.507661 0.997473 
213 1 3.36101 7.43973 0.101248 0.128784 0.172025 -0.0613816 
214 1 3.948 7.57819 8.72269 -2.03176 -0.395427 -0.185757 
215 1 7.29062 6.97277 0.9041 -0.0186348 -1.18807 -0.404937 
216 1 6.95555 3.06523 8.78823 -0.355421 0.109823 0.0380616 
217 1 3.39756 0.0787282 1.81853 0.28465 -0.174431 1.05747 
218 1 4.80189 8.87918 3.178 -1.70045 -0.203169 -0.476669 
219 1 8.21285 8.74429 7.25888 0.0938254 0.60764 0.214206 
220 1 1.38417 0.194265 4.15142 0.164478 0.510307 -0.0676079 
221 1 4.45523 7.67183 1.80796 -0.379445 0.741351 -0.263523 
222 1 3.14623 6.89456 2.4313 0.820148 1.27432 -0.376556 
223 1 4.70057 4.05495 9.367 -0.446275 0.364285 -0.555302 
224 1 6.05313 4.49548 7.04774 0.775393 -0.535415 -0.509606 
225 1 3.13536 4.30126 9.30882 0.0733988 1.27241 1.76109 
226 1 4.27485 2.55245 3.99928 1.02749 -0.163916 0.228082 
227 1 2.73397 7.83425 5.53055 -0.877864 -0.0919087 -0.369581 
228 1 9.03557 7.75296 8.84905 0.110607 0.00166761 0.125012 
229 1 1.33154 4.27939 2.66945 -0.426067 1.48365 -0.733753 
230 1 3.37191 5.23615 9.38985 0.832978 -0.488316 -0.91195 
231 1 4.03565 1.07152 3.80767 -1.0345 0.624052 -0.136866 
232 1 8.54156 2.17405 8.18431 0.614359 -1.53888 -1.24313 
233 1 0.583223 3.72868 2.38481 0.382221 -0.581723 0.115947 
234 1 1.81177 1.15349 3.72647 0.435382 1.523 -1.15175 
235 1 5.49881 8.50578 4.38181 -1.26277 0.00897909 0.861812 
236 1 4.19817 4.18168 6.48786 -0.60902 0.532854 -0.962803 
237 1 2.6474 6.55005 3.23797 -0.779615 -0.183445 1.48041 
238 1 3.02816 8.27582 8.04809 0.377523 -1.01305 -0.613456 
239 1 5.20388 2.27472 3.91276 -0.54911 -0.257552 0.80078 
240 1 0.813896 7.50979 5.55545 0.545343 -0.619906 -1.19652 
241 1 9.32358 3.73563 7.47331 0.477688 0.241426 0.689762 
242 1 8.10688 6.52303 8.35829 -0.642884 0.793556 0.843752 
243 1 7.23864 4.81947 7.8943 -1.02894 -0.962317 -0.602149 
244 1 1.25824 0.405372 7.01972 -0.253086 -1.90262 0.684644 
245 1 4.70733 4.15253 8.42994 0.859944 0.806078 -1.45954 
246 1 5.81754 7.36486 9.11555 -0.0642298 0.73222 -1.30149 
247 1 3.66486 2.17802 3.3365 0.813894 0.553315 -0.999223 
248 1 5.81532 6.00272 1.35001 -0.316303 0.401404 -1.36111 
249 1 7.32805 5.74465 8.90552 -1.63018 0.507107 -1.50796 
250 1 7.84541 5.29306 0.1496 0.937591 -0.131964 -0.97385 
251 1 3.54652 6.23996 3.08857 0.312576 0.328295 0.177857 
252 1 2.37123 5.22467 0.612792 0.0704582 -0.130559 -0.180413 
253 1 0.0927618 3.85281 1.57637 -0.351459 -1.33751 -0.573765 
254 1 1.36024 4.98102 5.39872 0.135217 -0.332812 -0.238896 
255 1 4.82543 8.17088 5.92692 -0.992324 -1.06594 0.077125 
256 1 2.74627 6.71936 9.10188 0.899438 -0.935841 0.407287 
257 1 2.52645 1.40904 0.4549 -0.995805 0.0329867 0.710024 
258 1 1.32058 3.69839 4.45756 -0.126189 0.671483 0.723289 
259 1 9.12049 8.95669 5.61935 0.685401 -1.08189 1.08604 
260 1 3.07663 3.74603 8.44144 -1.42126 -0.990563 -0.57594 
261 1 6.7942 8.53135 1.30438 -0.490079 0.0695253 -0.199005 
262 1 2.37998 3.30545 0.475434 0.264296 0.755677 -1.31819 
263 1 0.356014 7.66156 1.56957 0.669644 0.945456 0.487122 
264 1 4.5415 1.95331 2.44926 -0.0696787 -0.555274 -0.674786 
265 1 3.0192 7.78661 2.74757 0.13428 -0.426241 1.06763 
266 1 2.93034 7.55456 8.66353 0.116662 0.132505 -0.761931 
267 1 5.43267 7.45923 5.97907 -0.566683 -0.37994 -0.166722 
268 1 8.3369 7.98085 0.135546 -0.772318 -1.36868 0.939216 
269 1 5.47234 5.62437 0.509722 -1.22067 0.475926 -0.125913 
270 1 7.69549 8.6235 4.84876 1.08531 1.48316 1.14412 
271 1 5.51262 4.53548 1.1287 -0.84797 -0.695387 0.62477 
272 1 1.37348 3.53756 6.30163 1.34696 -0.470336 -1.40238 
273 1 3.73912 5.32087 7.76061 -1.09527 0.765355 0.241817 
274 1 0.630663 0.502865 2.57974 -1.12097 0.523959 -0.1699 
275 1 3.33395 5.11257 1.73282 1.65856 0.699266 -2.41374 
276 1 4.65624 8.52287 5.05722 1.19803 -1.12937 0.922357 
277 1 0.849676 8.33741 5.07915 0.546269 0.903418 0.785537 
278 1 7.83465 1.07552 6.94518 2.4615 0.867634 -0.978053 
279 1 8.65951 0.838732 8.45266 -1.13061 -0.0288138 0.0327742 
280 1 2.14053 8.62904 8.18299 -0.748852 0.940384 -1.08795 
281 1 0.441995 0.714241 1.68135 0.554633 0.137663 0.0733696 
282 1 8.50621 0.356222 7.16966 -0.776958 1.27249 -0.537834 
283 1 0.740329 4.37483 0.0903969 -0.288715 -0.849112 -0.868755 
284 1 7.5668 1.93728 6.55735 0.394011 -0.538043 -0.0293677 
285 1 0.588202 9.25532 5.54616 0.513465 -0.744719 0.676759 
286 1 9.26996 0.475539 7.8275 0.559683 0.810231 0.966571 
287 1 7.78641 7.24362 5.98344 -0.266698 -1.30857 1.08125 
288 1 1.6143 8.97369 8.92954 -1.26488 0.0486667 0.324913 
289 1 4.10499 4.83628 8.82204 0.921281 1.48468 1.10046 
290 1 1.90833 5.21028 7.23288 0.711909 0.78086 -0.196821 
291 1 9.2445 5.54276 4.35904 0.749624 -0.376223 0.774844 
292 1 4.16404 6.89426 9.3656 0.695411 -0.147575 -0.8001 
293 1 7.89271 2.31327 5.72515 0.375561 -0.273994 -0.179229 
294 1 2.4034 7.50349 0.100571 0.919731 0.335169 0.361235 
295 1 5.23441 8.18901 1.64627 -0.2689 -0.0881022 -0.0129392 
296 1 7.16417 2.76482 6.21828 -0.556935 -1.25468 -0.360808 
297 1 6.54397 3.04147 1.27726 0.548444 0.384809 0.190978 
298 1 5.23064 7.24477 1.41056 -0.605031 0.207547 0.147054 
299 1 4.36118 6.7941 3.12567 0.1479 1.4984 -0.610416 
300 1 4.23611 9.10009 1.72631 0.163382 -0.500436 -0.477901 
301 1 1.94674 5.85589 2.94702 1.12414 0.175581 -0.391662 
302 1 9.10267 1.74323 0.544758 1.29649 0.738855 -1.709 
303 1 0.653487 2.83264 8.90471 -0.0568293 0.790513 1.87376 
304 1 2.10386 4.80439 2.97696 0.269782 1.48901 0.211486 
305 1 3.87516 3.45319 1.36283 -0.789313 -0.0334971 0.0621365 
306 1 3.01538 1.76353 2.64038 0.419524 -0.092284 0.0422836 
307 1 6.83228 0.295487 4.04869 -0.221792 -0.690547 0.752797 
308 1 6.17543 1.30325 7.05697 -0.306917 -0.645847 -1.19626 
309 1 4.92289 7.97591 8.16456 -0.724028 -1.2826 0.173112 
310 1 1.3378 1.70217 1.52954 0.895817 0.8027 0.679168 
311 1 1.77772 1.04566 6.583 -0.457558 -1.56119 -0.686596 
312 1 2.38917 7.6066 7.85568 0.668146 -0.513613 0.360133 
313 1 6.46051 0.0777248 3.16756 -1.16376 -0.769657 -0.312673 
314 1 0.407095 8.53338 0.815229 -0.557231 0.351365 -0.399621 
315 1 8.8254 5.70464 7.27121 -0.769281 0.245355 0.601707 
316 1 7.63468 8.76695 1.66979 -0.137415 -0.346259 -0.510886 
317 1 2.22382 1.24181 2.103 0.477526 -0.432212 -0.0313922 
318 1 5.02975 0.0592938 7.28745 -0.567977 0.0795461 0.717268 
319 1 5.36616 0.230148 6.38542 0.71451 0.0447144 0.237994 
320 1 1.5423 3.72975 1.92016 -1.03217 -0.23927 0.138441 
321 1 8.44405 9.34718 3.44365 0.91757 -0.681648 -0.991397 
322 1 5.87984 2.70479 6.29635 0.229838 0.84146 -0.46212 
323 1 7.11947 3.95255 8.24998 0.100479 -0.09682 0.21339 
324 1 7.1539 6.15588 4.96734 -1.83332 -0.206505 -1.03108 
325 1 1.68752 3.15375 3.75931 0.0476727 0.91088 -0.989597 
326 1 3.18485 8.85681 4.3569 -1.09186 1.1381 -1.70613 
327 1 6.44355 8.33779 2.91924 -0.712968 1.15485 1.11737 
328 1 9.03755 5.0522 2.7693 -0.266181 -1.50919 0.179111 
329 1 0.102403 8.31963 4.44617 -1.36299 -0.813883 0.548392 
330 1 7.83223 3.39926 8.57703 -0.640426 -0.738716 -1.29669 
331 1 3.61361 7.4682 6.24468 0.325414 -0.818779 2.32313 
332 1 2.70983 9.04622 6.73925 0.30793 -0.646034 -1.78789 
333 1 2.30516 4.18829 2.24776 -1.86277 -1.00107 0.223042 
334 1 2.23925 3.34154 6.64553 -0.163275 0.337781 -0.556239 
335 1 6.29331 9.19221 6.01818 -0.2382 0.942167 0.221664 
336 1 6.67983 4.47715 0.406722 0.0948657 -1.96657 -0.235732 
337 1 3.2582 8.83461 5.46366 0.0966636 -0.0337396 0.214456 
338 1 1.37018 7.67786 6.29058 -1.81621 0.381419 -1.26391 
339 1 9.23573 1.05077 2.3039 -0.221979 -0.246493 0.0411971 
340 1 8.9633 5.73653 3.39875 -0.0223431 0.385159 0.610089 
341 1 4.9849 0.936422 3.77301 1.2851 -0.215512 -0.180071 
342 1 2.80611 5.78546 8.37766 -0.920426 -1.82622 -0.0292859 
343 1 8.41283 4.98494 8.8371 1.02836 -0.409413 -0.0437344 
344 1 1.27409 7.5481 2.68441 -0.000879689 0.450634 0.0647423 
345 1 3.28738 2.90173 0.835056 0.314703 -0.692225 0.772482 
346 1 3.14197 8.30156 6.27909 -0.917992 -0.812402 1.47956 
347 1 3.28869 3.6721 3.99974 -0.0905829 1.55025 -0.0859502 
348 1 2.59975 8.99737 1.12133 -0.445735 -1.81611 0.64932 
349 1 3.96514 8.11517 7.93813 0.426262 -0.582965 -1.60223 
350 1 8.94606 1.02355 6.60215 0.510994 0.222037 0.353684 
351 1 0.696834 9.1011 3.6614 0.364938 0.218089 0.749918 
352 1 7.79781 8.78721 8.19402 -0.690617 0.340738 -0.973257 
353 1 4.60156 7.42594 6.47887 0.217033 -0.293631 0.309707 
354 1 7.84191 0.311547 1.96585 -0.129151 -0.603603 1.5214 
355 1 7.06511 0.874301 3.33345 -0.682477 -0.66848 -0.468727 
356 1 4.60412 3.23951 8.84598 0.181936 -0.190011 0.348558 
357 1 4.0003 3.50985 0.398462 1.06176 -1.86778 -0.673378 
358 1 5.82853 3.66353 6.57274 -0.132175 -0.290453 1.13278 
359 1 8.91751 8.10259 6.99876 0.308403 0.794944 -1.21148 
360 1 5.14706 8.1032 3.61678 -0.117198 0.961364 -1.82628 
361 1 5.01904 4.88768 9.07936 -0.175233 -0.842071 -0.0302357 
362 1 5.49082 1.95368 6.84664 0.0262121 -0.487514 -0.27239 
363 1 5.27571 6.09296 5.18145 0.100055 -1.00279 -0.0578244 
364 1 7.62086 0.0217639 6.97315 0.132518 -0.877853 -0.807244 
365 1 8.16155 8.92144 6.27438 -0.116569 0.551479 0.00578832 
366 1 3.9356 7.58879 7.13566 -2.1744 1.53068 -0.618278 
367 1 3.02383 3.00119 7.06476 -1.18643 -0.401838 0.0877254 
368 1 7.17292 7.73198 5.12058 -0.348335 0.289289 -0.0611794 
369 1 3.52276 6.74911 8.6144 0.56668 -0.332904 -0.678828 
370 1 0.277102 6.36469 4.70655 -0.567481 -0.770947 -1.31272 
371 1 7.96268 6.55599 1.45321 -0.280103 0.701035 -0.512621 
372 1 6.01589 3.64642 7.51825 -0.0116394 0.670707 0.618521 
373 1 7.48899 7.4799 2.61569 0.270135 0.306689 0.747321 
374 1 6.60918 1.0753 5.54334 1.05668 -0.227689 0.518268 
375 1 6.57937 5.35244 8.41914 0.380181 0.811997 -1.51666 
376 1 6.28893 6.25252 6.71455 -0.566152 1.34227 1.49959 
377 1 1.3431 7.54656 4.7377 0.845981 2.04837 -0.105143 
378 1 4.6347 4.94787 7.94866 -0.413359 -0.282433 -1.04469 
379 1 0.064865 9.30679 1.95057 0.266435 -1.38109 -0.12286 
380 1 7.89469 1.03648 1.35198 0.547374 0.504634 -0.951283 
381 1 9.09642 9.2456 1.0438 0.471818 -1.08114 1.52591 
382 1 0.0904858 0.732112 0.809514 0.145429 -0.961103 0.327104 
383 1 5.12482 8.023 9.12227 -0.369778 0.751478 -0.364805 
384 1 6.93575 6.58849 7.31033 0.571263 -0.448724 0.289369 
385 1 7.93038 6.59058 2.46134 0.909709 -0.132137 1.16805 
386 1 4.22051 0.375183 7.80555 -0.17829 0.0855421 -0.106044 
387 1 6.62475 6.94146 0.202201 0.581618 -0.573059 1.22739 
388 1 3.89268 3.88666 8.90648 -1.11976 0.236104 -1.12319 
389 1 4.9052 7.19574 8.7012 0.785752 1.10598 -0.164991 
390 1 0.200911 3.54225 9.36275 -0.46849 1.24032 0.589247 
391 1 6.28532 6.21034 7.9986 -0.845991 -0.271033 -0.394603 
392 1 7.14823 6.94203 1.87657 -0.245723 -0.849199 0.471647 
393 1 9.13193 1.1427 4.82815 1.34663 -0.0873828 1.38411 
394 1 1.74347 1.42085 8.25806 -1.00826 1.15812 -0.145381 
395 1 4.25022 7.57124 3.68163 0.696997 -0.943605 0.450977 
396 1 5.15444 9.29348 4.80108 -0.266658 1.07295 0.999151 
397 1 9.15359 2.58038 8.82536 0.178677 1.04969 -0.527712 
398 1 1.32596 1.28916 7.3984 -0.230195 1.04486 -1.11705 
399 1 3.88378 9.16451 2.64423 0.857819 0.626656 0.20695 
400 1 3.89209 8.0994 5.551 -0.628518 0.324933 0.242749 
401 1 1.91014 9.18051 7.24906 0.234457 -0.504893 0.184244 
402 1 1.06333 1.62883 3.36532 -1.12152 0.892906 -0.0946222 
403 1 4.56113 1.77593 3.41613 0.593121 -0.242449 -1.17143 
404 1 0.0746585 8.67118 6.46863 -0.305315 -0.198659 1.38555 
405 1 4.29333 5.49963 0.0649813 -0.644144 0.27836 -0.19149 
406 1 0.852591 4.62564 3.41316 -1.18628 0.620253 0.654823 
407 1 4.28262 4.81572 3.25007 0.433682 -0.478668 -0.676234 
408 1 4.94127 3.60945 6.2056 0.537642 -0.724829 1.07141 
409 1 0.986849 8.38666 9.38849 -1.34236 0.332645 -0.0866178 
410 1 3.39054 0.0995013 0.876822 0.359572 -1.14168 0.411547 
411 1 6.28264 7.05304 3.77455 0.524753 0.104232 1.5032 
412 1 1.68462 5.78618 2.02366 -0.191804 1.25833 0.228806 
413 1 7.17811 6.39886 8.22181 1.98279 -1.91868 0.653797 
414 1 0.223943 8.0872 7.7094 0.735859 -1.25132 0.657042 
415 1 8.52024 9.06848 1.82191 0.883829 -1.38779 0.241498 
416 1 8.70076 0.181054 0.21745 -0.607791 -0.495191 0.579087 
417 1 8.82253 7.64749 3.64952 0.550228 1.62949 -0.370381 
418 1 5.60688 6.50203 8.64868 0.509626 0.988713 -0.130835 
419 1 2.97847 7.65523 7.01972 -1.47525 -1.2916 -0.854699 
420 1 3.18851 4.91416 8.52566 1.44204 -0.161763 -0.661591 
421 1 1.96579 8.03708 4.24437 0.776074 0.746452 1.10317 
422 1 5.90772 0.655971 3.7279 -0.274001 -0.251789 0.933043 
423 1 0.147743 6.76522 6.38928 -0.269067 0.193439 -0.726968 
424 1 3.16277 5.76443 0.76037 0.541688 -1.37999 -1.19836 
425 1 3.88627 4.39263 1.28698 -1.5273 0.554774 -2.16193 
426 1 0.0773557 1.88506 6.53923 -0.0269819 -1.23257 0.714347 
427 1 5.68369 7.31483 8.16403 -0.941789 0.0674552 -0.00988188 
428 1 2.49685 1.65858 4.17526 0.583621 -0.379682 -0.556924 
429 1 4.12381 2.41445 6.83789 0.822524 -1.14515 -0.354563 
430 1 7.81164 8.19734 5.68904 0.717876 -0.380444 -0.420291 
431 1 3.31305 0.448215 8.20117 -0.341092 -0.186725 0.756982 
432 1 4.39705 0.326194 3.308 -0.959203 -0.130395 -1.13536 
433 1 4.48651 5.84379 2.89605 -1.33623 -0.0753874 0.295735 
434 1 4.05164 0.875743 4.89382 -1.30545 -0.107152 -0.304837 
435 1 4.89369 6.67998 5.8482 -1.05285 -1.70583 0.14404 
436 1 6.07261 6.74557 5.91238 1.91114 -0.831145 0.00228985 
437 1 5.41996 8.59261 7.60965 -1.8895 0.226852 0.144017 
438 1 7.62755 6.2984 5.86999 -1.25934 -0.856803 0.565215 
439 1 6.69749 6.01007 5.86261 0.00593883 0.200311 -0.0688711 
440 1 6.4828 1.7134 4.84863 -0.18634 1.33474 -0.511581 
441 1 5.14029 4.35495 6.77085 0.169948 -0.645391 0.925375 
442 1 0.669047 1.39813 5.77639 0.880014 -0.247291 -0.421472 
443 1 0.718864 9.329 8.80194 -0.124172 0.0882559 -0.81848 
444 1 8.57942 8.3975 4.13638 -0.359783 0.888497 -0.459154 
445 1 3.55596 4.55802 7.15902 1.6041 -0.403809 0.734014 
446 1 6.58758 3.16793 6.87337 0.737695 -1.16239 0.168489 
447 1 3.82721 3.54711 2.35438 0.898963 -0.291432 0.902595 
448 1 1.39533 7.86597 1.73434 1.3578 0.0472543 -0.182578 
449 1 0.178209 5.99696 9.33446 -1.52197 -0.901932 0.392808 
450 1 8.58424 8.41393 5.07863 0.563737 0.519794 -0.208253 
451 1 3.50865 0.364275 4.14445 -0.258791 0.0447611 0.295088 
452 1 3.72766 0.319282 5.63257 -1.53649 2.10822 0.905101 
453 1 9.25599 1.54037 8.22863 -0.953517 -1.55498 0.510165 
454 1 5.28681 3.40991 8.14422 0.391986 1.55796 -1.34122 
455 1 8.3711 7.35106 7.19379 0.91976 -0.456648 0.27092 
456 1 7.84174 0.580805 3.91451 0.672443 0.541361 -0.446886 
457 1 7.1238 4.4489 1.26247 0.275151 -0.427982 0.312476 
458 1 1.05122 3.07952 5.50706 -0.340437 0.172957 1.06664 
459 1 0.304567 2.2588 5.65349 0.919015 0.131824 -1.37668 
460 1 8.04339 4.40316 8.13213 -0.477902 0.219012 -0.0480374 
461 1 0.0480348 6.34077 2.8315 0.235614 -0.118987 1.11975 
462 1 9.3854 3.00499 2.05159 -0.997794 -1.08758 -0.907498 
463 1 1.5715 3.88178 0.246344 1.03867 1.01228 1.06614 
464 1 2.19813 8.08189 2.26376 -0.0651222 0.0161595 -0.246687 
465 1 7.43655 5.42275 5.52606 0.0895368 -0.898558 -1.18854 
466 1 4.59517 4.01865 2.77548 -1.03652 1.42687 -0.61428 
467 1 4.74879 2.67646 7.53191 -0.230419 -0.633229 0.754717 
468 1 4.31272 9.36455 0.811265 1.33147 -0.072439 0.10484 
469 1 7.08453 0.967626 4.66453 -0.909197 -0.37002 -1.29813 
470 1 6.43715 7.14418 4.71186 -0.486153 -1.49174 -0.459791 
471 1 0.455086 2.96011 7.32583 0.915689 0.722974 0.55665 
472 1 9.19363 0.973046 9.33546 1.40522 0.281741 0.917946 
473 1 6.46827 4.48093 8.87271 0.182909 -1.13515 -1.04952 
474 1 5.22824 8.9982 5.7054 0.669497 0.44182 -0.479451 
475 1 1.95793 8.91929 1.8381 -0.232069 -0.0785932 -1.36162 
476 1 7.43133 8.3834 3.05091 0.791328 -0.374995 -0.523942 
477 1 3.69245 5.3381 2.73475 0.396162 -0.013812 0.782072 
478 1 5.6371 7.56643 2.21168 0.952904 -0.447151 0.084628 
479 1 5.16881 6.48471 0.850672 0.739708 0.599351 -0.838931 
480 1 8.76003 0.662762 5.62036 0.141107 -0.751509 0.140626 
481 1 7.51399 8.31329 0.682658 0.597689 -0.684469 0.558002 
482 1 2.51612 0.377519 1.65385 -0.050382 1.1367 -1.55218 
483 1 3.71912 7.09214 1.65482 0.62483 -0.569666 0.249795 
484 1 4.01617 0.653187 2.2986 0.306212 -0.845217 0.448898 
485 1 5.47161 0.694547 2.16126 -0.286241 1.01053 1.30956 
486 1 1.10329 2.24918 0.0872424 -0.151588 -0.110316 1.37504 
487 1 8.40777 5.18054 3.9114 0.789251 0.468438 0.843953 
488 1 6.70792 4.11939 6.41159 0.653885 0.946094 0.864114 
489 1 2.1471 1.07202 9.03564 0.214073 -0.18681 0.754134 
490 1 4.56951 8.73234 4.1241 0.686887 0.330032 0.0498614 
491 1 0.415163 8.00535 2.48831 -1.35986 0.234582 0.292556 
492 1 3.57771 1.67152 6.56453 0.0212515 -0.786744 -2.28823 
493 1 9.07876 4.05655 5.59814 0.969017 0.356467 0.160719 
494 1 3.42516 0.205201 7.24866 -0.665908 -0.219392 1.0231 
495 1 3.88647 3.17965 4.65387 -0.674347 -0.187523 -0.278674 
496 1 3.20323 1.13573 7.36623 -0.430391 0.524411 -0.217965 
497 1 4.84828 5.66048 1.22859 0.239353 0.0177164 -0.159039 
498 1 7.38374 7.4314 8.52211 1.05767 0.324489 -1.32542 
499 1 1.51668 4.53721 8.78496 0.450064 -0.252264 -0.714701 
500 1 2.17523 2.71187 7.36084 1.08336 1.07115 -0.413499 
501 1 7.89897 5.50899 8.21253 0.559211 -0.0400609 -0.815745 
502 1 1.7458 7.56002 7.14344 -0.503104 -2.023 0.107155 
503 1 0.361092 1.82999 8.97576 0.709222 -0.957282 1.11427 
504 1 8.99152 6.73745 8.79921 -0.282445 0.304088 0.34582 
505 1 9.35327 3.12053 5.52563 -1.21623 -0.59258 -0.258109 
506 1 1.55351 3.55116 7.33881 -0.367811 -0.138974 0.839494 