ITEM: TIMESTEP
1908
ITEM: NUMBER OF ATOMS
1000
ITEM: BOX BOUNDS pp pp pp
0.0000000000000000e+00 9.4000000000000004e+00
0.0000000000000000e+00 9.4000000000000004e+00
0.0000000000000000e+00 9.4000000000000004e+00
ITEM: ATOMS id type x y z vx vy vz 
1 1 3.54628 5.52725 2.44014 -0.0247351 -1.84828 -0.882637 
2 1 8.18688 3.26556 9.13261 0.204354 -0.220227 0.261238 
3 1 7.97373 9.35684 2.96513 -0.0597917 0.549186 0.0659842 
4 1 1.58631 2.43852 4.43396 0.395235 0.189659 -0.58618 
5 1 7.41888 7.40166 6.09708 -0.103031 -0.706384 0.641198 
6 1 5.79488 6.04736 5.82781 -1.10783 2.05039 -0.707553 
7 1 8.76173 3.73772 4.91948 0.492247 -0.92965 -0.339785 
8 1 2.59527 0.265271 5.19426 0.547881 -1.06443 -0.320139 
9 1 7.7929 1.56995 2.53702 1.78306 0.643246 -0.469582 
10 1 4.95573 2.43406 5.33293 0.93409 0.426753 0.102442 
11 1 7.10159 1.05725 5.00609 0.384594 -1.40117 0.58812 
12 1 3.36067 5.77625 8.92493 -0.0963936 0.421592 -0.345167 
13 1 3.66112 0.393014 0.830762 0.536261 0.647032 0.105848 
14 1 1.42948 0.789748 4.12331 -0.585438 0.0409077 0.275444 
15 1 5.11733 6.61998 6.18463 0.137699 0.763642 -0.0134919 
16 1 9.05809 6.89522 4.35175 0.48591 1.03766 0.396027 
17 1 3.19914 8.96903 0.921354 -0.0617551 0.132876 -0.392352 
18 1 1.67835 2.43225 5.39356 -0.234993 0.59541 0.40044 
19 1 0.548705 4.05616 6.68328 2.00687 0.0727077 0.0026835 
20 1 6.595 7.52013 7.14151 -0.234348 0.0385348 0.527386 
21 1 9.27124 1.62242 7.21322 -0.29527 -0.665239 0.466297 
22 1 4.99555 1.43597 3.9188 0.439439 0.514801 1.19604 
23 1 7.21837 0.303679 3.53227 -1.03008 -1.23233 0.468868 
24 1 1.76692 0.838837 5.01133 -0.235075 -0.629722 -0.0906843 
25 1 8.53234 4.78734 6.36101 1.24038 -2.63854 -1.38968 
26 1 6.2769 6.93927 3.09197 -0.0593653 0.624112 0.202692 
27 1 1.31886 7.87003 3.55186 -0.550313 0.635364 -0.351856 
28 1 7.83994 8.11111 4.3287 1.92104 -0.486046 0.824399 
29 1 8.22014 5.62939 7.41322 0.137384 0.544567 -0.752066 
30 1 6.90476 8.62781 7.45868 0.864514 -0.123429 0.0265442 
31 1 5.27601 8.76599 1.07424 -0.335643 -0.378126 1.67416 
32 1 9.18068 3.44626 5.75107 0.763321 -0.69618 0.278327 
33 1 9.31744 1.65413 3.74346 -0.23362 -1.16771 0.17626 
34 1 8.42737 4.05561 5.7757 0.31129 0.0725543 -0.293763 
35 1 8.16357 0.301082 3.87416 -1.46683 -0.92711 -1.4975 
36 1 4.09912 7.57916 1.30454 0.627619 -0.01504 -0.0381322 
37 1 0.740393 1.62065 3.20654 0.153205 0.451942 0.487006 
38 1 0.963902 1.64319 9.05724 0.53394 -1.43358 -0.561367 
39 1 1.724 2.09143 0.975496 0.432575 -0.265945 -0.0715235 
40 1 6.60714 7.21729 4.02194 -0.469692 0.476532 -1.79982 
41 1 6.59127 6.42167 5.44891 1.63987 1.17053 -0.395072 
42 1 8.80851 2.45221 3.68527 0.98486 -0.382082 -0.686684 
43 1 9.01335 0.760742 3.40389 0.453656 0.186234 1.24054 
44 1 4.08466 6.58075 3.17056 0.111148 -1.29556 0.948162 
45 1 7.63851 4.76526 4.16283 0.685959 -0.85889 -0.511648 
46 1 0.378802 9.28169 0.88944 0.130906 -0.990985 1.57726 
47 1 1.82724 4.71792 0.427497 -0.762923 1.02935 -0.262006 
48 1 2.61435 7.07285 5.35679 -1.74529 0.64248 1.47932 
49 1 1.11525 1.19292 8.26048 -0.598474 0.533866 -0.189219 
50 1 6.56802 6.2712 4.31841 0.496606 -1.37697 -1.83495 
51 1 1.23379 7.72747 4.55142 0.550339 0.0403778 0.565514 
52 1 5.2888 7.59263 7.56677 0.0132986 -1.08558 -0.385306 
53 1 0.901613 2.09399 0.497425 0.155512 0.482014 0.12727 
54 1 4.72023 3.35816 3.92586 -1.05409 -0.235416 0.408418 
55 1 9.0632 0.194232 6.82114 -0.65071 -0.92519 -0.93001 
56 1 1.2706 4.43819 8.08342 -0.0353368 -0.706635 -0.290283 
57 1 9.26427 3.78337 8.42394 -1.38102 1.28376 -0.0065373 
58 1 6.68789 7.31643 8.77257 0.474268 -0.405225 0.685533 
59 1 2.5893 2.0066 0.523658 0.500687 -0.224997 -0.523707 
60 1 7.52417 3.77964 5.5053 -1.07054 -1.0048 -0.810299 
61 1 0.244001 0.215801 6.06325 0.855289 0.470891 0.174767 
62 1 5.90793 6.996 5.80345 -0.509002 -0.479215 -0.92423 
63 1 1.31742 2.43028 3.50712 -0.212125 -0.608413 -0.808563 
64 1 0.528893 0.91188 3.83668 -0.527904 -0.131582 0.205005 
65 1 4.35396 2.94943 4.75224 -0.377127 0.244373 0.0485329 
66 1 7.12601 8.53632 0.755924 0.706057 0.518249 -0.254247 
67 1 2.79169 7.45234 8.3612 -0.87258 -0.261539 -0.709599 
68 1 8.1927 5.77443 6.45818 0.53737 -1.31039 0.489858 
69 1 8.64032 5.44946 8.20623 -1.74484 -0.389683 -0.781648 
70 1 0.869511 2.1994 1.51332 -1.60175 0.990571 -0.642307 
71 1 8.76617 0.0506149 2.47193 -0.67069 -0.40589 1.05464 
72 1 1.8371 7.06557 4.80482 -0.559577 0.0842651 -0.494378 
73 1 0.522072 0.647082 1.66027 0.537581 0.427081 -1.15557 
74 1 6.22631 7.86279 3.41217 -1.64155 0.204882 -0.498027 
75 1 7.18762 1.89421 4.43523 0.527466 -0.0745216 0.199204 
76 1 6.5109 3.11915 3.08263 -0.130875 0.501811 0.428104 
77 1 6.56001 1.48646 5.67293 0.959857 0.953852 0.0958885 
78 1 3.35904 8.27757 3.24293 0.629602 -0.390562 0.045822 
79 1 3.75559 3.47113 4.13904 0.0988212 -0.586228 -1.01729 
80 1 5.75837 7.10937 6.8113 0.163226 0.908535 0.200936 
81 1 1.74314 3.91716 7.34558 0.772455 -0.916031 -0.0151429 
82 1 0.296465 1.36269 0.259022 0.329872 -0.512341 -0.642163 
83 1 9.0924 2.2745 8.00345 1.20824 2.03278 0.882104 
84 1 8.61163 2.05823 0.355396 0.802793 -0.43353 0.162694 
85 1 2.78258 7.00715 2.13972 0.974813 -0.641533 1.15056 
86 1 6.52523 6.88331 0.204731 0.392713 -0.267664 0.022594 
87 1 8.30777 6.52209 3.7776 1.37931 0.691439 0.384039 
88 1 3.49993 0.663554 5.00152 0.122853 0.348672 0.621941 
89 1 9.20076 1.04578 6.44082 0.396296 -0.282631 -0.529204 
90 1 6.70013 2.8987 6.65913 -0.491068 -0.260299 -0.0908967 
91 1 5.57379 7.51231 2.32545 0.0846673 0.112958 0.74028 
92 1 0.110561 9.08151 7.68291 0.0600189 0.414211 0.82482 
93 1 2.44211 4.53097 7.09177 -0.0932839 -0.779756 -0.709599 
94 1 6.92657 3.7349 6.26409 1.06269 -0.192676 1.3234 
95 1 0.875373 6.82899 8.81285 0.490035 -0.891861 -0.0751959 
96 1 3.59317 3.54407 8.36751 -0.340325 -0.702264 0.11814 
97 1 1.94363 7.51197 0.902238 -0.445135 0.424559 -0.678248 
98 1 4.1851 8.92837 0.968164 1.28064 -0.726334 -1.16722 
99 1 2.69076 0.737372 2.69717 0.856853 -0.0187035 -0.697583 
100 1 6.38569 3.78229 2.35399 -0.0555488 1.13659 -0.816003 
101 1 7.5605 4.00028 9.15742 -0.544418 0.133855 0.722237 
102 1 2.66435 4.34622 0.121609 0.813955 -0.666624 -0.120214 
103 1 4.6902 5.8273 3.02786 -0.0735393 0.47329 -0.877458 
104 1 4.35954 5.99029 3.95956 -0.00951542 -0.569638 -1.7775 
105 1 8.42436 1.22256 4.0246 0.555302 -0.501945 0.591444 
106 1 4.54642 7.04562 5.5325 -0.227632 -0.343763 0.223682 
107 1 8.0706 5.57533 3.79287 -0.413953 0.0504439 0.860947 
108 1 3.05396 2.90114 8.88553 -0.807055 0.631808 0.0676988 
109 1 9.03802 5.6881 6.88655 -0.15377 0.114695 0.210676 
110 1 -7.23836e-05 3.20183 7.66262 -0.936687 -0.245813 -0.706993 
111 1 2.34265 6.76809 0.361528 0.817427 1.39512 1.13678 
112 1 2.50791 5.38485 7.6093 0.0458672 -1.19896 0.176474 
113 1 4.64083 8.94907 8.52395 -0.708947 1.49064 -0.253109 
114 1 8.85844 6.88726 5.38762 0.214514 -0.405056 -0.550467 
115 1 4.19915 6.22 9.12921 -0.15645 1.04671 0.367926 
116 1 9.35202 2.45666 1.70144 -1.12909 -1.03319 -0.375846 
117 1 1.40994 2.02701 2.61209 -0.188779 0.722146 1.3312 
118 1 1.82406 1.1684 2.65011 -0.361464 -0.0446306 0.938208 
119 1 9.08403 0.151735 4.20652 1.35115 0.305355 0.275609 
120 1 1.36818 9.17109 0.747115 0.702181 0.36308 0.166853 
121 1 5.87551 6.01348 1.57536 -0.115967 1.10854 0.70855 
122 1 1.51776 1.46354 1.71848 0.417641 0.42106 1.31916 
123 1 3.74874 7.1362 2.10348 -0.179421 1.066 -0.0430643 
124 1 4.64937 8.8302 0.109181 -0.460247 -0.588777 -1.05806 
125 1 4.8893 2.38534 6.97984 0.400794 0.638944 -0.10235 
126 1 2.20236 2.07162 7.03964 -0.743257 1.70445 -0.752027 
127 1 6.4604 5.28042 1.9567 -0.723501 -1.85938 -0.493311 
128 1 5.40914 2.83276 6.08238 -1.07036 -0.204473 1.12633 
129 1 1.72772 7.82839 2.66295 0.526384 1.32673 -0.624409 
130 1 2.6075 6.88359 1.24639 -0.30791 -1.05083 -0.121638 
131 1 2.26464 2.25215 3.78731 1.11577 -1.13211 -0.495324 
132 1 0.840582 9.3271 7.12084 0.124881 0.138541 0.0214275 
133 1 0.70996 7.77026 9.22704 0.421634 0.692135 -0.0148446 
134 1 8.63995 7.53896 2.90243 -0.843541 -1.26267 0.475453 
135 1 0.264664 3.3896 3.32279 -0.776376 -0.555695 -0.562062 
136 1 8.26702 3.09949 5.54215 0.601103 -0.902906 -1.00994 
137 1 7.97978 6.90714 0.659522 0.669556 -0.242451 -0.961327 
138 1 3.58404 7.21776 5.58672 -1.48019 -0.595715 0.0949205 
139 1 4.15725 9.0118 5.4959 -0.079618 0.263366 -0.710749 
140 1 0.407879 5.7474 6.27054 0.348548 0.213881 -0.662958 
141 1 8.54102 9.17194 8.03291 1.0221 -0.502285 1.21195 
142 1 8.34922 6.3832 4.71387 0.992018 -0.581901 -1.585 
143 1 3.13888 6.6851 3.61767 0.656188 -1.69666 0.129799 
144 1 7.57419 9.2016 7.80633 -1.10351 0.165112 0.672377 
145 1 2.70282 4.74173 5.32562 -0.551003 -0.491401 -0.100158 
146 1 9.33391 1.71319 8.84979 -0.080272 -0.411303 -0.390496 
147 1 0.489619 2.86597 0.902238 0.512994 -0.247121 -0.775482 
148 1 6.35872 4.87643 4.88019 -0.520539 0.868292 -0.537223 
149 1 7.58617 0.239456 4.6644 0.194346 -0.155699 -0.435362 
150 1 8.69496 7.4785 0.427325 0.402142 -0.836266 -0.871834 
151 1 8.18121 3.46689 1.49386 0.103981 0.393747 -1.47537 
152 1 1.00755 3.70105 0.917958 -0.0159469 -0.111903 -0.432002 
153 1 0.745546 8.58671 3.321 0.720107 0.195987 -0.68634 
154 1 3.5546 7.35717 3.05367 -0.221699 -0.094825 -1.22658 
155 1 2.75525 8.40298 6.74839 0.384772 0.816539 0.363265 
156 1 3.44554 8.10047 4.64585 -1.082 -0.440012 -1.20656 
157 1 4.06953 5.05729 3.16455 0.438643 -1.10015 -0.868474 
158 1 2.61877 9.38054 6.17818 -0.288803 0.107575 -0.685131 
159 1 0.154355 2.44775 0.0465585 -0.37214 -0.247332 0.471194 
160 1 0.0593029 3.09657 2.42983 0.604081 -0.149415 -0.0690136 
161 1 7.06726 9.26606 2.66246 -2.0834 0.0348482 0.419342 
162 1 5.36423 0.552074 2.96687 2.38519 -0.607406 -0.343344 
163 1 8.10917 0.104726 1.77704 -0.476013 -0.0285419 -1.10853 
164 1 0.0595321 9.25847 1.84531 0.553659 -0.16847 -0.264106 
165 1 8.51608 1.64376 3.19946 1.07626 1.474 -0.129258 
166 1 5.8829 4.55502 5.65281 -0.989153 0.0167002 -0.956768 
167 1 0.840916 5.78482 4.79658 -0.171253 -0.247813 -0.263093 
168 1 7.34057 5.42689 6.08845 -0.140449 0.241063 -0.273514 
169 1 2.00608 1.54385 4.39195 0.204583 -0.754519 -1.27942 
170 1 8.53073 6.47375 7.12701 0.149642 -0.382708 -1.21369 
171 1 1.25837 9.36384 3.68602 0.611664 -0.972614 -0.50856 
172 1 7.04926 7.45407 3.22417 -2.13481 -0.753913 0.278989 
173 1 5.3455 5.29181 5.43664 0.0699035 -0.523756 -0.37819 
174 1 6.5462 5.48136 5.55592 0.120456 -0.576995 -0.0962947 
175 1 1.8903 7.04731 8.61043 0.535347 0.274788 -0.941195 
176 1 4.57002 6.09105 5.58328 0.722204 1.25982 -0.822804 
177 1 8.71742 3.77547 2.28917 0.623209 0.178017 -0.468576 
178 1 5.19356 0.749207 4.86782 -0.0479321 0.571182 1.36847 
179 1 5.77714 7.65753 4.24117 -0.261351 0.366432 0.726132 
180 1 0.0400684 7.06916 0.914902 -0.740635 0.91104 -0.36536 
181 1 6.8838 2.19597 1.68768 1.16535 -0.135078 0.313872 
182 1 5.40163 8.48154 9.02965 -0.0216502 0.633309 0.565553 
183 1 4.6383 8.40297 1.71941 -0.116963 -0.560117 -1.11564 
184 1 7.24863 4.84589 5.28368 -0.363136 -0.652863 1.44602 
185 1 5.14812 7.49181 4.97247 -0.773849 -0.35239 -1.08876 
186 1 0.815156 1.85428 4.14198 -0.891455 0.826538 -1.29815 
187 1 1.04801 6.67015 5.1755 -0.409074 -0.249277 0.388558 
188 1 7.25645 9.02839 1.62746 0.334142 -0.437101 -1.02623 
189 1 5.85753 1.94658 3.96219 -0.677525 0.66531 -0.283425 
190 1 2.21756 0.631187 7.65533 -0.790608 0.404969 0.336141 
191 1 7.39555 5.96172 5.24827 -0.00119465 0.488646 -0.230095 
192 1 7.90536 9.15819 0.916799 1.10104 0.356575 -0.903635 
193 1 1.77825 2.06006 9.33697 -0.416877 -0.702576 -0.412789 
194 1 6.43918 6.64497 1.15542 -0.593849 -0.43058 0.972239 
195 1 4.54718 1.05743 6.23255 -1.07251 -0.813183 0.900606 
196 1 7.04474 2.14207 2.6941 0.154939 0.0651972 -0.0271344 
197 1 2.9306 2.65746 6.99926 0.590164 -0.906062 -0.519493 
198 1 5.85247 5.14834 1.18596 -0.451911 -0.0583575 0.246482 
199 1 8.45017 2.39448 1.30798 -0.494616 -0.865169 0.21416 
200 1 6.76354 1.21004 7.54853 -0.106673 -1.67778 0.338277 
201 1 8.61416 4.92979 4.28743 -0.507819 -0.461868 -1.8589 
202 1 8.1367 5.97593 0.818965 -1.24014 0.585748 0.476945 
203 1 8.34134 1.37756 6.15152 0.104375 -0.387828 0.3383 
204 1 8.73959 5.98561 8.98609 0.0208533 -1.01358 0.32764 
205 1 9.04209 8.35253 8.11267 -1.30083 -1.21661 0.242728 
206 1 7.34796 6.39403 6.07896 -0.0977309 -0.568565 -0.416523 
207 1 7.16409 2.0824 8.02021 -0.130524 -0.944191 -1.02985 
208 1 1.52788 7.33775 0.0321962 -0.561792 0.564436 -0.263138 
209 1 7.79891 5.19473 2.70303 -0.21195 -0.65762 0.268241 
210 1 5.9177 5.84859 4.8757 -0.920762 0.384138 0.540468 
211 1 7.47056 8.72044 5.02946 0.617656 -0.22052 -0.598394 
212 1 6.04113 3.24052 4.88517 0.373318 -0.428271 -1.04615 
213 1 7.23351 0.655149 8.27824 0.372475 -0.0119665 0.593311 
214 1 8.08314 2.91076 7.49504 0.352973 -0.335177 -1.46407 
215 1 7.60565 3.2116 6.72805 -0.184269 -0.237538 1.52407 
216 1 8.5665 8.40218 3.77299 -0.85772 0.258904 -0.291501 
217 1 3.33352 7.74644 6.30627 0.705739 -0.44084 -0.209901 
218 1 3.08973 7.34968 0.548058 -0.35948 -0.0502423 -1.46695 
219 1 0.718875 3.18002 1.7637 -0.626225 -0.340035 0.9094 
220 1 8.38459 1.6245 8.87575 -0.0279801 -0.554988 -0.897447 
221 1 2.00837 0.0169044 2.57458 0.471498 0.188233 1.31004 
222 1 5.35804 5.89421 3.93236 1.00575 0.0373066 -0.521067 
223 1 3.26098 0.535162 7.48883 0.555013 0.533768 -0.439272 
224 1 5.42846 7.3808 3.26513 -2.02724 0.446069 2.64523 
225 1 7.03741 2.91942 7.57191 0.330211 0.120647 -0.422765 
226 1 8.27122 8.97661 4.45291 -0.78651 0.438175 0.399846 
227 1 4.34136 8.48387 3.3023 -0.418836 -1.51953 -0.645014 
228 1 7.19243 3.78895 2.82767 0.507751 -0.828428 -0.720159 
229 1 0.802517 2.56155 4.95035 -1.05476 1.00048 -0.463743 
230 1 1.95833 3.2096 5.83283 1.19697 -0.188369 0.523723 
231 1 9.34896 4.41115 5.91059 -0.317714 -0.0837604 0.895693 
232 1 4.74631 1.42888 7.07173 -0.128753 0.786219 1.29916 
233 1 2.76114 5.17755 0.546779 0.343909 0.101603 0.542974 
234 1 9.09128 7.94641 9.08223 -0.792172 0.992375 -0.820788 
235 1 7.20384 8.0587 9.27444 0.163088 -0.679838 1.09625 
236 1 2.90048 6.1701 5.12391 -0.709836 1.50707 -1.07518 
237 1 7.53102 7.76353 5.19633 -0.557611 -0.251034 -0.0481789 
238 1 4.07039 4.87937 7.67288 0.249738 0.732989 -0.463148 
239 1 0.0149455 5.16197 7.6727 -2.16213 -0.685776 -0.0434195 
240 1 5.53034 1.1987 6.48646 -0.335489 -0.60681 -0.227064 
241 1 3.97427 0.409345 3.81143 -0.983658 -0.116634 0.383772 
242 1 7.11972 4.34682 6.97262 -0.29087 -0.971112 1.75431 
243 1 6.88737 4.66258 1.38497 1.46883 0.362853 0.00543155 
244 1 3.79515 1.27213 5.68864 0.83162 0.0310833 0.88992 
245 1 4.03809 5.90318 1.36671 0.382787 -0.134335 -0.177735 
246 1 0.16587 1.25781 8.04837 -0.345219 -0.827176 1.40918 
247 1 6.99462 8.355 2.92103 0.575816 -0.153258 -0.0229223 
248 1 7.3632 5.94157 6.91702 -0.273206 -0.141843 0.248891 
249 1 4.04147 5.74452 6.2766 -0.896902 0.26571 -0.599986 
250 1 3.30499 5.28373 1.36265 0.147383 -0.512264 0.178857 
251 1 7.09985 0.76237 5.99365 0.363204 -0.497921 0.761843 
252 1 4.85207 7.18867 0.800474 0.615362 0.572853 -0.0215147 
253 1 4.83478 6.85038 2.64548 1.50053 1.8092 0.483627 
254 1 8.83633 4.66552 2.65095 -0.402915 -0.0239882 -0.0609142 
255 1 2.69577 9.00099 3.17144 1.60473 0.80643 0.875234 
256 1 0.227981 6.11382 0.91851 0.776361 -0.502327 -0.142571 
257 1 8.04191 2.17227 4.13693 0.0220719 -0.830061 0.891424 
258 1 3.91663 8.10443 5.50396 -0.942615 0.628221 0.618401 
259 1 7.34255 2.89765 5.85107 -0.658082 0.0847777 -0.108456 
260 1 3.12667 0.0273185 4.37569 0.0377691 0.234769 -1.43121 
261 1 3.54324 3.39606 7.33877 -1.68422 0.968525 -0.752525 
262 1 4.53478 0.48692 2.40376 -0.0426409 0.628523 0.361736 
263 1 2.03161 1.31937 8.5622 0.768385 -0.913173 0.321563 
264 1 8.1511 3.1205 3.81656 -0.42359 -0.0976188 -0.740251 
265 1 0.118448 7.9734 0.55193 0.456519 -1.52985 -0.234413 
266 1 7.39303 0.548172 1.27296 1.0881 0.684362 0.104349 
267 1 2.17645 5.38993 6.72414 1.32898 -1.19874 0.778125 
268 1 3.61638 6.58876 8.46952 0.179886 -0.309875 0.0929233 
269 1 0.56727 9.03271 5.33729 0.473856 0.409711 0.755557 
270 1 5.50478 6.37176 3.07151 -0.616826 1.30074 0.900593 
271 1 4.16456 7.48526 4.79447 -0.576674 0.127311 -0.975668 
272 1 4.70517 6.71672 4.56294 -0.451873 -0.289586 0.139299 
273 1 0.626536 7.25537 7.50741 -0.322307 -1.29469 -1.98061 
274 1 7.21006 6.3139 0.598443 -0.136804 -0.304964 0.0999853 
275 1 4.99799 4.25864 4.28512 -0.297369 -1.03951 0.396136 
276 1 5.06842 4.3123 7.16184 -0.680252 0.392232 0.360919 
277 1 0.390481 1.09604 5.67795 -0.0990115 0.189891 0.451203 
278 1 4.25391 8.95636 2.42109 1.2605 -0.958832 -1.28035 
279 1 6.70663 4.66971 6.09382 -0.448831 0.602686 0.454537 
280 1 6.70434 0.355153 1.9237 -0.301397 -0.24917 -0.596172 
281 1 8.02603 7.65719 6.74452 0.336339 -0.941706 1.53276 
282 1 1.00794 8.39411 6.88136 -0.679179 -0.757613 0.229222 
283 1 7.65921 8.85456 3.70352 -0.333202 0.821962 0.588713 
284 1 6.07231 7.14055 7.87692 0.307364 0.514137 -0.508231 
285 1 7.50834 9.29881 5.79748 0.829769 -0.330957 -0.31446 
286 1 0.264823 3.38424 4.85429 -1.87465 0.0931329 0.646184 
287 1 6.67948 5.6482 1.07782 -1.23252 1.69885 0.347438 
288 1 0.0904832 4.90381 6.69446 0.542424 -0.0456369 0.708283 
289 1 7.54412 3.7166 7.5826 0.0019776 -0.0370181 0.746004 
290 1 2.33444 1.23011 0.0484242 -0.197233 -0.325003 0.486121 
291 1 6.63451 1.38641 3.80911 0.396444 -0.451379 0.422918 
292 1 1.87749 7.96633 6.86745 -0.171975 -0.05421 0.496624 
293 1 8.11465 2.43948 2.91935 -0.970059 0.20328 0.0582888 
294 1 5.82422 4.14865 4.75745 1.27861 0.32594 0.108571 
295 1 5.00928 0.47386 3.95755 -1.43423 -0.76829 -1.19887 
296 1 3.59218 6.79559 1.14345 -0.26348 -1.09369 0.384635 
297 1 9.31533 8.09442 3.26031 0.446824 0.496689 -0.585336 
298 1 8.42817 5.09346 1.00455 -0.82701 0.377968 0.83404 
299 1 3.55913 5.82714 3.39835 0.70297 -0.293432 -1.16858 
300 1 3.33188 5.41829 5.66174 -0.294734 -0.680339 1.1998 
301 1 6.19289 5.40439 4.05713 0.795183 2.63166 -0.909715 
302 1 5.60719 3.65396 5.60503 -0.150893 -0.463955 1.12353 
303 1 7.2705 3.81819 1.83557 0.0339048 1.38712 0.292844 
304 1 9.28469 9.32225 8.60865 -0.500853 0.482492 0.83278 
305 1 1.96399 7.8331 5.34047 -0.0400998 1.30474 1.05531 
306 1 3.6945 8.39631 1.63025 0.760806 0.771183 0.158312 
307 1 5.90274 2.32414 5.29647 0.203222 -1.08905 0.877732 
308 1 8.84394 9.31068 1.06477 0.518568 0.46186 -0.456146 
309 1 6.83713 6.15028 1.87093 0.180536 -0.0584154 -1.00046 
310 1 8.57345 8.4294 0.69068 0.590326 -0.13988 -0.751179 
311 1 7.3201 4.60528 3.27931 -0.830784 0.256645 0.974565 
312 1 3.90644 4.46909 8.532 -0.354561 0.693857 -0.0490003 
313 1 8.07823 3.83925 3.15999 1.37536 -1.83121 -0.809172 
314 1 5.21397 7.57101 5.9771 0.65239 -0.0537561 -1.22487 
315 1 0.224103 2.91066 8.58232 -1.31727 0.0564352 0.398575 
316 1 1.66841 9.22566 9.23939 0.356012 -0.859546 1.20207 
317 1 4.297 7.64944 6.2399 -1.04702 0.956926 -0.0400846 
318 1 6.00603 2.08363 6.26359 -0.550943 -0.148138 1.2225 
319 1 8.32522 7.56698 5.79968 0.802592 -0.254461 -0.170033 
320 1 1.35024 8.51172 5.12278 0.625613 -0.584989 -0.422492 
321 1 7.88494 1.42104 0.387789 0.640937 -0.613102 0.48472 
322 1 2.87431 2.9301 4.22437 1.83819 0.321014 -0.626789 
323 1 7.04292 8.04022 1.59694 -1.66981 -0.627373 0.810469 
324 1 0.858663 6.57081 6.09435 -1.10742 -1.35635 0.231197 
325 1 0.0374474 4.20688 7.53322 -0.284479 0.916449 1.30657 
326 1 5.73899 4.63069 3.71468 0.6924 0.235881 1.2001 
327 1 0.750206 0.913946 4.79267 0.475465 0.898674 -0.389946 
328 1 8.72727 0.444978 5.90741 -0.35555 -0.313411 -1.45287 
329 1 0.810223 1.27703 2.32418 -1.47185 -0.508555 0.58225 
330 1 9.34394 0.783876 0.915731 0.562816 -0.0432951 -1.01037 
331 1 7.79343 6.10392 3.0454 -1.27993 -0.502193 -0.319326 
332 1 7.09789 7.28111 0.867256 0.0133483 -0.650434 -1.05799 
333 1 2.86474 3.29326 6.29303 -0.607469 -0.0295807 0.31929 
334 1 6.18399 0.957576 2.4796 0.0678912 -0.439521 -0.242884 
335 1 0.711235 7.83 2.7188 1.00439 -1.52618 -0.262933 
336 1 6.33661 1.62714 4.73777 -1.21384 1.22038 -0.888529 
337 1 4.67865 6.17043 6.90851 0.922459 -0.455038 -0.814585 
338 1 1.73353 6.18348 6.37003 -0.0435553 -0.0537127 -0.632545 
339 1 0.271812 1.74165 4.96543 0.159806 -0.448014 1.08682 
340 1 4.23462 9.08128 7.14867 0.49946 -0.886739 1.28758 
341 1 0.368604 8.5014 8.69238 -0.608064 0.681519 0.268144 
342 1 8.60924 4.13342 9.10213 -1.78738 0.593655 -0.201996 
343 1 1.73087 4.15054 4.75355 0.141432 1.57545 0.498271 
344 1 8.58151 2.79768 4.66388 0.389956 0.283912 0.797384 
345 1 4.88918 5.78615 4.74789 -0.0591047 0.374068 -0.337588 
346 1 2.21451 7.54098 7.6261 -0.719495 0.282351 -0.85892 
347 1 0.064264 8.88107 2.72925 0.0626205 -0.554141 0.630415 
348 1 3.9021 6.5368 5.04117 0.596988 1.42423 -0.513411 
349 1 5.33383 6.55231 5.20502 1.637 -0.442589 -1.30599 
350 1 6.86364 8.30479 5.68931 0.735401 0.674668 -0.391181 
351 1 0.145622 6.58825 6.93409 -0.111229 1.02981 0.66471 
352 1 8.27569 0.649525 0.88218 1.06534 1.43046 -0.382521 
353 1 5.66526 3.69959 3.94091 0.482838 0.0540162 -0.0217351 
354 1 8.13005 5.13217 5.59321 -1.23977 0.567245 -0.319552 
355 1 6.00597 4.44082 1.79105 -1.29325 1.83409 -0.300265 
356 1 3.8009 3.14813 5.52365 -1.71886 1.26911 0.832281 
357 1 2.60745 3.57188 7.17856 -1.37029 -0.194092 0.317702 
358 1 6.98132 2.0987 6.27471 1.45861 -0.865311 -0.170949 
359 1 0.271973 7.25375 4.98527 0.697534 1.23976 0.089633 
360 1 7.41427 2.95564 3.22685 -0.128957 -0.722977 -0.651449 
361 1 2.56076 5.92135 0.0117809 1.39813 1.04175 0.369683 
362 1 0.332611 4.63619 8.38378 -0.303776 0.387749 -0.099668 
363 1 5.68916 6.13216 6.80784 -1.42644 -0.45066 0.50715 
364 1 2.78102 4.82864 6.25091 0.663151 0.0527673 -0.145321 
365 1 2.19718 1.23401 1.02766 -0.64333 0.842239 -0.699808 
366 1 6.63418 6.92807 6.38406 1.52568 -0.794492 -0.361233 
367 1 2.63344 8.15423 0.713021 -0.727336 0.28777 1.06594 
368 1 6.11929 0.78715 5.04866 0.578968 0.306252 -1.10215 
369 1 1.46434 8.22069 7.69966 0.347994 0.198365 0.50507 
370 1 3.63713 8.15012 0.68399 0.653961 0.213523 0.51418 
371 1 9.05164 2.30423 2.78023 0.754147 0.53158 -1.10153 
372 1 8.46339 0.579562 4.75955 0.721593 1.59853 0.705117 
373 1 7.51196 5.24267 0.845833 -0.00104437 -1.02861 0.256757 
374 1 0.507644 8.24984 5.97379 0.283277 -0.254138 -0.250985 
375 1 1.52166 2.18594 6.32755 -0.000676951 0.068994 -1.14345 
376 1 4.44041 5.09539 5.68308 0.60354 -0.753858 0.247672 
377 1 5.83373 9.17483 7.38319 -0.097464 -1.35755 0.38956 
378 1 8.61988 3.10845 8.25521 -0.861323 -0.0320853 -1.13909 
379 1 6.99442 1.12657 2.95926 1.17334 -0.695876 -0.473842 
380 1 1.01858 2.92082 5.88619 0.587711 1.02275 1.2244 
381 1 7.40957 6.92488 6.96421 0.237309 0.335889 -0.906967 
382 1 9.25033 6.08857 7.71377 -0.689839 0.121299 -0.340293 
383 1 5.53184 5.26106 2.14618 -0.515959 0.510211 1.25308 
384 1 4.83046 7.59314 4.08564 -0.596029 -0.70734 0.641553 
385 1 4.75669 5.62204 7.66772 0.838556 0.615875 0.674977 
386 1 7.91589 4.31102 2.34871 -0.263442 -1.39475 -0.902813 
387 1 7.90855 8.54099 7.09046 1.95598 -1.81105 1.50211 
388 1 1.5286 0.320962 8.29503 0.010225 -0.961556 -0.448727 
389 1 2.43438 3.60313 9.01628 -0.217462 0.019388 -0.370647 
390 1 4.13674 6.26129 2.28574 -0.484452 1.35466 0.406841 
391 1 0.0768363 2.48851 4.34698 0.530045 0.833363 -0.0483544 
392 1 0.986327 8.94312 8.09349 0.721027 -0.209956 -0.798268 
393 1 6.16768 0.689791 5.97365 0.5833 -0.466862 0.262637 
394 1 8.05278 6.92074 2.21637 0.056259 -0.453823 1.65902 
395 1 1.52432 4.50362 6.63541 -0.0227016 -0.424373 -0.250011 
396 1 2.89874 3.51281 0.505817 0.0595039 -2.0086 0.141839 
397 1 5.58832 5.40792 3.14456 -1.87012 0.144453 0.628312 
398 1 8.9156 4.71226 5.15004 0.291381 -0.601459 -0.224858 
399 1 5.78 7.17864 0.71596 -0.705694 -0.96815 -0.988313 
400 1 1.07641 6.54653 7.00218 -0.44064 1.35407 0.580252 
401 1 8.83235 9.20904 3.38349 -1.87115 1.1523 -1.50172 
402 1 1.88263 8.87963 6.617 -0.0574901 -0.584919 1.29387 
403 1 0.197483 7.24894 6.00102 1.34386 0.967049 -1.50489 
404 1 5.80907 9.3756 5.42776 -0.33671 -0.0507927 -0.505248 
405 1 8.30169 6.07764 5.59339 1.13454 0.729465 -1.08601 
406 1 1.94467 6.32442 5.39189 1.18136 -0.736293 0.520747 
407 1 8.29147 7.36528 4.76063 0.525318 -0.284509 1.53816 
408 1 6.98339 2.99427 2.25198 -0.0677389 -0.131517 -0.395199 
409 1 2.97658 4.27574 8.62784 -0.516631 0.29724 -0.842838 
410 1 2.45895 2.37797 6.11788 -1.19168 -0.354473 0.517188 
411 1 1.13254 2.94284 8.14627 1.13749 0.0566791 -0.285911 
412 1 1.68015 4.97479 7.4318 -1.55118 -0.218825 -0.57362 
413 1 2.38963 0.654836 4.28995 1.30941 0.876235 -0.0318252 
414 1 1.76304 3.65202 8.25484 0.00818436 -0.255338 -1.38189 
415 1 8.02903 4.50642 0.395252 -0.164542 0.553917 1.3917 
416 1 1.79759 1.48608 7.66437 -0.217109 0.60377 0.220283 
417 1 3.66361 9.178 3.1953 1.07333 -1.14963 0.239494 
418 1 6.74552 2.32353 3.60394 0.102275 -0.223368 0.295873 
419 1 4.09774 6.53918 7.55646 -0.109624 -0.271803 -0.807104 
420 1 3.25531 4.22468 7.72076 -0.884457 0.337583 1.26424 
421 1 2.14465 3.10569 4.88006 -0.304279 1.04425 -1.45898 
422 1 0.203436 4.20483 9.23172 0.544694 0.100237 1.28904 
423 1 0.747963 6.34626 7.96439 1.06401 0.718141 0.515567 
424 1 6.2031 7.54733 1.50365 0.944607 -1.13517 0.473269 
425 1 3.84172 7.3847 7.04189 1.11769 -0.989964 0.193247 
426 1 1.28255 7.80396 1.74332 -0.994785 -0.245055 -1.48384 
427 1 8.8908 7.2427 6.65663 -1.33412 -2.00999 0.386232 
428 1 6.66598 3.75901 1.09934 0.87515 0.277451 -1.08112 
429 1 7.00964 8.16367 3.86201 -0.21794 -0.589071 0.74804 
430 1 8.06833 8.35157 8.02688 -0.51013 -0.12766 -0.179092 
431 1 2.30721 9.02696 0.576378 0.914867 -1.49021 -0.83007 
432 1 1.55397 4.11528 5.69216 0.440929 0.0578733 0.718131 
433 1 1.00536 7.59717 5.49016 -0.189407 -0.572863 1.11277 
434 1 1.00185 9.23441 1.61972 -0.275709 0.632201 1.39276 
435 1 6.72571 5.20865 6.90565 -0.355536 -0.891835 -0.969461 
436 1 5.38441 1.69137 4.73612 0.293769 -0.70168 -0.402027 
437 1 8.90795 0.802132 8.66266 -1.74117 -0.535409 0.423021 
438 1 4.05935 2.19037 5.50438 0.774395 -0.0553062 -1.29121 
439 1 0.800973 3.01682 4.07984 2.35194 0.0481362 0.219778 
440 1 2.68502 3.52101 8.1109 -1.26243 -0.385986 -1.11676 
441 1 5.23775 0.617442 5.80398 -0.684005 1.17025 -1.14241 
442 1 6.11309 0.00575056 2.6293 -0.246283 -1.2246 -1.31558 
443 1 1.83662 0.408623 6.77727 1.3031 -0.794269 0.678859 
444 1 8.56868 7.55012 8.32072 0.82442 1.18504 -0.85773 
445 1 7.01618 6.37659 8.92627 -0.15126 1.08143 -0.576607 
446 1 8.77297 4.25311 1.38987 -0.390024 -0.649716 0.317826 
447 1 1.90289 8.31198 4.16446 0.436944 -1.07958 0.0446548 
448 1 8.54035 8.69304 8.85058 -1.14913 0.0842599 -0.319455 
449 1 8.83883 5.8387 1.46071 0.253146 0.0874373 -0.192063 
450 1 8.21906 0.0870445 7.20178 -0.0414071 0.144882 -0.308122 
451 1 3.22918 4.11627 6.74064 -0.432109 0.364045 1.89463 
452 1 4.97869 4.64505 1.70617 0.96453 -0.0109233 -0.382525 
453 1 7.62622 4.49141 6.10387 0.249555 0.867088 0.272035 
454 1 7.63769 6.45489 1.46522 -0.0760326 1.34926 0.558779 
455 1 7.87103 3.29498 2.41315 -1.02786 -1.36443 -0.125948 
456 1 3.2223 5.11115 8.1916 -0.260901 -0.412863 0.662149 
457 1 2.73547 6.66662 8.87298 -0.740404 -0.955434 0.0283348 
458 1 8.67664 1.47206 1.13473 -0.171172 -0.324639 -1.0596 
459 1 3.3756 8.6803 6.06133 -0.232427 0.610774 -0.330317 
460 1 0.201026 6.23692 5.43123 -0.48537 -0.970968 -0.544106 
461 1 8.92892 5.65815 4.98522 -0.954127 0.728501 -0.776719 
462 1 2.91713 0.412739 0.198929 -0.513364 -0.399871 -1.48749 
463 1 8.26435 4.73195 3.40876 0.128193 0.775749 0.986453 
464 1 9.0186 7.93067 4.49755 0.115566 -0.412823 -0.0142395 
465 1 4.0985 0.00974251 4.64976 -1.23105 -0.921084 0.355687 
466 1 6.85617 2.27641 5.29356 0.909365 1.02519 0.604791 
467 1 2.26976 4.00549 6.32265 -0.32902 0.661129 0.214293 
468 1 3.11225 5.68287 6.57465 -0.0635143 0.462979 0.0102838 
469 1 3.57072 0.395988 2.51332 -0.362136 1.35697 1.12052 
470 1 8.33411 9.06067 6.35361 -0.387154 -0.290412 -1.257 
471 1 8.39993 2.00824 7.19072 0.524331 0.016359 -0.302604 
472 1 6.9959 5.69617 2.68624 -0.0850989 -0.409227 0.81251 
473 1 5.45595 5.04155 4.53704 0.298008 1.07803 0.813486 
474 1 6.19293 6.80384 2.14853 0.412751 -1.45339 0.206806 
475 1 7.58409 7.23338 4.03523 -0.482525 -0.45552 2.04238 
476 1 8.05984 1.07328 1.73751 0.988899 -0.0200628 -0.251233 
477 1 7.10636 6.54672 3.54224 0.299415 1.12944 0.540155 
478 1 0.941157 5.37443 8.01409 -1.8549 -1.72222 -0.311147 
479 1 9.38022 0.338664 0.0818451 -1.01753 -0.636602 0.273738 
480 1 1.65333 6.16945 8.32301 -0.336591 1.36461 0.454258 
481 1 2.53774 7.76142 4.61718 1.55712 -1.61204 -0.421233 
482 1 2.2834 2.84098 0.158811 0.240941 -0.77993 0.571238 
483 1 4.1582 4.33172 3.88511 0.0898287 0.785841 -0.196024 
484 1 1.68766 3.36814 4.12052 -0.360323 -1.32994 -0.56253 
485 1 1.69822 9.19093 7.51211 -0.789903 -0.170646 -0.642602 
486 1 7.89513 0.918845 3.23992 -0.15679 -0.848729 0.708302 
487 1 3.40184 7.32211 9.06725 -0.648175 0.621645 -0.0425067 
488 1 1.32987 1.31267 5.85775 -0.194226 0.679694 0.212409 
489 1 7.80283 7.85871 0.600635 -1.09308 -0.285554 0.27626 
490 1 5.00637 6.71819 9.34986 -1.17632 1.16018 1.45616 
491 1 0.358134 0.78147 7.17496 -0.597163 0.219217 -0.323511 
492 1 4.48229 7.53118 3.18126 -0.324527 -1.34513 0.16536 
493 1 2.97421 7.96049 5.43926 -0.84948 0.783905 -0.709752 
494 1 8.68491 7.84484 7.38928 0.095339 -0.334899 0.0461244 
495 1 1.17264 3.643 3.37946 -0.793238 0.615187 -0.512679 
496 1 7.90835 6.29696 9.33826 -0.186148 0.241266 -0.224732 
497 1 3.87341 5.70207 7.19887 -0.219429 -0.73039 0.323865 
498 1 6.43309 2.52548 4.46301 -1.38176 -1.20167 1.03156 
499 1 0.850127 0.561636 0.420512 -0.607924 0.550202 -0.0617481 
500 1 1.07751 0.413207 5.52958 -0.705322 0.170104 0.470329 
501 1 0.440495 7.78753 4.00465 0.619754 0.720573 -1.27252 
502 1 0.741153 2.03766 5.73133 -0.690902 1.19551 -0.267488 
503 1 9.33975 1.40475 2.73147 0.654491 0.312786 1.09921 
504 1 7.02864 5.43215 4.55344 -1.14856 0.224 -0.775331 
505 1 4.62413 9.38398 3.21724 -0.139144 1.13044 -1.41906 
506 1 3.95553 5.74024 8.16565 -0.155923 -0.892847 -0.148261 