ITEM: TIMESTEP
2059
ITEM: NUMBER OF ATOMS
1000
ITEM: BOX BOUNDS pp pp pp
0.0000000000000000e+00 9.4000000000000004e+00
0.0000000000000000e+00 9.4000000000000004e+00
0.0000000000000000e+00 9.4000000000000004e+00
ITEM: ATOMS id type x y z vx vy vz 
1 1 8.22415 4.07742 5.06368 0.397244 -0.677649 0.685226 
2 1 9.11814 3.22308 2.7569 0.543251 1.25776 -1.10271 
3 1 8.37406 4.54467 5.89826 -0.721339 0.616885 0.636844 
4 1 0.512842 2.01243 2.42998 -0.356788 -0.194103 0.272105 
5 1 3.72821 5.56951 6.73434 -0.187058 -0.420058 -0.751168 
6 1 7.88844 0.570463 8.24663 0.600937 0.0744245 -1.36229 
7 1 4.41462 4.13819 6.238 0.324496 -0.766611 0.0452913 
8 1 0.433802 0.366443 2.61543 0.207932 0.409058 0.776233 
9 1 7.1543 5.64902 5.49459 -0.512974 0.339003 -0.242776 
10 1 5.19944 2.66437 2.36918 -0.263667 -0.728981 -0.453719 
11 1 8.65121 5.02062 5.09956 0.290873 0.664423 -0.365179 
12 1 0.0968218 2.04628 8.6533 0.258327 0.40175 -0.737051 
13 1 7.37009 0.417939 6.64704 -0.969538 0.227932 -0.405049 
14 1 7.35675 5.26827 2.11291 0.177896 1.01131 0.965057 
15 1 4.93417 7.32658 7.87754 0.678631 -0.724944 0.465978 
16 1 1.03762 0.448985 8.77093 -0.0431276 -0.305865 1.48239 
17 1 9.34119 4.47818 1.09987 0.142699 0.250395 -0.945736 
18 1 6.17989 7.52259 9.27294 -1.09048 -1.62757 -0.456861 
19 1 0.19374 2.47145 3.17176 0.717463 -0.462832 0.0894163 
20 1 4.72691 3.70335 3.06285 0.0818031 -0.218663 0.239928 
21 1 2.58887 2.63705 5.66998 0.957803 0.24726 0.778942 
22 1 1.9632 0.792451 3.59446 -1.22151 -0.448934 -0.218943 
23 1 3.36359 1.95823 0.979105 -0.403679 1.56475 0.811502 
24 1 8.11512 3.37138 7.50809 0.146299 0.51071 -0.788062 
25 1 7.61686 4.78663 5.33188 -0.0590749 0.171621 -0.510184 
26 1 5.32027 7.62401 6.32444 -1.52115 0.832877 -0.645622 
27 1 4.7357 6.08335 9.01499 -0.8844 -0.0164507 -0.290289 
28 1 6.16661 6.69946 8.6858 -0.724879 0.112613 -1.21538 
29 1 8.60812 0.612399 5.00232 -0.327366 -0.0756431 0.282219 
30 1 1.67395 8.62199 2.4452 -0.0731163 -0.30897 -0.50608 
31 1 1.20883 5.38148 2.33787 0.333046 0.82678 0.0223915 
32 1 2.31039 7.10241 1.30329 -0.185038 1.15124 1.60288 
33 1 8.11569 2.05795 2.56228 0.52719 -0.757402 0.0735789 
34 1 2.52965 3.49177 3.97832 -0.299457 -2.19338 0.763124 
35 1 6.97121 7.02127 9.19857 1.41497 0.620039 -0.0551921 
36 1 5.35793 0.657508 4.87951 -1.21818 0.579841 -0.248628 
37 1 4.68887 2.83255 1.57067 -0.468579 -1.10316 -0.0357675 
38 1 6.4091 7.4063 7.51405 -0.456545 0.706681 0.057129 
39 1 8.00968 4.33306 3.57614 0.880739 0.892404 -0.386109 
40 1 8.45459 1.33997 8.35456 -1.25649 -0.486684 -1.32819 
41 1 6.65509 5.14014 7.66846 1.82082 0.966346 -0.637172 
42 1 4.46429 1.87219 3.0893 -0.590283 -1.6746 0.211367 
43 1 3.55732 4.07039 7.82338 -0.536941 -0.826575 2.07658 
44 1 0.816789 3.70856 8.97916 0.644703 -0.275623 -0.169447 
45 1 4.61436 3.91293 4.36634 0.600642 0.367472 1.25275 
46 1 6.01611 7.12775 6.71302 0.626947 0.199752 -1.54676 
47 1 6.83416 7.15729 2.34649 -1.40758 0.676813 -0.712558 
48 1 0.486473 3.85464 5.36741 -0.128051 -0.0165858 1.18227 
49 1 7.31327 7.98216 2.28504 -0.318629 -0.287329 -1.08059 
50 1 3.24838 1.98104 7.17759 0.312106 0.670432 1.88596 
51 1 8.18257 0.54116 0.679767 -0.135198 0.413326 -0.656802 
52 1 5.35017 8.03394 2.53886 -0.097852 0.427037 -0.382105 
53 1 8.57924 7.5957 1.12262 0.512895 0.320913 0.331574 
54 1 5.56413 7.80869 0.572331 -0.549344 -0.576974 1.0458 
55 1 2.59906 5.1814 5.74261 0.00336945 -1.34433 0.31089 
56 1 0.137924 3.94725 3.98868 0.587357 0.857266 -0.085595 
57 1 4.34965 8.61861 8.41942 0.618774 -1.12346 0.903368 
58 1 5.0644 8.49702 6.56607 -0.0598634 -0.76999 0.773882 
59 1 3.2754 8.03334 0.539761 -0.658575 -0.553938 -0.350968 
60 1 8.26093 3.86342 6.69017 0.530138 1.98321 -1.24456 
61 1 2.49691 6.95506 9.28358 0.93458 -0.33364 -0.999532 
62 1 3.82387 1.5289 1.69403 0.0874232 -0.463128 0.128924 
63 1 0.212898 6.22859 1.16229 0.842777 0.0754535 1.12108 
64 1 7.16956 8.51625 1.48304 -0.857088 -0.149108 -0.212647 
65 1 3.11996 4.4987 5.30445 0.484404 0.782729 0.474492 
66 1 4.46611 3.73709 1.46309 0.706308 0.573815 0.64202 
67 1 7.84525 6.56007 9.34237 -1.16468 -0.0856744 1.89052 
68 1 2.19882 6.04974 5.69561 1.86596 0.360795 0.46696 
69 1 7.683 9.34945 1.36656 0.0754379 0.552434 0.00820335 
70 1 7.79819 6.98334 6.33941 0.906427 -0.184514 0.39905 
71 1 2.6368 7.10745 3.07451 -0.201551 2.08456 0.420003 
72 1 5.83618 8.92004 2.6051 0.267321 -0.577984 -0.0691955 
73 1 8.53609 7.63969 5.16552 -0.72425 -0.189558 1.24637 
74 1 2.68412 0.150635 0.340622 0.378432 -0.205375 0.573991 
75 1 7.64749 8.06454 8.53561 -0.677472 -0.822095 -0.331631 
76 1 3.04621 7.13011 0.672668 -0.628564 1.24643 -0.359106 
77 1 4.40337 5.47383 5.42292 -0.113827 0.143365 0.108147 
78 1 7.72186 0.0990633 9.24592 -0.105792 0.09481 0.185398 
79 1 4.24999 5.21692 8.95911 -0.530669 -0.132631 0.666586 
80 1 8.73768 8.79862 2.09125 0.308058 -0.0652061 0.856039 
81 1 1.98479 4.29792 7.61901 -1.98424 -0.385476 -0.00893569 
82 1 8.75144 7.04738 1.85996 1.28362 0.0653672 -0.199733 
83 1 0.328902 0.549782 8.03205 0.918386 -0.111447 -1.53405 
84 1 3.65088 5.19745 4.85374 0.365317 -0.913274 -0.117108 
85 1 1.58992 0.499861 4.41447 0.428032 -1.15652 0.0652175 
86 1 3.96372 2.80265 4.75422 -0.622315 -0.232396 -0.02845 
87 1 7.68738 3.48477 3.99488 0.0222258 0.0807727 -0.516734 
88 1 5.86801 9.09531 8.17167 -0.634887 -0.433558 -1.16693 
89 1 3.59058 0.574402 3.21181 0.759344 1.6959 -1.51564 
90 1 0.0524942 1.93056 1.60719 0.632755 0.119979 0.397599 
91 1 2.13326 3.05271 1.43839 0.0784177 0.448286 0.292735 
92 1 0.741856 0.908462 4.0299 0.952136 -0.0340739 0.76346 
93 1 4.5768 8.01225 1.96576 1.21955 -1.9483 0.147484 
94 1 5.06111 6.94389 6.98882 -0.853505 0.0350025 0.628196 
95 1 1.29617 1.94399 0.103613 -0.0415627 -0.729283 0.897485 
96 1 8.42284 2.21627 0.500975 0.304041 0.58339 0.101588 
97 1 8.32598 0.796386 9.12109 1.00938 0.104237 1.21352 
98 1 7.56371 9.18829 5.9162 0.44178 -0.484193 -0.169326 
99 1 7.36248 0.0771352 2.94863 -0.526164 0.107226 0.800498 
100 1 3.62028 2.16054 8.02326 -1.20203 0.91412 -0.110394 
101 1 2.88452 1.55154 1.97472 -0.530456 -0.0714972 -0.508388 
102 1 8.31579 8.58542 6.17457 -0.479193 0.342896 -0.736497 
103 1 1.73612 6.15954 2.43927 -1.40096 -0.73978 0.253728 
104 1 1.8577 5.70002 0.45609 0.697826 -0.498741 2.04875 
105 1 2.50112 5.1526 7.66671 0.60722 0.706977 0.799987 
106 1 0.79832 5.5169 4.00997 1.65431 -1.19809 0.250895 
107 1 4.72505 1.26918 1.4956 -1.64307 -0.473977 -0.093417 
108 1 6.76801 4.95693 1.41389 0.289321 -0.00365944 -0.206219 
109 1 6.13389 8.25842 7.75972 1.03092 -0.845478 1.22617 
110 1 8.40941 2.21246 1.60652 -0.290619 -0.0880842 0.395603 
111 1 0.0794562 0.799609 4.74628 0.0171715 1.1077 0.992113 
112 1 3.57138 7.44367 6.86639 0.270995 -0.762518 -0.0168707 
113 1 3.21573 6.82414 7.59397 -1.69181 -0.514143 -1.21504 
114 1 8.10082 3.62546 9.18969 -0.379171 0.689526 0.149133 
115 1 5.02804 4.24232 8.675 0.428788 0.602834 -0.1976 
116 1 0.331644 0.240581 5.4948 0.594989 -0.892372 0.820615 
117 1 4.93071 1.07811 7.21586 -0.478639 0.827643 -1.26795 
118 1 4.44379 1.05457 4.94026 -0.998467 1.09174 -0.399287 
119 1 8.80503 1.67327 9.20968 -1.2815 -0.537029 -0.00282227 
120 1 0.0908282 3.49536 6.56157 -1.10877 1.42104 -0.079624 
121 1 6.55104 1.90079 5.66176 0.706804 0.798471 -0.360775 
122 1 4.72613 2.11696 4.84564 1.90437 0.552087 1.0436 
123 1 1.70091 6.99782 2.93697 0.262575 0.590138 -0.0422058 
124 1 5.16569 3.30053 8.38407 0.150065 -0.876534 -1.87279 
125 1 6.52266 2.88034 7.99325 -0.367695 0.835682 -0.482466 
126 1 6.93203 8.56652 8.11776 -1.37806 0.248533 -1.30959 
127 1 7.89049 6.36036 5.53714 -0.863809 -1.48312 0.362978 
128 1 5.24535 2.02564 7.14278 1.3227 0.655908 0.283675 
129 1 4.19081 6.94698 7.39773 0.460456 0.87661 -1.22384 
130 1 0.924675 2.8051 0.0137683 0.087282 -0.182276 0.939452 
131 1 7.974 3.62244 5.84065 0.479781 -0.826856 -1.86485 
132 1 8.50863 6.7017 8.65105 0.0435454 -0.731931 0.795856 
133 1 1.82563 5.43013 5.05182 0.242173 1.02651 0.286943 
134 1 1.20467 0.791107 2.27705 -0.754963 0.194942 0.901472 
135 1 8.28528 9.21503 4.50435 -0.401086 0.791227 -2.00134 
136 1 4.87903 3.09243 4.81304 0.114376 -0.769603 -0.432779 
137 1 5.14809 6.71368 6.05807 0.679888 1.4281 -1.82027 
138 1 6.97632 8.33365 7.17004 0.350167 1.6811 -2.48385 
139 1 8.0701 5.8082 8.77856 -1.26826 1.85586 -0.734059 
140 1 1.39348 4.98649 3.48625 0.88221 -0.90877 -0.857632 
141 1 4.09615 8.84522 1.74539 -1.08772 0.227434 -0.990606 
142 1 1.97696 1.28676 6.42739 -1.82989 -0.00567093 -0.441074 
143 1 3.53435 8.05498 6.08976 -0.0113175 -1.2581 -0.819267 
144 1 5.61537 3.1049 6.32419 0.207834 -0.112425 -0.254305 
145 1 3.56418 1.44029 6.3297 -0.196774 -0.957252 -0.369663 
146 1 9.38092 5.42248 4.58418 0.218099 -0.561417 1.03491 
147 1 0.579104 4.63138 4.46991 0.381018 0.877589 -0.087516 
148 1 0.394897 8.92532 0.281863 -0.719665 0.624404 -1.13065 
149 1 1.40341 5.37522 1.33016 0.8546 1.22979 -0.202308 
150 1 3.63475 4.63719 6.52832 -0.462049 0.987862 -1.15245 
151 1 7.67976 6.60931 3.08987 1.1172 0.0143705 -0.564941 
152 1 7.2067 5.84142 7.27379 0.972885 -0.69406 -0.175817 
153 1 4.15773 4.28507 9.07546 0.123483 -0.0947011 0.424519 
154 1 2.7263 4.78808 2.45146 -0.686444 -0.061284 0.677358 
155 1 0.0619593 7.23951 1.19882 0.323972 -0.133105 -0.0416697 
156 1 2.16842 1.79107 5.6238 0.479549 0.0637003 -0.818633 
157 1 6.47148 8.13358 0.685043 -1.75317 0.493093 -1.16212 
158 1 3.1954 5.62137 8.18098 0.298057 0.287249 0.0493212 
159 1 2.16363 8.48183 4.05001 0.305157 -0.809297 -0.706206 
160 1 5.79044 4.33573 8.12979 0.668735 1.3679 0.195289 
161 1 5.93996 4.34907 5.37279 0.298021 0.0412621 1.15716 
162 1 7.67729 5.29253 3.70669 -1.15695 1.38465 -1.00439 
163 1 2.90412 1.30696 2.90833 1.41095 0.959146 0.879201 
164 1 7.98836 1.06596 2.66562 0.530615 0.593842 0.475195 
165 1 7.35993 4.11794 4.6133 -0.54981 -0.725628 1.24599 
166 1 8.25645 4.85185 2.37059 0.762245 0.362807 -1.82592 
167 1 3.32146 2.90899 7.14208 -0.0377939 -0.632098 0.730753 
168 1 7.78886 8.80316 2.18094 -1.03896 1.06807 -1.43884 
169 1 2.10403 1.42216 0.177571 0.71164 0.659129 -0.513279 
170 1 3.67592 5.79965 2.6287 -0.00137422 0.0453874 -0.285574 
171 1 1.18439 4.83879 7.40464 -1.19912 -0.0752293 1.07006 
172 1 5.84886 3.88198 6.88356 0.853107 -0.691515 -0.579065 
173 1 9.13935 4.19734 4.86838 1.44499 2.21662 0.0354758 
174 1 6.03829 1.90535 3.91618 -0.454575 0.129792 -2.06355 
175 1 7.31358 5.36315 6.37715 0.275643 0.91462 0.416427 
176 1 6.9718 3.22018 3.31596 0.592698 0.500068 -0.105612 
177 1 3.09209 8.73286 3.74647 -0.400128 -0.941561 0.117815 
178 1 8.96346 4.73266 4.11041 -0.481047 0.0642257 0.63785 
179 1 2.78385 7.92685 1.34426 -0.419877 0.340054 0.515173 
180 1 9.16977 2.16338 3.96198 -1.09829 -0.0966806 -1.38111 
181 1 2.51313 6.3597 0.667216 -0.171423 0.25275 0.681132 
182 1 4.04401 4.95462 0.447503 0.212599 -0.0922039 0.291037 
183 1 4.68861 6.56139 0.47513 0.457682 1.27921 -0.710324 
184 1 7.83871 2.74238 0.00376825 -0.316439 0.95794 0.899089 
185 1 0.652181 1.28406 8.54656 0.14392 -0.158346 0.739014 
186 1 7.36871 2.07434 5.21137 1.15093 -0.3106 -0.604978 
187 1 1.18367 0.0698271 0.259876 -0.32366 -1.11385 0.448732 
188 1 8.11809 5.46826 5.78511 0.94237 -0.0399589 -0.749283 
189 1 3.73619 9.05087 7.7998 -1.53305 -1.0294 0.623615 
190 1 6.69815 4.70561 8.55896 1.38092 -0.470243 -0.470507 
191 1 2.48962 3.03621 2.33378 -0.0860249 -0.235651 -0.100889 
192 1 2.84001 1.17097 6.88695 -1.0534 -0.926657 1.33001 
193 1 4.8469 0.907429 8.18093 -0.368448 1.04521 0.999828 
194 1 2.0781 5.37526 2.95458 0.337641 0.103994 -0.830491 
195 1 3.37967 2.7995 4.00691 -0.961441 0.0715512 -0.169881 
196 1 7.2936 0.0254484 7.55917 -0.358045 -0.923383 -0.98066 
197 1 8.99231 5.096 1.73526 1.15871 -0.20621 -0.343229 
198 1 7.34002 0.516685 2.10046 0.0868805 0.58885 1.02844 
199 1 9.02151 8.90263 3.77638 0.926287 -0.933916 -0.935829 
200 1 8.12584 5.47378 1.56968 0.637278 0.485315 -0.153903 
201 1 7.07451 3.28406 2.32159 1.29976 -0.126803 0.63124 
202 1 4.45881 5.11327 6.33169 0.273452 0.86747 0.435901 
203 1 9.10207 1.58751 6.26043 -1.2835 -0.455247 1.02311 
204 1 6.33972 2.83298 2.71759 -0.260762 1.10262 1.16281 
205 1 5.46337 3.9692 0.322808 0.0695207 0.124715 1.01383 
206 1 5.55689 6.13361 1.79255 -0.247853 -0.687344 0.60524 
207 1 1.47478 2.93236 4.57826 0.1811 -0.775878 0.0540355 
208 1 7.09287 4.2269 0.897065 -1.09632 2.23475 -0.0555213 
209 1 5.62068 2.30661 3.12892 -0.839291 0.32476 -0.686944 
210 1 6.38479 0.497695 6.76635 -0.359572 0.0642128 1.46324 
211 1 8.57907 3.84082 4.20027 0.739728 0.389814 1.64375 
212 1 1.01803 9.23184 2.06423 1.19494 0.851278 0.331091 
213 1 4.58074 8.58823 5.33445 0.041559 0.0147874 -0.352029 
214 1 6.1643 4.54532 0.758083 0.198322 -0.817157 -0.482616 
215 1 2.15239 5.76359 6.63034 -0.977627 -0.46101 -0.295212 
216 1 0.363776 1.508 0.017295 -0.499004 -0.777387 0.718722 
217 1 5.86933 5.35329 1.27945 0.67494 -0.552465 0.980801 
218 1 4.86316 0.0393647 3.18352 0.31981 1.01463 -0.489719 
219 1 2.90437 0.942422 3.76859 -0.472875 0.0652849 -0.309249 
220 1 7.81755 2.91127 6.69924 -1.13628 -1.10444 -0.638055 
221 1 3.03331 3.84386 2.52582 -1.29126 -0.678423 -0.305456 
222 1 5.00255 4.49027 1.91836 -0.32703 -0.871735 0.507418 
223 1 1.94137 4.21312 3.69963 0.849627 0.340602 0.507254 
224 1 4.77378 7.46253 0.151249 -0.543757 -0.494051 0.201587 
225 1 8.76003 2.22433 8.06843 0.399633 0.140622 -0.206024 
226 1 5.19752 0.667622 3.90739 -0.270863 -1.30055 1.55166 
227 1 1.54776 4.60363 1.8859 1.44457 0.674238 -0.542401 
228 1 8.27169 2.1772 4.91922 0.310457 0.0490847 -0.668403 
229 1 7.05427 2.99305 5.6095 0.42026 -0.933158 -1.24574 
230 1 0.217325 2.6398 7.85756 -0.497349 -0.218265 0.24783 
231 1 7.12724 6.84336 1.48363 1.04543 0.163359 0.463379 
232 1 0.277 0.21621 3.55824 0.566991 0.0319323 -0.0266744 
233 1 3.27988 0.453937 7.38224 -1.90711 -1.06514 0.677728 
234 1 3.51245 0.877737 2.32674 -0.701888 0.397811 0.467512 
235 1 5.63811 4.26484 2.65383 -0.868277 -1.30715 0.909475 
236 1 0.386401 0.521994 0.0534248 -0.193739 -0.299561 -1.59781 
237 1 1.06726 2.20795 8.63076 -0.314503 1.08192 -1.07618 
238 1 2.78899 7.49262 8.4605 -0.506781 0.803284 -1.82161 
239 1 4.29284 0.441774 4.13655 -0.404405 0.258196 0.0243491 
240 1 2.52459 9.08386 2.2834 0.342784 -0.807398 0.336136 
241 1 5.57144 3.43386 5.3878 -0.328482 -1.56443 -0.027715 
242 1 8.7934 0.617254 7.84922 1.21364 1.31617 0.138289 
243 1 8.97883 5.08073 7.53232 -0.259001 1.31443 0.165535 
244 1 2.64166 0.358544 3.06546 1.13403 -1.23524 -0.904992 
245 1 4.26468 2.52149 5.63157 -0.0177172 0.496993 -0.519584 
246 1 9.0731 0.924959 1.35858 1.72012 -0.431411 1.62755 
247 1 2.46211 4.63605 1.5349 -0.802434 0.11336 1.11364 
248 1 5.42789 0.625377 6.52224 -0.511881 -0.511766 0.806623 
249 1 8.60135 0.0119626 8.59276 -0.241072 -0.937955 0.366345 
250 1 5.26652 1.53518 5.39595 -0.422401 -1.79891 -0.535078 
251 1 3.09249 1.0465 0.496506 0.539437 0.193584 0.796014 
252 1 7.55354 2.54483 4.38614 1.41758 -0.159273 0.113532 
253 1 4.01638 5.56283 1.20778 1.14896 0.479817 -0.874149 
254 1 0.0226813 3.05397 5.68243 -0.0372914 0.402053 -0.170495 
255 1 0.503797 7.15431 4.29788 0.218379 1.12378 -0.315778 
256 1 4.20827 4.06544 2.30115 0.185534 0.019172 0.46817 
257 1 0.885801 1.40025 1.62524 -0.251957 -0.466151 0.376272 
258 1 3.98499 1.11178 0.845272 0.0324123 -0.138531 -0.0452905 
259 1 3.57861 0.206151 0.851901 1.36116 -0.195009 -0.437072 
260 1 0.080758 4.46376 8.89656 -0.589399 0.769187 0.0757846 
261 1 5.63096 0.35769 7.42267 -1.36419 0.443599 -1.12567 
262 1 2.40758 1.75793 8.65887 -0.178993 1.31652 -0.920381 
263 1 1.67869 3.26459 9.03145 -0.0691886 1.23981 -0.354779 
264 1 8.04078 3.8622 0.974748 -0.484484 -0.409232 -0.503549 
265 1 8.96127 4.49931 6.74447 -0.257623 -0.400297 0.739442 
266 1 3.38124 2.02901 5.6191 0.809887 0.197462 0.280997 
267 1 6.61248 4.18679 7.68829 0.8686 -0.610795 -0.302293 
268 1 4.29815 7.00623 6.38693 -0.679411 -0.111254 0.767248 
269 1 1.42274 1.77264 2.33727 0.599917 0.280594 0.000962819 
270 1 4.85219 0.00711695 6.92555 1.00244 0.263928 -0.73256 
271 1 3.10287 5.89939 5.26655 0.262141 -0.71552 -0.150389 
272 1 8.74081 2.65378 8.93745 0.445929 0.379261 -0.644408 
273 1 5.3496 7.91445 8.97573 -0.968509 0.761597 0.0183628 
274 1 1.7761 2.26082 6.40875 -0.616487 1.55773 0.0114544 
275 1 9.01849 8.52493 5.42703 -0.30537 -0.458501 0.180311 
276 1 6.0891 3.56363 2.11218 -0.370347 0.16558 0.585651 
277 1 2.65464 6.68457 6.78385 0.941341 1.28634 -1.21877 
278 1 7.61569 0.26529 5.03891 -0.446511 0.383345 -0.117727 
279 1 2.82254 7.60753 2.25183 -0.38301 -0.315345 -1.18045 
280 1 3.73797 7.14064 8.31318 -0.663495 -0.0448089 0.243739 
281 1 4.41538 1.14788 2.39116 0.697324 0.367387 -0.158723 
282 1 8.20595 0.691587 1.72806 -0.834339 -1.76898 1.06334 
283 1 1.57933 4.14596 0.0934685 0.578088 0.00344732 -0.585271 
284 1 2.07598 2.69794 3.15382 0.0584087 -0.332178 -0.305565 
285 1 5.15799 5.76238 5.98138 -0.373652 -0.498414 0.368978 
286 1 2.65878 0.0697742 1.30133 1.28487 -0.247253 -1.4787 
287 1 7.75689 2.70256 3.46661 0.44178 -0.659434 0.698912 
288 1 3.54182 5.25421 5.83349 -0.836866 0.503977 0.0118704 
289 1 0.911398 3.90693 2.09882 -0.12202 0.23619 -0.101379 
290 1 8.94538 7.37805 4.32757 -1.22006 -0.360298 -0.388443 
291 1 3.85059 1.78346 0.177151 -1.53942 -0.16491 0.600838 
292 1 3.01898 5.34402 3.17959 -0.468139 0.0907497 0.109028 
293 1 1.82248 3.36549 7.72052 1.16066 -0.509743 -0.305547 
294 1 8.46174 1.58572 7.41836 0.0822605 0.377617 0.429206 
295 1 4.80706 2.58289 6.4746 0.445046 0.658015 -0.395972 
296 1 5.36478 4.01929 6.08663 0.0780294 -0.37429 -0.576309 
297 1 5.96819 5.24436 8.32111 -0.236265 -0.0651616 -0.595303 
298 1 8.57255 8.5049 8.22052 0.649461 0.751624 0.0419887 
299 1 6.55277 2.81417 6.41495 0.718066 0.433107 0.45538 
300 1 7.43488 9.35325 3.97328 -1.91519 0.248256 0.665274 
301 1 8.76584 8.34506 4.51501 0.716029 -0.90446 -0.863025 
302 1 0.541846 4.2987 0.316287 0.468976 -0.435337 0.783917 
303 1 8.67114 1.44278 2.07687 -0.0437795 0.732047 0.49917 
304 1 9.31478 9.01419 2.84884 0.147044 -0.134649 -0.844355 
305 1 1.61856 0.0603944 7.45739 -0.255738 0.353816 -0.863097 
306 1 5.11319 4.85623 5.6984 0.10601 -0.343061 0.915574 
307 1 3.5971 3.98284 1.01186 -0.382433 -1.02462 -0.325592 
308 1 2.33246 6.18445 4.73731 0.266154 1.09653 0.22677 
309 1 3.49141 4.74362 8.52577 0.330792 0.142187 -0.250384 
310 1 0.937729 6.87323 1.21576 -0.0949236 -0.140688 0.331348 
311 1 1.19913 1.01278 0.253314 0.312799 -0.907221 -0.528937 
312 1 6.76987 3.38296 4.22012 -0.370147 -1.32375 0.153716 
313 1 5.2332 1.52066 3.48726 -0.00797474 0.369892 -0.27329 
314 1 1.02169 4.62017 8.81114 -0.652547 1.03737 -1.41138 
315 1 7.96151 6.03765 6.58186 -0.261064 -1.24285 0.502526 
316 1 2.80641 7.77458 3.75879 0.423569 -0.660062 -0.109992 
317 1 7.3262 7.60587 7.69721 0.427963 -0.473641 0.33266 
318 1 0.726327 7.62311 1.77177 0.839354 0.770469 -1.19787 
319 1 2.1657 0.827707 8.31775 -0.897823 0.232844 0.23398 
320 1 2.72584 4.29083 4.4286 0.190954 -0.151863 0.27959 
321 1 3.26881 8.76527 1.19053 0.0476635 0.64642 -1.37078 
322 1 5.23725 1.67252 2.51293 0.172799 -0.0809049 0.370869 
323 1 1.80804 4.06172 8.54049 1.80534 -0.428289 -0.873988 
324 1 8.52776 6.10719 3.35508 -0.362243 0.600495 0.0246246 
325 1 0.242199 3.70384 8.15796 -0.334117 -0.5167 0.0533663 
326 1 7.37768 5.67199 0.0694209 0.897193 0.100862 -0.0485138 
327 1 0.508057 1.24695 3.03637 -0.215983 -0.381792 -0.132836 
328 1 8.89648 5.59201 2.58914 0.486771 0.146318 -1.2204 
329 1 0.718951 3.20639 3.53617 -0.402941 0.185102 0.370979 
330 1 9.29629 7.77159 0.425795 0.422288 -0.264946 0.0746928 
331 1 5.54556 6.14633 0.794494 -0.893087 -0.0157002 0.566842 
332 1 4.83105 5.54342 0.615581 0.784315 0.0289776 -0.216413 
333 1 1.48139 6.63475 3.84508 -0.585799 -0.16909 -0.0135011 
334 1 0.254488 6.6958 1.97319 0.126355 -0.0982314 1.06161 
335 1 5.81151 0.374451 5.69878 0.812089 -0.24422 -1.13745 
336 1 0.319773 4.78007 3.51192 1.04349 -0.438785 -0.177925 
337 1 6.58104 2.75407 1.72345 -1.43383 -0.902945 1.2174 
338 1 5.83249 3.46419 7.72437 0.942218 0.593308 -0.370971 
339 1 1.23546 5.99225 5.66614 -0.0672388 -0.0554576 -1.03267 
340 1 4.91559 5.37556 1.56565 0.758616 0.442768 0.131094 
341 1 1.80789 3.93769 1.2002 0.273241 -0.365279 -0.908918 
342 1 1.04396 8.87615 8.94112 -0.701285 -0.506576 -0.477594 
343 1 2.81588 8.31943 9.10859 0.0462616 0.819934 0.60282 
344 1 0.590687 8.10138 9.25195 -0.28802 -0.530911 1.29379 
345 1 8.73084 6.13845 0.0695963 0.397758 -0.369612 1.22129 
346 1 6.4264 5.47679 6.77021 0.546018 -0.837572 -1.02709 
347 1 7.3053 6.25392 2.2494 -0.45461 -0.115602 -0.473402 
348 1 3.67225 2.38844 6.41509 -0.107052 -2.16351 -0.6172 
349 1 1.9715 3.21999 6.09659 -0.0673458 -0.449712 0.769329 
350 1 2.87278 5.16368 6.68493 -0.899275 -0.150609 -0.750218 
351 1 6.89666 4.10179 1.86562 -0.643241 1.36456 -0.319505 
352 1 9.05567 0.315423 2.09302 -0.399342 -0.911141 -0.905207 
353 1 3.00497 2.20989 3.22842 0.257323 0.329357 0.0477901 
354 1 5.79273 0.131321 3.37734 -0.900374 -1.24416 -0.361691 
355 1 1.032 6.14079 1.7804 0.187581 -0.0841716 0.252645 
356 1 2.63861 9.36283 8.81001 -0.420426 0.434045 0.780169 
357 1 7.7946 6.32303 8.00446 1.538 -0.521919 -0.494497 
358 1 0.996995 9.39738 6.22772 -1.07865 -0.314894 -1.16054 
359 1 1.27962 0.636362 1.1478 0.220975 -0.0495081 -0.991057 
360 1 7.26025 3.50686 8.01453 0.244625 0.0162584 1.45531 
361 1 4.50133 6.56075 8.21085 -1.02246 -0.627272 0.492212 
362 1 8.75702 6.17057 5.97218 -0.565071 0.965686 0.0559721 
363 1 4.26405 3.67774 8.34904 -0.0564193 1.29265 0.841503 
364 1 4.18047 3.41856 7.43144 0.00600606 0.274137 0.363158 
365 1 5.24657 7.03662 1.12608 0.485233 -0.465847 -0.0643998 
366 1 9.1948 3.11447 3.75148 0.0884199 0.135302 0.0279299 
367 1 6.38068 6.27962 1.22987 -1.19329 -0.245308 0.674151 
368 1 0.349146 3.89242 2.98707 -0.994139 0.970398 -0.994349 
369 1 0.689259 0.114781 4.52854 -0.0104705 -0.459856 0.539519 
370 1 5.86531 2.1003 4.91376 -0.458045 1.55418 0.12652 
371 1 2.73858 2.00392 6.37179 0.145485 -0.238807 -0.421753 
372 1 9.05434 0.0592489 7.0513 0.309898 -0.306498 0.115586 
373 1 2.60574 3.69641 5.52492 0.73505 0.42329 -0.964132 
374 1 0.0966069 7.75942 4.99738 0.552208 -1.17319 -1.45623 
375 1 6.59244 1.87065 6.72611 -0.750552 0.460837 -0.202117 
376 1 6.14995 2.74617 5.56446 0.102426 -0.372995 0.0228964 
377 1 8.99786 0.903629 0.37747 -1.46902 0.791782 -0.13224 
378 1 5.66544 6.23891 6.73015 0.770644 -0.139765 -1.99129 
379 1 5.97496 2.16647 2.16912 0.783465 0.209649 -0.944381 
380 1 8.04648 8.51602 5.17534 -0.623721 -2.03247 -0.848564 
381 1 6.97459 7.45333 6.73448 0.0895472 0.467629 -0.935864 
382 1 1.53828 4.77474 4.41711 -1.22501 0.0251205 0.158653 
383 1 7.55997 2.57667 1.85217 -1.24342 0.168562 0.32689 
384 1 9.309 6.4246 2.84972 -0.384747 0.511895 -1.16486 
385 1 6.02935 6.99458 1.79371 0.474348 -0.489659 -1.69476 
386 1 3.45463 3.00143 5.58342 -0.375538 0.808888 -0.730855 
387 1 3.96923 7.38281 0.608484 -0.385119 1.16465 -0.572383 
388 1 5.64571 2.9385 1.54306 0.0361099 1.46183 -0.073592 
389 1 8.44188 2.17509 6.63377 -1.61141 0.913541 0.423328 
390 1 1.12108 3.53163 0.598202 0.00238334 1.55783 -0.530756 
391 1 4.68196 6.27504 1.36727 0.424759 0.237827 0.00951676 
392 1 3.3856 7.41507 9.20479 0.173968 1.00328 0.755173 
393 1 0.968825 2.3447 1.65931 0.147827 -0.156365 1.3529 
394 1 1.19001 0.894221 5.91537 0.986639 -1.46803 0.758101 
395 1 6.84484 8.90926 2.32287 -0.87894 0.927531 0.425818 
396 1 0.863136 9.17459 8.0534 -1.27423 1.51851 -0.8801 
397 1 6.28162 6.39096 2.52566 -0.917771 -0.891576 1.10574 
398 1 1.77686 0.13084 2.72785 1.15264 -0.345272 -0.230039 
399 1 8.60291 8.54984 7.12227 -0.428203 0.291555 -0.69143 
400 1 3.35956 5.41205 9.1956 -0.998094 -0.977027 -0.288964 
401 1 3.21205 3.47229 4.75994 0.454617 -0.663725 -0.272461 
402 1 2.46482 5.49324 1.1445 -0.354849 0.0413997 0.622161 
403 1 3.35797 0.0170738 1.93491 -0.0741722 0.749919 -0.417966 
404 1 3.52923 5.0103 7.51265 -0.254091 -0.246032 -2.72941 
405 1 4.70595 7.86518 1.0311 -0.166423 -0.384984 0.637857 
406 1 1.55694 1.57339 0.953336 0.770254 -0.671564 0.418296 
407 1 3.78473 2.5041 1.65454 0.831519 1.15035 0.431799 
408 1 1.9199 0.508249 9.24031 -1.22102 -1.014 -0.0694793 
409 1 7.99061 2.42601 7.55387 0.469576 0.903685 -0.0176608 
410 1 2.17927 8.63881 1.53476 -0.312109 -0.157823 -2.00379 
411 1 8.4944 3.92039 2.55549 -0.113748 0.392276 -0.0275543 
412 1 2.34802 2.8155 6.98726 -1.43507 -0.0780981 0.374549 
413 1 6.15964 8.34648 8.72441 -1.1732 0.729793 0.418885 
414 1 2.13287 4.51624 5.20019 0.772508 0.118002 0.952619 
415 1 8.96523 3.8583 5.77086 0.84103 1.16851 0.29974 
416 1 8.54987 5.08755 3.30682 0.49482 -0.820289 0.424578 
417 1 4.51072 1.78496 7.74894 0.498466 -0.50084 -0.361292 
418 1 8.59015 4.23323 1.68033 1.67149 0.500703 0.256316 
419 1 8.73939 7.94802 3.55788 0.927717 0.156183 0.856697 
420 1 2.0545 3.31312 0.516095 0.0596431 -0.120773 -0.926599 
421 1 5.17977 5.24988 8.77811 -0.394342 -0.288112 0.181625 
422 1 1.85893 7.53512 3.73066 -0.626963 1.15761 -1.76652 
423 1 2.51502 0.107607 7.82143 0.340375 1.04483 -0.87618 
424 1 2.52118 8.62274 0.626996 -0.571001 0.0134081 1.92896 
425 1 2.29307 1.25187 4.37547 -1.52373 1.72619 -0.374576 
426 1 4.1319 7.86579 7.7795 0.202462 -0.0404383 -0.00885025 
427 1 2.84373 4.40274 7.22251 0.929361 0.71653 0.355138 
428 1 1.84279 3.85665 4.55676 -0.394767 -0.226393 0.367594 
429 1 0.554734 2.65308 4.28058 0.720347 0.689689 0.592657 
430 1 0.0299342 2.4381 0.179046 -1.38862 1.52174 -0.0362615 
431 1 3.32292 6.46516 0.0353712 -0.718238 0.0870729 0.14443 
432 1 3.18294 7.85871 7.64498 -0.103554 0.835459 -0.209501 
433 1 9.35955 7.18499 3.49627 -1.50078 -0.160249 -0.150743 
434 1 4.75388 3.31665 5.83143 -1.26884 -1.73809 -0.207943 
435 1 3.19115 6.34854 3.28681 0.00221426 -0.766253 -0.442493 
436 1 7.34848 3.49388 0.348545 1.90337 0.201194 0.166612 
437 1 4.09222 3.61623 5.20057 1.41048 0.558364 -0.0104904 
438 1 3.43834 2.64192 0.294551 1.18063 -0.617283 0.968702 
439 1 1.58222 2.78009 2.28891 0.390607 -1.86064 -0.294501 
440 1 6.67945 1.68559 4.61076 -0.452113 -0.343178 0.224057 
441 1 1.22137 5.53644 6.72424 -0.583369 0.854573 -0.39723 
442 1 8.37878 3.42453 3.3657 -0.0278919 -0.155607 0.329792 
443 1 1.30121 5.9031 3.24604 -0.393999 0.3166 1.75649 
444 1 2.75122 0.925221 9.04053 -1.00333 -0.124094 2.02899 
445 1 7.17667 6.43496 0.621303 -1.02949 -0.177113 0.0818547 
446 1 4.37322 1.75415 6.72523 1.27889 -0.452485 0.802591 
447 1 5.8088 2.16929 6.28412 -1.10245 -0.74902 -0.038347 
448 1 2.92083 1.33974 7.87074 -0.913449 0.514954 0.558638 
449 1 1.43853 1.46742 4.20712 0.47352 0.164043 0.165273 
450 1 3.81177 6.26324 1.81484 -0.983514 0.465524 1.05541 
451 1 7.16784 6.22471 8.74444 0.839421 0.18083 1.09881 
452 1 2.49373 4.20353 9.16186 0.509034 1.48008 0.364713 
453 1 1.29492 8.46896 0.521227 1.01174 1.22701 -0.223954 
454 1 8.84214 3.18282 8.11587 -0.456167 0.735128 0.434778 
455 1 5.89268 1.29939 7.08432 -0.592378 0.970058 0.278198 
456 1 2.47756 0.277767 6.82456 -1.15782 -0.769738 -0.317249 
457 1 0.894367 9.15547 1.10174 1.55542 0.139924 -0.257436 
458 1 -0.00432907 3.32319 4.69077 0.276872 -0.331856 0.16362 
459 1 0.478559 3.73848 1.25739 -0.279646 0.365356 -0.505553 
460 1 5.63806 6.02427 9.19651 -0.298342 1.00502 0.451039 
461 1 0.42875 5.30507 1.10461 -0.953917 -0.122115 -1.12859 
462 1 1.2459 0.838049 7.89872 0.281564 2.02044 -0.346152 
463 1 3.00007 6.53268 8.52609 1.09548 -0.812809 -0.859955 
464 1 1.52169 7.6556 1.12096 1.1003 -0.0717067 0.175499 
465 1 8.24564 0.110579 3.48402 1.2485 -0.227192 0.180766 
466 1 7.34937 8.26087 6.23963 1.28577 -0.848921 -1.26905 
467 1 8.64669 2.51734 3.20927 0.415805 -0.724865 0.995206 
468 1 7.83479 6.23024 4.01218 -1.2046 1.11195 -0.534288 
469 1 7.73231 1.54274 1.85726 0.580367 -0.233265 -1.44947 
470 1 0.165927 9.31107 8.78297 0.613949 0.701128 -0.016203 
471 1 2.34902 6.80775 2.19544 -0.309758 -0.00473569 1.16164 
472 1 2.10261 2.44789 9.31582 0.173779 0.816238 -0.605469 
473 1 8.2478 4.43725 7.44904 0.032714 0.259869 0.816944 
474 1 9.36289 3.87306 2.07325 0.886826 0.25917 0.250219 
475 1 6.57877 8.94486 3.25281 -0.181161 -0.993866 0.4229 
476 1 1.30611 3.67252 2.9186 0.433499 0.302226 -0.324074 
477 1 7.53898 4.42781 6.31269 -1.84873 -0.920902 0.358773 
478 1 4.89494 8.42952 0.246051 0.666765 -0.136561 -1.55379 
479 1 4.3167 0.777154 6.54263 -1.52617 -0.669253 -0.849571 
480 1 3.8636 2.61855 3.19246 0.179028 -0.157963 -0.0909171 
481 1 2.98781 3.14611 3.2229 0.0549974 -0.127909 0.826576 
482 1 3.29239 9.10709 2.85564 -1.14083 -0.212102 -0.634922 
483 1 3.3592 1.59913 8.75774 0.051938 -1.72609 -0.00814728 
484 1 4.13345 0.125008 2.54212 0.124401 -0.806582 0.395197 
485 1 2.01842 0.37929 5.97837 -0.420027 1.13406 0.50872 
486 1 1.10223 7.97944 4.19844 -0.0731791 -0.21618 0.00157466 
487 1 2.33629 3.08471 4.85674 0.835162 0.440033 0.423372 
488 1 0.671062 3.06434 2.54982 -0.454407 -1.08673 0.509245 
489 1 3.87341 8.16863 3.58085 -0.823366 -0.742502 -0.117018 
490 1 4.1734 4.31118 3.60687 0.120471 -0.204638 -0.501419 
491 1 7.58539 1.74778 3.29211 -1.34633 -0.608699 -0.26077 
492 1 6.31459 3.72498 6.0308 -0.214101 -0.707063 1.14072 
493 1 3.4105 3.79001 3.86303 0.810791 0.334389 -0.361733 
494 1 0.330906 2.12598 5.57052 -0.57478 -0.751809 0.300816 
495 1 9.16951 1.72144 0.753518 1.31894 -0.761659 -0.84647 
496 1 7.7934 8.43836 7.66549 -0.486035 0.323599 -0.16876 
497 1 7.70658 8.91615 6.85496 -0.38422 0.223187 1.41035 
498 1 1.62991 3.30951 3.74241 0.878653 1.48893 -0.11491 
499 1 7.88751 5.63858 2.81533 -0.294898 -0.237542 1.13365 
500 1 2.99834 9.01438 4.69938 -0.205704 0.834132 0.298505 
501 1 7.05022 4.16927 3.67664 -0.288287 -0.414229 -0.686741 
502 1 4.41545 2.73416 8.12102 0.904367 0.433279 -0.596085 
503 1 5.1846 5.01449 7.80086 -1.49728 -0.114936 0.355406 
504 1 5.26804 5.39753 6.84643 0.960105 0.263488 0.244627 
505 1 2.98657 2.54408 8.77729 -0.252253 -0.596562 -0.353712 