ITEM: TIMESTEP
2803
ITEM: NUMBER OF ATOMS
1000
ITEM: BOX BOUNDS pp pp pp
0.0000000000000000e+00 9.4000000000000004e+00
0.0000000000000000e+00 9.4000000000000004e+00
0.0000000000000000e+00 9.4000000000000004e+00
ITEM: ATOMS id type x y z vx vy vz 
1 1 2.73023 5.76506 4.69718 -0.544593 0.927312 0.321424 
2 1 4.53076 7.4968 8.25385 1.1037 0.685398 -0.399562 
3 1 0.515572 6.28424 0.759387 -0.338568 -1.10944 -0.312171 
4 1 6.61714 7.98847 7.15202 -1.01136 -0.886974 -0.787676 
5 1 8.91075 8.5642 1.45082 -0.13129 0.398498 1.10868 
6 1 7.59627 8.68997 6.499 -0.00821805 -0.391099 -0.731639 
7 1 1.28602 1.0031 7.87841 -1.08961 -1.91144 -0.825276 
8 1 9.06221 1.78867 3.68749 -0.353509 -0.535286 1.20085 
9 1 0.0587214 0.928605 7.26762 0.118846 -1.39621 0.229352 
10 1 2.93049 8.27034 1.56012 0.601908 -0.608888 0.496141 
11 1 7.56951 7.66404 3.61443 -0.809392 -0.389201 0.383295 
12 1 6.29132 8.19713 5.20813 -1.40961 1.32696 -0.571425 
13 1 7.22263 3.42851 8.26191 -0.752507 0.245574 -1.7525 
14 1 8.65303 6.30808 3.82193 0.400689 -1.22186 -0.387219 
15 1 9.03049 1.79436 7.73142 -1.04343 -0.116016 -0.176822 
16 1 8.34774 8.28329 0.71445 1.06645 1.47223 -1.50292 
17 1 4.03875 7.09551 1.77349 -0.439427 -0.240788 0.78865 
18 1 6.72611 2.83927 7.57697 -0.202036 -0.282562 0.479113 
19 1 3.12559 6.56841 6.13799 0.644391 0.166048 0.408059 
20 1 7.72474 5.99841 0.564439 1.08459 1.03284 -0.618699 
21 1 9.27359 0.855959 9.29327 -0.82965 0.00781307 -0.402664 
22 1 7.25752 7.25087 5.90044 -0.26039 -0.488665 -0.866227 
23 1 4.88162 4.88799 3.85082 -1.33024 -0.0424714 -0.380714 
24 1 5.75116 5.03436 7.25376 -0.931327 -0.00832411 0.268129 
25 1 8.32143 0.707765 8.76759 0.441572 -0.98287 -0.328512 
26 1 7.17874 8.38753 9.12789 0.0585427 -0.60074 0.144244 
27 1 3.64025 0.941848 6.35267 0.179252 0.111559 0.0255376 
28 1 4.07899 6.14939 1.95819 -0.462954 1.36075 0.978533 
29 1 7.74731 2.70872 6.23674 0.933488 -0.693233 0.0365115 
30 1 6.34703 9.26798 0.79704 -0.930715 0.89234 0.167132 
31 1 4.77659 2.09576 1.65486 0.339132 0.791713 0.272338 
32 1 2.17825 5.75278 0.408015 0.0497016 -0.523778 1.36023 
33 1 3.45518 1.64537 7.02608 -0.18846 0.643285 -0.364758 
34 1 2.30831 4.50773 2.5173 -0.818474 0.507639 1.71532 
35 1 9.09842 8.48427 -0.0315855 -0.791714 -0.354977 0.881463 
36 1 5.37646 5.86483 8.07573 -1.24607 -1.11709 0.83449 
37 1 1.10674 6.72389 4.50268 -0.148109 -0.26409 -0.0591958 
38 1 1.37982 6.79649 0.953501 -0.163336 -1.38557 -1.42328 
39 1 7.41355 3.7518 3.58519 -0.279839 2.12967 -0.625407 
40 1 6.90365 8.94159 1.51476 0.0950432 -0.0279733 0.252827 
41 1 9.31191 6.93627 0.364408 0.244721 -0.676523 -1.52893 
42 1 7.41021 2.2543 7.00781 -0.746406 1.08178 -0.311455 
43 1 2.34321 9.26364 4.25303 1.58701 -0.478054 1.13559 
44 1 6.07309 6.01864 7.3781 -0.321998 -0.659113 -1.02441 
45 1 5.52938 8.02752 0.113089 -0.179734 -0.510451 -0.846845 
46 1 3.46961 1.37416 9.12168 1.11312 1.06778 -0.688099 
47 1 5.94882 6.59643 6.62136 0.367474 -0.735786 0.0346693 
48 1 2.18541 6.81568 8.29412 -0.01899 0.0162446 0.122429 
49 1 8.56025 0.585247 7.06524 -0.450665 -0.496273 -0.0913585 
50 1 5.49136 5.01079 6.08428 0.114067 1.20799 -0.904925 
51 1 3.33643 6.18497 8.33695 1.9567 0.681547 -0.691527 
52 1 8.45148 7.63236 3.25964 -0.0653688 -0.173004 0.181309 
53 1 6.99129 8.09689 2.98381 0.845361 -0.875392 0.386946 
54 1 6.62604 0.087891 2.34064 0.546053 0.0241452 -0.185902 
55 1 3.21347 5.25275 3.99895 -0.592435 1.97814 0.0275703 
56 1 3.1877 5.66563 5.66035 -0.52538 -0.983762 0.778649 
57 1 6.09422 7.7123 4.37219 -0.352988 -0.124009 -0.0535952 
58 1 8.98529 8.81749 4.16933 0.784765 0.00656466 -0.978058 
59 1 6.17276 1.33021 1.57341 1.03478 0.121498 0.613075 
60 1 4.67196 6.55204 8.01565 -0.884318 -0.808164 0.1068 
61 1 7.34981 8.51987 0.72088 0.0967647 -0.825553 -0.501373 
62 1 8.80896 1.50427 6.83304 -0.555275 0.13328 0.773694 
63 1 2.90029 8.02032 6.80824 -0.526407 -0.267901 -0.808017 
64 1 2.0859 9.18771 7.82889 0.289455 0.536005 1.2276 
65 1 4.84678 6.74912 3.53843 -0.937961 -1.03931 0.551524 
66 1 0.99001 3.87718 0.0799099 0.655643 -0.795339 0.71011 
67 1 2.8997 1.85946 3.99022 -0.00621764 -0.1081 -1.3324 
68 1 2.41856 4.80927 0.223032 0.556689 -0.376141 0.287537 
69 1 4.01106 1.40817 5.48505 -0.820795 -0.859115 -0.270465 
70 1 4.17815 1.31928 1.46606 2.07346 1.95733 0.553171 
71 1 5.82504 0.567344 2.0364 -0.285268 -0.741215 1.25987 
72 1 5.98136 1.13607 8.772 0.640628 0.128678 -0.0799649 
73 1 6.17618 4.37342 7.8891 -0.14867 0.00470458 0.0770161 
74 1 0.272878 1.18676 6.35418 0.315424 1.05786 -0.764831 
75 1 6.50186 7.30209 8.37445 0.726632 -0.142949 0.966665 
76 1 5.31373 6.61728 7.32704 -1.54676 0.0090753 -0.739614 
77 1 7.84375 0.541421 7.71922 0.452778 -0.58037 -0.188763 
78 1 2.09407 8.35871 3.9991 0.918027 -0.746294 0.812477 
79 1 1.62454 2.49464 8.34404 1.74535 0.150471 -0.133346 
80 1 2.65055 1.88217 2.21051 -1.47359 0.431133 -1.23141 
81 1 4.71159 0.847146 0.804455 0.904584 0.719662 -0.106237 
82 1 5.83236 5.45295 0.40965 1.12863 -0.949662 -0.113902 
83 1 8.3334 6.83978 1.64781 0.134985 0.754378 0.142164 
84 1 5.96636 9.2996 6.08141 1.37329 -0.104961 -0.806141 
85 1 9.1922 5.91679 3.06285 0.176659 -0.528381 -0.776504 
86 1 0.983269 8.11594 8.19445 0.152877 2.4018 -0.630379 
87 1 0.72069 4.82044 0.00635081 0.732902 0.857947 0.586664 
88 1 3.74303 1.40746 0.6339 -0.00385381 -0.120064 -0.471833 
89 1 5.33894 7.91712 4.93747 0.296237 0.0395718 0.0709268 
90 1 6.50064 1.38513 5.69946 -0.0853398 0.457237 0.257846 
91 1 6.72368 7.15463 6.67781 0.468218 -0.0626488 -0.165507 
92 1 8.57713 6.34481 0.834343 -0.716303 0.46079 -0.289889 
93 1 8.30582 3.53177 2.04428 -0.0893214 -0.182563 0.476699 
94 1 2.98909 4.79574 0.989133 0.503297 0.573599 -0.190116 
95 1 1.28186 6.20807 0.169997 -0.645798 -0.326867 1.0859 
96 1 4.10686 9.38801 2.45834 0.147202 0.682387 -0.333645 
97 1 3.38586 1.82847 6.08509 -0.636313 0.368915 1.36693 
98 1 1.20641 8.61537 1.16804 -0.53409 0.473819 0.00522091 
99 1 4.33501 8.6939 6.75234 -0.136881 -0.0502357 0.012188 
100 1 3.79776 1.51782 7.92463 0.968055 -1.97954 0.354261 
101 1 0.00229148 7.6041 2.94583 -0.346834 -1.55688 -0.3497 
102 1 5.76731 5.22928 3.69867 -0.0813649 0.538303 -0.629576 
103 1 5.30393 3.59172 5.05498 -0.962771 -0.291247 -0.176061 
104 1 2.91427 8.99906 5.68466 0.6008 -0.427219 0.740227 
105 1 5.31053 1.98045 8.54617 0.425791 -1.22869 0.595493 
106 1 6.94031 8.06487 6.2472 -0.917763 0.868331 -0.191714 
107 1 4.27302 2.09323 7.30576 0.392805 0.388015 -0.157913 
108 1 6.14102 9.23284 5.1593 -0.383265 0.217246 0.249845 
109 1 5.93534 0.1348 7.01533 -0.599616 -1.08111 -0.0656202 
110 1 3.19437 6.86817 3.67719 0.445908 0.420164 -0.0279221 
111 1 2.41312 0.278783 7.0505 -0.112073 -0.51618 1.14552 
112 1 4.80031 6.31165 6.0356 -0.830723 -0.256598 -0.457219 
113 1 9.12758 8.77661 8.4758 0.314788 0.197161 0.920447 
114 1 4.04433 4.84063 3.11064 -0.891852 -0.429526 -0.5997 
115 1 7.91456 1.8035 1.3995 -0.846895 -0.694231 1.06161 
116 1 1.91357 6.95359 4.97083 -2.10945 0.174442 0.633353 
117 1 6.62005 7.45041 3.62016 0.189845 -1.32637 0.705488 
118 1 4.74739 4.23928 4.54966 0.973513 0.56659 0.75808 
119 1 7.41885 2.76378 3.53112 1.97445 0.376162 0.816385 
120 1 5.8069 1.46389 2.44134 0.178283 -1.36124 -0.246583 
121 1 5.79723 9.10221 2.81127 0.740811 0.560008 0.278691 
122 1 1.17251 7.56042 5.03771 0.551906 -0.729964 -0.171409 
123 1 5.47062 7.76774 1.05803 -2.06046 -0.170031 -0.60407 
124 1 2.7432 5.49565 9.01767 -0.792215 0.432553 2.00567 
125 1 7.06106 2.28861 2.80807 -1.80511 -0.0540983 -0.293368 
126 1 8.64465 4.23561 8.69732 -0.369293 0.391539 -0.781877 
127 1 6.46202 1.60336 3.14687 0.50135 0.267985 -0.165578 
128 1 1.3866 8.00177 6.15359 -0.344835 -0.341797 0.569462 
129 1 2.67193 3.22234 1.83423 0.799993 -0.0328487 -1.78942 
130 1 3.09936 7.11711 8.39085 -1.29176 -0.687466 -1.34655 
131 1 3.0722 2.73688 3.59168 0.571433 -0.23259 -0.200075 
132 1 3.747 8.01776 3.86608 -0.315538 -1.56732 -0.10791 
133 1 1.55464 8.69834 8.66665 0.760334 0.203749 0.47565 
134 1 8.48654 6.65728 -0.0368989 -0.69498 -0.0434087 0.295224 
135 1 9.16265 5.94919 0.204984 0.144491 0.848308 -0.987712 
136 1 5.90394 0.75134 0.894595 -0.548126 0.353972 0.364425 
137 1 5.39622 6.37426 2.87094 -0.783212 0.712046 0.377236 
138 1 1.35495 1.72189 3.275 -0.618111 0.539266 0.310104 
139 1 6.72946 5.82755 0.422213 0.21083 -0.682323 -0.672441 
140 1 0.189055 9.37079 9.33128 0.676607 -0.380289 1.53472 
141 1 1.71347 1.70046 2.35449 0.280485 -0.221945 -0.72058 
142 1 5.77982 9.16837 7.90015 0.529313 0.437322 -0.466667 
143 1 3.10713 7.12214 6.99244 -0.299784 -0.900772 -0.0651017 
144 1 0.382242 1.3415 0.944289 0.0526226 -0.178937 0.0979361 
145 1 6.19467 4.22342 0.89256 -1.24155 -0.189285 0.957815 
146 1 3.51324 1.32627 4.63286 0.896358 -0.629769 1.26547 
147 1 4.25114 5.21756 9.29493 0.665251 0.473928 0.322032 
148 1 5.08554 6.44585 5.09019 -0.0358461 0.44439 -1.44116 
149 1 6.30063 8.12311 1.41849 -0.735288 0.543539 1.18879 
150 1 6.22815 0.9812 3.84936 -1.05797 -0.548278 0.925938 
151 1 0.877433 1.59733 4.30634 0.325291 0.398376 -0.786569 
152 1 1.9747 7.73389 3.25955 -0.83901 -0.511217 0.0431576 
153 1 5.08632 2.44604 7.73231 -0.104385 -1.1341 -0.889709 
154 1 5.76399 7.50322 1.97079 -0.269275 1.37461 -0.190171 
155 1 0.233192 0.645715 2.49732 0.243736 0.599131 1.00869 
156 1 8.55946 0.00957977 3.1432 -0.138617 0.750338 -1.08719 
157 1 1.514 8.45486 2.88545 -0.829622 0.519611 0.870842 
158 1 4.28196 0.938606 2.34296 -0.218501 0.902298 0.0506422 
159 1 4.51348 5.20086 4.6837 0.660421 -0.186479 -0.998441 
160 1 0.482279 7.26336 1.072 -1.0924 -1.20202 1.015 
161 1 3.59421 8.60859 2.18175 0.512344 -0.145704 0.858284 
162 1 3.47583 6.18358 7.04604 0.685498 0.490445 -0.352646 
163 1 2.70801 2.40944 1.33719 0.778996 0.113302 0.0745503 
164 1 2.44993 1.00755 9.04328 0.330309 0.112246 0.110891 
165 1 6.7176 0.547062 6.61081 -1.73071 0.390171 -0.0470304 
166 1 3.84781 7.71468 0.553645 0.91964 -0.169967 -0.397654 
167 1 0.0799213 7.90693 8.33959 -1.86497 -0.125613 1.18246 
168 1 6.95933 0.603423 3.23057 0.0750318 -1.17251 0.666759 
169 1 8.51565 5.37614 0.694863 -0.213154 0.794566 -1.15795 
170 1 6.633 3.86891 5.35652 -0.357295 -1.52597 0.4564 
171 1 6.49259 6.60073 5.76227 -0.751688 -1.8011 1.02631 
172 1 2.03138 1.10103 7.31192 -2.40931 0.345315 0.152803 
173 1 1.24103 7.85133 9.11372 0.743276 0.186254 1.02242 
174 1 0.980796 2.31329 2.16841 1.27294 -0.0381752 0.339296 
175 1 8.49182 3.9798 0.196578 0.615005 0.0660792 -0.236315 
176 1 7.10717 1.13324 7.50269 0.300856 0.638505 -0.96458 
177 1 6.08039 3.88578 4.57729 1.32823 1.10043 0.706849 
178 1 2.95569 4.68802 3.27918 0.325052 0.621773 0.115441 
179 1 9.00274 1.59624 8.76721 -0.943611 0.749727 0.712236 
180 1 4.07968 7.09128 3.94303 -0.395924 0.0971259 0.8672 
181 1 4.86088 7.89247 1.73825 -0.738303 0.195141 -0.328251 
182 1 6.37509 5.03185 2.62913 -0.0161386 -0.19016 -0.638984 
183 1 8.86847 9.11037 0.661132 0.485214 -0.031764 0.696827 
184 1 8.41991 5.06644 3.11797 1.29403 0.855693 0.1498 
185 1 7.74896 6.91367 0.862887 0.792831 0.881212 1.1079 
186 1 6.55342 3.666 1.57847 -0.0646473 1.06293 0.254932 
187 1 1.56442 1.8978 7.54897 0.682891 -0.915033 0.348441 
188 1 7.6839 5.0022 7.28862 -0.311474 1.24372 -0.446318 
189 1 4.1937 2.01904 4.71877 0.295119 -0.810623 1.01169 
190 1 8.45076 9.25366 4.84993 -0.0274228 0.899407 -0.638993 
191 1 7.9228 0.640568 3.58281 -1.0034 1.01228 0.517563 
192 1 7.43255 1.75431 0.435535 -0.229555 0.399602 0.428541 
193 1 8.08155 9.11534 3.91539 -0.0515677 0.0937249 -0.884064 
194 1 5.24067 7.33732 2.77506 -0.220743 0.0242626 0.70255 
195 1 6.59811 4.61916 6.99924 0.272861 1.30339 0.547243 
196 1 0.282613 2.16704 8.33049 0.417092 -0.574462 -0.181529 
197 1 2.78989 4.1484 1.74267 0.635163 0.479926 0.444548 
198 1 8.26616 2.3417 7.52466 -0.948278 -0.843391 -0.65328 
199 1 7.71848 9.28705 8.88071 1.17187 0.3689 -0.716564 
200 1 6.79926 3.40313 0.700345 -0.40235 0.537922 0.326237 
201 1 6.30172 6.12209 1.26361 -0.355329 0.420317 -0.908653 
202 1 8.36894 1.36108 3.15165 1.37783 -0.641223 0.810837 
203 1 2.74482 2.22608 6.67506 0.387662 0.310896 0.0659997 
204 1 4.01127 8.52631 9.38831 0.0437284 -0.543819 0.914923 
205 1 8.00925 2.21987 2.87926 -0.544311 1.46797 -0.512348 
206 1 6.25498 3.90858 2.46696 -1.21669 0.631409 -0.0174024 
207 1 4.66787 4.51949 1.3532 -0.0554507 1.03019 -0.760356 
208 1 8.94012 6.15196 8.6682 0.135357 0.172593 0.304639 
209 1 6.40802 4.7591 5.94678 0.0590021 0.516563 0.609565 
210 1 7.51327 3.60709 5.93459 -0.28677 -1.38395 -0.681403 
211 1 5.19614 3.34871 6.86358 1.17967 -0.195598 -0.387901 
212 1 3.39481 7.47453 6.1365 1.18177 0.00791607 -0.329457 
213 1 6.19705 6.93255 2.84624 0.335942 -0.510241 0.444371 
214 1 9.35493 2.41515 9.17624 -0.139764 -0.474347 -0.334628 
215 1 3.72982 2.51846 6.62613 -0.435848 0.772204 0.883198 
216 1 0.61848 7.54534 2.09578 1.35109 0.121969 1.25951 
217 1 0.944325 0.719441 4.76013 -0.752828 2.00667 0.171812 
218 1 5.29477 2.6409 4.84332 -0.0747356 1.55329 0.424021 
219 1 5.38412 0.987942 0.112481 -0.121191 0.602932 -0.143357 
220 1 4.24845 1.1226 7.15669 -0.785413 -0.133523 -1.16828 
221 1 6.57934 2.45544 6.58621 -0.592453 -0.609423 0.391836 
222 1 0.351638 8.7905 0.682764 -1.57432 0.452068 -0.774712 
223 1 2.68894 6.6891 4.49778 -1.31954 -0.468545 0.977221 
224 1 1.83769 5.20176 1.98826 1.71463 0.451841 0.500805 
225 1 5.38307 1.55788 0.997575 1.35682 -0.190209 -1.15159 
226 1 2.03562 2.70457 9.18806 -0.971904 -0.622641 0.0987318 
227 1 6.36716 6.28317 8.24199 0.486845 0.624704 0.22947 
228 1 5.2683 3.73595 2.52743 1.96974 1.63122 0.661158 
229 1 2.74754 6.04466 3.76624 -0.843379 0.345567 0.333595 
230 1 7.35685 5.12467 0.422493 0.035461 -0.358826 -2.49238 
231 1 1.72543 7.58399 0.499338 -1.8061 -0.51514 0.717839 
232 1 1.10444 8.2349 3.77808 0.518742 -0.59009 -0.0530774 
233 1 1.18812 8.90913 6.33313 -0.611367 -0.608707 -0.209217 
234 1 5.49985 6.45999 4.21678 0.162938 -0.706667 0.72464 
235 1 3.07629 1.15477 5.50379 -0.0148401 0.0483804 0.307711 
236 1 0.417792 8.17369 1.40812 -0.240493 1.33325 -0.665775 
237 1 5.37833 7.53711 7.61544 0.337496 1.21947 0.102748 
238 1 7.30315 9.22952 8.05558 1.0243 -0.869639 0.0701397 
239 1 8.26144 2.82964 1.28443 1.02345 0.486482 -0.00136461 
240 1 0.769399 6.59924 1.67385 -0.102264 0.626965 -0.689565 
241 1 7.12766 2.06334 5.88817 -0.428187 0.651993 -0.41464 
242 1 0.649167 8.55832 9.1942 -0.0231574 -0.237998 0.0239486 
243 1 6.63242 1.58302 8.26851 -1.10444 -0.31554 -0.345218 
244 1 3.47416 2.20281 8.59294 0.555672 -0.626013 0.57296 
245 1 3.37416 7.31396 4.52318 -0.566778 0.0372892 0.153678 
246 1 2 7.83242 5.42699 -0.610863 1.72492 -1.78634 
247 1 8.25594 0.202071 1.21845 0.914201 -0.447183 0.74967 
248 1 1.39389 0.93734 3.85326 0.813955 -1.53347 0.6234 
249 1 3.40189 7.76142 7.75079 0.107977 -0.516931 0.686171 
250 1 2.18145 0.125546 1.84893 0.442369 -0.174516 -0.613056 
251 1 3.77114 8.73749 5.34616 0.661524 -0.512711 0.27831 
252 1 2.78918 6.5143 7.63667 0.114717 0.677408 0.451071 
253 1 1.09108 9.13324 3.42265 -0.71209 0.439794 0.789648 
254 1 9.13229 7.20069 3.7882 -0.682483 0.905276 -1.04592 
255 1 0.71985 9.24925 2.53142 0.276663 -0.140971 -0.629435 
256 1 7.28686 9.40023 7.1327 -0.659688 1.01289 -0.167631 
257 1 5.72288 1.64797 7.74907 0.31756 0.682771 -1.41424 
258 1 9.22665 2.58532 0.723052 -0.611467 1.96538 0.97858 
259 1 7.9607 9.16663 0.390088 -0.505921 0.0307731 -0.312676 
260 1 6.99361 2.001 3.96476 -0.566031 -0.957284 0.554497 
261 1 7.26312 3.21872 5.06546 -0.28678 0.399387 0.890814 
262 1 2.48029 7.52076 7.67858 0.835509 0.668555 -0.643379 
263 1 5.22945 8.72685 6.40844 0.390362 -0.819382 1.07158 
264 1 6.83501 2.96052 2.1605 0.956172 0.399666 0.177052 
265 1 4.50269 8.41386 8.55685 0.522246 -0.881766 0.901161 
266 1 1.55848 6.96129 8.9836 0.900751 0.417319 0.545497 
267 1 2.75002 3.9201 0.0491293 -0.073959 0.0863601 -0.57573 
268 1 6.73921 1.0587 2.36976 0.199823 -0.24284 -1.04231 
269 1 7.69938 3.11879 2.6729 1.09242 -1.16556 -0.257846 
270 1 0.74367 7.22763 8.53946 0.0842142 -0.744692 0.000739606 
271 1 2.56775 0.323178 2.76094 0.436463 -0.516363 -0.0297864 
272 1 2.49344 0.699791 1.15476 0.506984 1.23665 0.787052 
273 1 4.20274 2.81437 2.01496 -0.0582312 0.212281 -0.45391 
274 1 7.792 5.65615 3.72856 1.38817 -0.371454 -1.0538 
275 1 5.25928 5.37293 9.03844 -0.870588 0.566486 0.252841 
276 1 7.4451 5.2782 2.93207 -1.71724 1.17743 -0.61266 
277 1 0.605499 1.73822 7.51634 0.922705 -0.353437 -1.73185 
278 1 3.7383 2.16599 1.2656 -0.503545 -0.96634 1.42474 
279 1 9.14924 5.70711 1.4101 -0.145887 -0.270976 -0.441118 
280 1 0.41861 0.558959 5.57311 -1.17695 -2.32845 0.421111 
281 1 4.17332 2.36758 5.72937 0.588165 -0.421775 -0.377466 
282 1 3.96328 3.68276 4.43164 -0.415124 -0.0731669 0.875957 
283 1 4.57156 8.57638 2.32702 -0.118932 -1.00782 0.170808 
284 1 1.424 0.200574 8.34445 -0.506692 0.492031 -0.330083 
285 1 5.91164 7.15518 9.09931 -0.362004 0.645395 0.706609 
286 1 5.23422 0.884607 7.08801 -1.73488 2.15447 0.345069 
287 1 5.03689 6.12475 0.29654 -0.360923 1.33386 0.146095 
288 1 1.2781 7.68269 1.39087 0.956458 1.25006 0.907122 
289 1 6.28702 3.31613 8.53386 -0.937072 0.0510708 -0.341496 
290 1 5.81715 8.62767 4.51431 0.793082 0.150223 -0.507089 
291 1 2.03654 1.66134 1.42508 0.0227968 0.470296 -0.89475 
292 1 4.65037 5.40702 6.33344 0.489873 0.407274 -0.406616 
293 1 5.95335 6.42548 0.412018 -0.460403 -0.513544 -0.476511 
294 1 4.74869 0.338614 9.17482 -0.134324 0.0222128 1.17424 
295 1 1.78468 4.12536 1.75702 -0.248267 -0.225731 0.893387 
296 1 5.67185 0.215166 8.79642 -0.115298 -0.54393 0.801348 
297 1 0.612207 3.07197 1.09088 -0.0878051 -1.76241 0.314531 
298 1 7.3939 0.112347 6.13037 0.7992 0.308314 -0.140213 
299 1 1.08683 1.70896 8.43027 0.0641377 0.346628 -0.326104 
300 1 0.667419 7.42148 5.84653 -0.783749 0.503869 -0.176363 
301 1 4.91658 9.2482 8.35709 -0.526412 0.366244 -0.650971 
302 1 5.95261 2.91314 9.34636 2.09277 -0.54642 -0.0673555 
303 1 3.7131 7.43362 3.12436 0.193866 0.970221 -0.570173 
304 1 3.57729 8.40349 6.21813 -0.182979 1.11975 0.317529 
305 1 3.17565 5.50139 7.68268 -0.122765 0.606841 -0.865617 
306 1 0.431243 6.43292 9.09442 -0.0287741 0.162322 -1.32332 
307 1 1.15415 8.94415 7.69672 -0.526082 -0.458626 0.24996 
308 1 3.93145 6.36064 3.34032 -1.57819 -0.192733 -1.24936 
309 1 6.99726 3.30868 9.18453 -0.737049 0.356191 -0.824301 
310 1 7.28269 4.51872 5.69847 0.139597 -1.02901 -0.0967903 
311 1 4.68579 8.24051 0.683341 1.11071 -1.14783 0.269768 
312 1 1.33623 5.98181 2.21972 -0.559763 -1.17803 -0.802344 
313 1 4.34503 7.70409 6.15346 0.127909 -0.902949 0.240248 
314 1 3.89536 4.84021 7.79092 -0.769175 1.16214 0.72848 
315 1 8.92029 8.48432 3.10069 0.266843 -0.20717 1.06864 
316 1 6.47635 8.52232 2.29025 0.0440989 0.515133 -0.779944 
317 1 7.94332 3.44921 9.02489 1.03751 0.478381 0.0500939 
318 1 5.61951 6.84783 8.20567 -0.934039 -1.16268 -0.507984 
319 1 8.43332 7.25458 6.97691 0.170682 -0.15991 -1.03336 
320 1 7.67819 4.03355 7.59887 -0.618752 -0.149944 0.12622 
321 1 2.45415 7.65463 4.62128 -0.60112 -1.40011 -0.954253 
322 1 1.29476 2.8779 0.427334 1.65622 -0.0357166 -0.315754 
323 1 2.30433 1.94028 3.19378 0.067879 0.0171244 -0.801726 
324 1 6.98814 7.94969 4.38862 0.32553 0.477266 -0.602827 
325 1 2.32913 3.46891 8.69721 -0.313647 0.696747 0.428671 
326 1 4.06571 5.84307 7.83375 0.587212 0.183539 -0.161835 
327 1 7.12471 4.98019 8.8794 -1.63402 1.0094 -0.834709 
328 1 7.88622 6.29861 4.43124 -0.850491 -0.374605 0.169259 
329 1 2.77178 6.44799 9.04648 -0.464175 0.403585 -0.83056 
330 1 4.37472 0.350787 1.59056 0.78502 -0.215452 0.984438 
331 1 3.92092 9.25256 3.54773 0.803119 -0.576796 -0.509537 
332 1 9.15888 9.17401 2.41503 -0.0522232 0.392999 -0.104186 
333 1 5.13103 0.26238 6.38762 0.0193726 -0.179514 -1.28142 
334 1 4.84239 3.33325 4.2599 0.221969 0.870826 0.979178 
335 1 2.26975 8.37817 6.15951 -0.26728 0.00118896 -0.530313 
336 1 8.67151 7.61462 -0.0197103 -0.229804 0.316426 0.433518 
337 1 4.96572 4.48875 8.89956 1.77443 0.725225 -0.183148 
338 1 4.8881 1.73955 2.55293 0.663557 2.23976 -0.227713 
339 1 3.62332 5.45092 4.81823 0.483672 0.275436 0.385564 
340 1 4.97163 2.99648 5.72801 -1.23927 0.345409 -0.0732198 
341 1 2.97039 2.86586 9.13005 -1.27984 0.277289 0.851905 
342 1 7.6741 4.22718 8.5517 -1.53437 -0.241 -0.127804 
343 1 0.838332 7.97855 0.565289 0.107499 -0.396025 -0.205862 
344 1 5.34155 5.60847 4.52416 -0.205317 1.44796 0.572409 
345 1 4.37128 2.87451 1.06268 -0.28351 -0.7028 -0.532082 
346 1 7.2648 4.20161 0.0802704 -0.512937 0.371848 -0.429772 
347 1 5.74001 5.96187 5.90904 0.071882 -0.996703 0.0346841 
348 1 3.36943 4.74525 0.0109129 0.646288 -0.226138 -0.403794 
349 1 0.223845 6.47556 4.15367 0.0280859 -0.801027 -0.521847 
350 1 3.81855 2.10004 3.77302 0.278641 0.431576 -0.89484 
351 1 7.37204 1.04967 5.95024 0.475254 -0.399641 0.796306 
352 1 9.28123 0.320257 6.50638 -0.546106 -0.132355 -1.56797 
353 1 6.28024 0.520679 0.0591661 0.199466 -0.480914 -0.804883 
354 1 7.25639 6.70735 8.39626 -0.640551 0.148638 -0.153938 
355 1 5.06381 9.2138 7.25517 0.811766 0.338726 0.905663 
356 1 4.97589 7.19855 4.39723 0.156803 1.71195 -0.159416 
357 1 5.38197 2.97347 8.53963 0.139643 0.0406823 0.209146 
358 1 7.44419 4.27007 6.68539 -0.192583 0.927506 0.0189469 
359 1 2.21502 7.60545 1.46712 -0.908032 0.080387 -0.107451 
360 1 2.06323 2.31581 0.64295 1.07288 -0.0778107 -2.22245 
361 1 0.783504 8.337 5.51025 1.18218 1.89043 -0.0531411 
362 1 9.13231 9.39033 7.57178 0.0429466 0.880556 -0.425528 
363 1 5.6045 4.5934 2.26748 0.163915 0.36018 -0.578302 
364 1 3.95057 4.92454 0.764032 -1.46943 0.737176 -0.532515 
365 1 3.30252 2.52434 2.06561 0.785286 0.23733 -0.94389 
366 1 5.75551 2.17682 1.72208 -0.669592 0.38994 0.850374 
367 1 7.41938 6.29023 5.84393 0.475499 0.0964537 -0.794837 
368 1 4.41533 3.77344 5.395 1.03392 -0.998857 0.821383 
369 1 8.24038 9.36724 2.20794 -0.236081 -0.307326 0.368504 
370 1 8.9852 7.75488 4.52693 0.762268 -1.13966 0.184409 
371 1 4.30833 3.4005 6.31793 0.526172 0.29018 0.708768 
372 1 3.36889 6.43608 5.14079 -0.284658 -0.0103344 0.437883 
373 1 2.84626 7.18101 5.35479 0.360787 0.51867 -0.0147773 
374 1 7.29412 7.03822 4.27578 0.410604 -0.349243 1.56474 
375 1 4.55099 6.04059 8.84741 -0.287514 -1.47538 0.835474 
376 1 7.85849 8.50791 8.28769 0.100856 0.774598 -0.620786 
377 1 1.95179 7.84957 6.9134 -0.685825 -0.316957 -0.449158 
378 1 7.38541 2.57315 0.994359 0.367781 -0.0969632 -0.421331 
379 1 5.97394 9.09774 1.67529 0.260629 -1.06478 -0.514255 
380 1 3.40452 7.09553 9.37084 -0.0132018 -0.584397 -0.111805 
381 1 6.83729 0.453152 8.67991 0.549805 1.3339 0.214747 
382 1 4.36782 2.92803 4.96245 0.149529 0.574483 -0.570175 
383 1 7.55585 6.79194 9.30836 -0.249807 -0.517246 -0.0643086 
384 1 4.55605 1.96921 0.733932 -1.19878 -0.21533 0.932012 
385 1 7.74524 7.6889 0.247841 -0.233654 -0.795857 -0.642332 
386 1 1.61779 7.49811 4.15976 0.0727437 -0.645856 -0.105156 
387 1 7.54703 0.667483 0.00851099 0.936447 -0.876932 0.441045 
388 1 5.42248 3.98944 3.86642 0.193342 0.293257 0.129268 
389 1 1.57171 5.22139 2.90665 -1.21827 1.75996 -1.36179 
390 1 7.6055 9.30824 3.08594 -1.26231 -0.768939 0.0577997 
391 1 3.23658 0.187503 2.04472 -1.51408 -0.485028 -0.522383 
392 1 6.7617 7.27675 5.05738 0.839516 -0.108292 -0.428101 
393 1 4.1623 6.901 4.83208 0.470221 -1.4161 0.338522 
394 1 3.41067 2.39817 7.63693 -0.961094 -0.175317 0.102978 
395 1 9.00619 4.9825 9.33819 -0.447414 1.57358 0.632512 
396 1 5.56647 4.86613 1.24106 -0.412323 -1.13192 0.747224 
397 1 3.99141 6.82262 8.65278 -0.404401 -1.32766 -0.880955 
398 1 7.88165 0.535482 4.52885 0.342686 -0.107849 0.0125591 
399 1 3.21336 7.38699 1.35698 1.30077 -1.10408 1.74721 
400 1 6.97631 6.42908 7.49453 -0.699743 0.260313 -0.567428 
401 1 5.38917 5.84014 1.1607 0.879025 0.729463 0.101866 
402 1 4.58918 8.24755 5.42288 -0.320568 0.643661 -0.126039 
403 1 1.8739 1.73453 4.11117 -0.817663 0.462651 -0.89277 
404 1 7.46667 8.45152 7.40396 0.545114 -0.706919 0.235809 
405 1 2.60029 2.73622 2.69683 0.890646 0.724175 -1.2787 
406 1 6.12384 2.37541 2.58874 -1.5723 0.694075 -0.51003 
407 1 4.70803 2.56546 6.56745 1.01863 -0.134032 -0.103837 
408 1 6.16706 3.31521 6.80524 0.205945 -0.112572 -1.75274 
409 1 9.01104 4.51307 0.778722 -0.463986 -0.796608 -0.112295 
410 1 3.33486 4.52148 2.44786 0.0564292 0.466375 1.57281 
411 1 9.0522 5.27809 2.30601 -0.155175 -0.151178 -0.329558 
412 1 2.85614 1.22783 2.93338 0.769489 -0.59581 -0.482716 
413 1 7.4121 1.46594 3.23607 -0.196922 1.27809 0.0517066 
414 1 7.12696 5.70208 8.1851 -0.85352 -0.0984143 -0.873814 
415 1 0.653642 2.16556 0.492059 -0.123455 1.02984 0.520498 
416 1 0.394579 2.18322 1.40447 -1.04965 0.191091 -0.704843 
417 1 7.91437 5.1352 8.34257 -0.727766 0.412069 0.801178 
418 1 7.83233 7.72809 4.72061 1.12339 0.785021 -1.07111 
419 1 8.85047 2.06317 1.4253 0.0619129 1.16014 0.00795696 
420 1 6.53084 5.17698 1.07066 0.421406 1.56318 1.19125 
421 1 7.17697 1.0474 4.07552 -0.424399 -0.563248 -0.242198 
422 1 6.28068 8.07406 8.9112 -0.105425 0.257094 0.375481 
423 1 1.52209 4.52496 0.501647 0.168844 -0.825666 -1.82197 
424 1 1.84729 4.26054 9.02744 -0.321731 0.702699 1.3403 
425 1 4.67072 0.0720882 4.08392 -1.02471 -0.791406 -0.19451 
426 1 3.18103 3.87266 0.906462 1.36738 -0.163459 -0.0223141 
427 1 9.36469 8.25378 2.24324 1.65564 -1.0506 -0.278396 
428 1 6.23436 3.85903 0.0115619 0.404757 -0.797437 0.820357 
429 1 2.28039 6.10509 2.07716 0.651568 -0.296306 0.107958 
430 1 7.96549 7.96028 5.95478 0.368789 -0.623628 0.665434 
431 1 7.4956 1.10002 8.4152 -0.434611 0.43534 -1.20836 
432 1 6.48943 2.73863 1.33311 0.962272 0.352623 -0.24385 
433 1 4.29452 4.32592 2.31524 0.34256 -0.622339 1.44471 
434 1 6.85424 4.35539 3.08059 1.2459 2.55799 -0.454695 
435 1 5.09131 3.94051 6.06629 -0.32348 0.139492 0.854456 
436 1 8.78075 1.15247 1.09454 -0.679832 0.0988325 0.48386 
437 1 8.31697 8.22183 6.86004 -0.285993 -1.21501 -0.178554 
438 1 5.94813 4.6824 8.83107 0.515689 0.402883 0.130423 
439 1 0.485935 8.08927 4.63402 0.416182 -1.4978 1.56821 
440 1 8.90531 7.3086 7.83169 -1.08018 -1.15364 -0.121894 
441 1 1.26856 9.33513 1.75445 1.47193 -0.105475 -0.875201 
442 1 3.02505 9.37054 7.82609 0.353045 -1.00971 0.688711 
443 1 9.11005 1.69031 0.352256 0.231898 -1.03155 -0.13092 
444 1 8.85604 7.70774 6.23482 -0.219524 0.508935 2.03926 
445 1 6.8143 3.29293 3.01168 -0.164501 0.435103 -0.237996 
446 1 4.4706 5.72057 2.83012 -0.373339 0.910792 -0.0363593 
447 1 3.21117 0.548615 8.61556 0.653439 -0.106119 0.610687 
448 1 0.496326 1.57255 9.14627 -1.10382 0.0277043 -0.481697 
449 1 1.06741 1.51002 1.62166 -0.366992 0.732664 -0.926005 
450 1 5.59868 4.70079 4.52363 1.0787 -0.291835 0.299547 
451 1 2.6706 7.42573 0.606853 0.424218 -0.032431 -1.1942 
452 1 4.47527 6.70957 2.65268 -0.786563 -0.498459 -0.0470695 
453 1 7.64473 2.66376 0.0793181 1.58284 -1.35951 -1.47918 
454 1 0.0609304 0.229779 4.71401 -0.694574 -0.548368 -0.607797 
455 1 6.89146 2.3262 4.95976 -1.44108 0.875208 0.191836 
456 1 7.42478 8.7639 2.34256 -0.577474 -1.35977 0.445072 
457 1 3.12006 8.04642 9.40935 0.499392 -0.564387 1.15735 
458 1 5.4536 5.40082 2.81855 0.00198353 0.0409882 -0.581614 
459 1 5.04755 3.75226 0.858851 -0.539689 -0.802911 -0.00749238 
460 1 0.31109 9.05754 5.96257 -0.54284 -1.61091 -0.761565 
461 1 7.18655 4.77573 2.19277 0.211577 0.165634 0.67176 
462 1 4.09915 3.80097 1.01269 0.348523 0.273332 0.210216 
463 1 4.0077 9.31204 8.69143 0.883476 -1.32764 -0.876945 
464 1 8.65069 9.28609 9.1216 0.144623 -0.911682 0.628752 
465 1 5.85188 3.30932 7.69635 -0.149999 0.386585 -0.364442 
466 1 1.90042 9.27099 0.964517 0.429214 0.0863814 -0.922005 
467 1 6.80502 6.1663 6.57744 0.472603 1.24382 -0.645809 
468 1 7.1266 4.30236 1.08199 -1.31488 -0.981784 0.532313 
469 1 2.99634 0.262421 3.66223 0.735763 0.11317 -0.696213 
470 1 6.8552 7.45199 9.33092 -0.359862 -0.246386 0.526701 
471 1 1.32197 2.36771 1.24599 -1.37228 1.3047 -0.592383 
472 1 1.38954 9.36939 4.31184 0.246583 -0.369916 -0.043284 
473 1 4.45717 3.95797 7.11124 -0.204823 1.54286 0.975358 
474 1 4.86263 4.63189 5.41613 0.408024 -0.69031 0.857657 
475 1 6.15534 7.36334 0.585326 1.10169 0.450588 0.393481 
476 1 7.15005 5.20586 6.41652 1.66488 1.67647 -0.749089 
477 1 2.58078 1.84868 7.53748 -0.327254 -0.730884 -0.336182 
478 1 2.64208 5.77901 1.23951 1.09162 0.240607 -0.492008 
479 1 4.59424 7.67078 3.42518 -1.50154 -0.113279 -0.567312 
480 1 2.85846 0.641255 4.62397 -1.69202 -0.778226 -0.375246 
481 1 4.90264 5.19481 0.585171 -0.14979 -1.58365 0.853411 
482 1 7.66298 2.63743 4.42812 -1.8305 -0.471396 1.14487 
483 1 8.20422 5.97415 2.93722 0.122988 -1.06579 -0.856782 
484 1 2.36019 8.8406 3.20638 -0.219216 1.01484 0.229478 
485 1 3.36504 1.16054 2.09817 -0.0658562 -0.251482 2.05422 
486 1 4.49143 1.32588 0.00735669 -0.304065 -1.0361 0.610124 
487 1 8.51048 0.569073 0.360359 0.300231 -2.09663 1.11714 
488 1 7.73405 0.741137 2.64526 -0.384028 -0.916321 -0.133425 
489 1 6.81658 8.86451 5.71723 -0.473688 -0.862569 0.709801 
490 1 5.37861 7.73194 8.57564 0.303798 -0.363026 -1.07057 
491 1 8.5223 1.67009 2.22605 -0.795713 -0.74509 0.437877 
492 1 2.02875 1.60287 8.3474 0.429347 0.347403 0.483287 
493 1 1.00365 6.79818 2.56693 -0.761474 0.677538 0.886412 
494 1 6.72174 8.84974 4.51032 1.20459 0.293946 0.3337 
495 1 0.886774 0.414891 6.39603 0.310194 -1.13194 0.074062 
496 1 5.64343 2.67058 6.31099 0.0315174 -0.160958 0.909171 
497 1 1.93775 6.90361 2.75637 0.401882 0.314008 0.0612574 
498 1 5.52522 8.42272 2.14552 -1.30858 -0.513135 0.0561138 
499 1 3.44787 1.11761 3.70688 -0.0414712 -0.467364 -0.257231 
500 1 8.04365 3.50803 6.7843 0.861353 -1.09954 -1.20317 
501 1 8.69952 0.744479 2.51287 -1.28595 -1.11637 -0.720433 
502 1 5.30085 7.83762 5.97252 0.263194 -0.0545666 -1.11324 
503 1 9.17301 7.07528 8.75281 1.13593 0.52726 0.480904 
504 1 2.09787 6.69687 0.304858 0.651888 -0.428199 -0.719215 
505 1 3.83358 7.80317 6.92024 -0.392665 -0.274502 0.0303808 
506 1 7.28721 8.58001 3.75911 0.126344 0.302158 -0.290543 