ITEM: TIMESTEP
2808
ITEM: NUMBER OF ATOMS
1000
ITEM: BOX BOUNDS pp pp pp
0.0000000000000000e+00 9.4000000000000004e+00
0.0000000000000000e+00 9.4000000000000004e+00
0.0000000000000000e+00 9.4000000000000004e+00
ITEM: ATOMS id type x y z vx vy vz 
1 1 6.24315 1.0686 5.06665 0.668282 -0.320597 0.110337 
2 1 3.32951 6.03116 2.53423 -0.487045 -0.285713 0.174747 
3 1 8.44481 8.84704 4.25054 -0.554144 -0.225835 -0.546343 
4 1 1.37596 8.95704 9.07835 -0.805642 -0.141367 -0.414402 
5 1 1.3037 8.48275 4.28093 -0.446499 0.697196 0.820419 
6 1 7.11635 1.89786 7.4817 -0.0683422 -0.295049 -0.901796 
7 1 3.47266 7.32106 6.30106 0.984974 -0.707295 0.350722 
8 1 2.17397 0.40258 5.80579 0.0337029 -0.585759 -2.67579 
9 1 5.53724 7.68593 9.10795 -0.663535 0.251045 0.145566 
10 1 3.28718 1.48889 5.66442 -0.614818 -1.06174 0.27089 
11 1 4.27148 6.50892 2.54333 1.12707 -0.303843 0.353118 
12 1 8.05293 8.13902 3.10614 -1.09704 0.693942 0.964546 
13 1 5.70415 3.83128 7.79817 -0.642251 0.0752254 1.09498 
14 1 9.39858 7.28009 4.8751 -0.497437 1.2015 0.575871 
15 1 3.04655 5.33428 4.3263 0.766902 -0.393232 -0.176797 
16 1 3.08333 6.79922 7.52412 0.130811 -0.230863 0.20785 
17 1 9.10869 7.99783 6.89374 -0.506549 -1.35794 0.319803 
18 1 8.67155 3.80298 9.1228 0.358102 -0.544721 -0.216657 
19 1 3.28608 3.18983 6.05003 -1.94488 0.505179 0.788864 
20 1 3.83836 1.41235 4.18513 1.55693 -0.559712 -0.281056 
21 1 5.99528 4.41067 0.32968 -0.297538 -0.782878 0.657833 
22 1 2.37008 8.01316 1.70332 -0.0133382 -1.13353 0.808084 
23 1 2.82468 1.93217 8.40022 1.89843 1.34558 0.638775 
24 1 0.314718 3.35061 3.69277 -0.980294 0.679717 -0.336989 
25 1 1.222 0.822038 8.21812 0.232038 0.970309 -0.716566 
26 1 7.45958 9.3416 0.43687 0.492351 -1.49089 0.0328292 
27 1 4.00564 5.17401 1.23757 -0.369645 0.243013 0.797661 
28 1 5.7724 5.31054 1.24363 -1.56523 0.425238 -0.338563 
29 1 1.1776 8.51659 6.6755 -0.975575 -0.136827 -0.487323 
30 1 9.05121 0.319159 3.13316 -0.0855553 -0.500383 -0.927852 
31 1 3.24355 6.54063 0.906077 -0.237962 0.574933 -0.439493 
32 1 4.54097 0.67669 2.72345 0.950185 -1.71035 0.32001 
33 1 9.13677 5.55956 3.83223 0.780913 -1.45754 -0.259513 
34 1 4.06984 3.71903 3.42195 0.502294 -0.959989 0.524477 
35 1 4.25392 6.38023 8.76205 0.155024 -0.857011 -1.29916 
36 1 6.34962 0.853819 9.00594 -0.0174307 0.419375 -1.33678 
37 1 6.61246 0.342167 6.35312 1.17506 -0.458014 0.898087 
38 1 3.66802 9.10952 0.576352 -1.06861 -0.657393 1.24177 
39 1 7.57704 2.16057 1.18641 -0.789177 -0.0800887 0.844516 
40 1 5.02353 3.70111 1.19686 -1.36859 -0.114974 0.225787 
41 1 2.32189 9.01432 7.92927 -1.24562 0.50855 -0.355287 
42 1 8.53128 1.87704 7.08605 -1.21043 0.201764 -0.119222 
43 1 9.20214 7.09251 9.12954 -1.09098 -1.62738 -0.472124 
44 1 6.99524 0.159617 9.06052 0.745097 1.49668 -1.94597 
45 1 2.06163 5.541 4.51119 -1.23798 0.892851 0.0238051 
46 1 3.89561 7.22781 9.12865 0.8865 -0.336817 0.107357 
47 1 9.35102 2.1781 5.42985 -1.71542 0.641415 -0.898412 
48 1 4.35839 4.30606 1.52803 0.257239 0.620555 -0.899123 
49 1 8.91956 8.13057 1.86576 0.241288 0.0425994 -0.795524 
50 1 7.60508 4.66451 1.01485 0.447352 0.650705 0.608248 
51 1 5.86323 2.73933 1.22229 0.017323 0.242405 -1.62449 
52 1 6.12601 0.731969 2.52176 0.716264 -0.827656 0.957565 
53 1 3.35842 5.1972 6.56403 -0.3151 -0.0564529 1.13205 
54 1 0.603119 1.87214 4.828 -0.850473 0.213984 0.0846803 
55 1 0.386189 6.42873 8.83137 -0.29906 -1.31488 -1.00412 
56 1 8.09084 4.60813 5.0471 0.116696 -1.47595 0.552831 
57 1 2.1641 4.62804 1.6685 -1.32855 -0.565255 0.203589 
58 1 0.263996 8.58395 6.39629 0.614138 -1.04289 -0.603879 
59 1 4.54733 2.00889 4.31307 -1.92922 0.19691 1.3781 
60 1 3.20875 7.61085 4.48319 0.303771 -1.12397 -0.498603 
61 1 8.4928 0.358772 3.91 -0.940498 0.0400375 0.0805114 
62 1 6.48848 1.19149 5.97823 -0.0621865 0.306577 1.70484 
63 1 1.76628 4.29078 6.144 0.0537772 -0.093978 -0.173719 
64 1 9.11501 4.86239 3.06882 1.12333 -1.12665 0.775511 
65 1 0.32811 3.35694 6.36366 -0.254086 -0.865712 -0.569561 
66 1 5.48036 5.86981 4.91468 1.10629 -0.250177 1.02427 
67 1 6.31955 2.50504 8.9489 0.820656 -0.0560284 0.759301 
68 1 7.97476 7.82266 5.06367 -0.329378 0.074327 0.945613 
69 1 3.85827 0.268459 9.21927 -0.995799 1.16592 -0.125468 
70 1 5.67394 2.71268 6.46594 0.887405 -0.054642 -0.748043 
71 1 7.86609 0.814698 4.96196 -1.14474 0.419753 0.46889 
72 1 1.06499 4.28784 7.67109 -0.661922 0.27203 0.519496 
73 1 3.4442 1.46931 6.62722 1.825 -0.300604 0.583744 
74 1 2.41627 5.85981 2.85662 0.438307 -0.653494 0.191881 
75 1 7.93416 5.2303 8.45837 1.32061 1.05799 1.27404 
76 1 5.02874 8.33114 5.85156 0.0622496 -0.103168 0.457378 
77 1 7.44903 5.658 6.39002 0.416068 -1.11034 -0.427571 
78 1 1.82733 5.22126 6.07047 0.0746055 1.01577 0.711988 
79 1 4.87401 6.59936 0.845741 -0.822557 0.2222 0.835886 
80 1 7.99728 6.99154 7.29243 0.753261 0.643404 -0.248803 
81 1 0.892594 8.32658 1.50827 -0.404286 0.479587 0.29915 
82 1 7.58395 6.7652 0.467783 -0.106807 0.490444 -1.12267 
83 1 8.93757 4.62876 6.8667 0.818748 1.29914 0.470812 
84 1 4.95352 5.33509 4.26572 -0.197411 0.381902 0.333424 
85 1 0.796726 0.930929 4.54281 -0.69021 -0.248361 0.329267 
86 1 1.20969 2.55614 4.76761 -1.6548 -0.534667 -0.702636 
87 1 8.28928 5.21643 3.47363 -0.114951 -0.129453 0.316004 
88 1 7.16527 2.67686 3.99992 0.821195 -0.844957 -1.27992 
89 1 1.9897 9.32099 0.357019 -0.14293 0.147583 1.10209 
90 1 3.36556 3.745 8.57987 0.551227 1.14234 1.23537 
91 1 8.01505 3.11887 6.05952 0.353008 -0.539739 0.275806 
92 1 4.15617 3.59278 5.8227 -0.203704 -1.92554 0.389532 
93 1 2.56734 7.52084 6.00547 -0.050054 -0.0673002 0.240345 
94 1 8.78816 1.03647 2.52234 -1.20545 -0.581504 -0.480981 
95 1 3.36915 8.60425 5.60534 1.20146 0.189394 -0.118449 
96 1 3.91538 4.38901 6.62578 -1.75357 0.404542 -0.0666812 
97 1 2.22403 4.21733 3.42475 0.885503 0.255604 0.663334 
98 1 4.84884 6.9733 9.33119 0.264388 0.706552 0.465531 
99 1 0.865515 5.90128 0.0530821 0.451095 -0.0513745 0.126769 
100 1 2.29778 9.0162 8.89983 -0.623813 0.611329 -0.172668 
101 1 7.89716 0.739241 0.0788676 -0.612003 0.658354 -0.209524 
102 1 0.792877 1.19683 5.46962 0.0818317 0.285596 -1.32776 
103 1 6.79133 6.92727 4.93164 -0.0881529 0.699713 0.118308 
104 1 9.0025 4.31904 0.516721 -1.01455 -0.490513 -1.92724 
105 1 3.88737 1.4996 8.27688 -0.744977 -1.12034 0.653778 
106 1 5.62645 4.0623 8.79597 0.621048 -0.331789 -0.921468 
107 1 3.35519 6.40625 8.38696 -0.493659 0.759156 0.533669 
108 1 4.09373 7.82489 3.95967 -0.0311196 -0.388923 -0.890459 
109 1 4.47128 0.0161463 2.00894 0.323838 1.17955 -0.270766 
110 1 4.64294 7.9233 0.0204404 0.191742 0.269765 -0.349213 
111 1 5.54096 1.19898 1.88357 -0.0580893 -0.125357 0.212074 
112 1 2.30663 6.18721 1.3137 2.2305 0.177908 0.226934 
113 1 3.23657 8.28226 3.8168 0.913215 0.384156 -0.292092 
114 1 0.915473 2.24788 6.95551 -0.636104 0.907953 0.687988 
115 1 6.58657 6.53226 0.760087 0.370015 1.98748 -1.65731 
116 1 2.8925 4.58087 8.61064 -0.0953123 0.525542 -0.410392 
117 1 7.04036 7.38648 1.9028 -0.889218 -0.710632 0.260921 
118 1 5.47409 8.37863 0.39962 -0.310956 0.950127 0.35012 
119 1 5.91946 9.1213 6.40281 0.551227 -1.26278 -1.24323 
120 1 0.15101 7.9688 7.97066 0.127905 0.32951 0.698821 
121 1 0.126805 5.03419 5.60085 1.13053 1.62787 0.709823 
122 1 1.4272 9.2899 8.15964 0.302249 -0.558361 -0.190451 
123 1 5.46487 8.02913 5.04963 -0.127191 0.287228 -0.132085 
124 1 0.340301 9.11316 2.85518 -0.519373 -0.890433 -0.944092 
125 1 4.08167 6.15091 1.16762 0.379154 -0.799086 1.07028 
126 1 1.25393 6.02145 4.7781 -1.28396 0.422912 -0.0178567 
127 1 6.32134 0.219613 7.25236 1.01386 -0.167661 1.30892 
128 1 4.41818 8.12231 2.88326 -0.146884 -0.82079 -0.0809313 
129 1 3.67312 4.36678 4.1144 0.248094 -1.13288 -0.391616 
130 1 5.4538 7.93838 2.2718 2.0337 -0.249382 1.13592 
131 1 6.25692 7.30752 0.234305 0.584223 -0.505704 0.712545 
132 1 8.68303 6.71925 2.83652 -0.11718 0.278554 0.582245 
133 1 6.67709 7.13073 3.94325 0.693605 1.46753 0.330475 
134 1 8.74476 1.09956 6.5333 1.70888 -0.0582272 -1.06625 
135 1 3.1892 0.199014 3.47224 0.235983 -0.287689 -0.00869894 
136 1 3.64495 0.237163 2.56202 -0.912169 -0.769449 0.331548 
137 1 8.35612 5.02733 7.59944 -0.921699 0.236426 0.846046 
138 1 3.21695 1.83792 7.50161 1.09913 -0.145826 0.663029 
139 1 4.8724 2.21206 3.33747 0.373899 -0.0799965 0.985781 
140 1 8.46724 9.31321 8.19773 -0.58937 1.2784 0.197366 
141 1 4.2203 5.41013 8.68387 0.89856 -0.218994 0.121421 
142 1 8.46394 4.34116 1.2744 0.524867 -2.088 -0.0263536 
143 1 8.24681 4.42268 2.87836 1.45774 0.13612 -0.352025 
144 1 2.5662 3.41134 7.19326 -1.41282 0.250959 0.19434 
145 1 0.879862 6.24943 8.02505 0.993667 -0.553102 0.452722 
146 1 3.29401 4.68867 0.749186 1.60686 0.192167 -0.27694 
147 1 5.35207 4.31546 4.23109 0.649456 1.12792 0.382867 
148 1 5.57965 8.07054 1.32398 1.22995 -0.482982 -0.214739 
149 1 0.430132 0.841536 3.5014 1.42055 1.21821 -0.158678 
150 1 3.55159 9.33933 1.61617 -0.191445 -0.446342 -0.248554 
151 1 4.29613 8.76387 5.38754 -0.702429 0.654891 0.574505 
152 1 3.38907 8.04785 9.11268 -0.2159 -1.26064 -1.14666 
153 1 8.009 1.15174 3.12195 1.05602 -1.14309 -0.357767 
154 1 4.66941 0.885969 1.68726 -0.505299 0.538144 0.261179 
155 1 3.41468 8.80936 3.01559 -0.286892 -0.443758 -0.567646 
156 1 8.83001 4.56917 2.12985 -1.4481 0.775338 0.60271 
157 1 8.95498 0.162476 7.41879 0.0533084 0.233361 0.83603 
158 1 1.73153 8.39281 8.41433 -1.23215 0.9289 1.3943 
159 1 4.2178 1.5196 9.22478 -0.361037 -0.282771 1.80783 
160 1 1.07245 7.1553 1.0349 -0.231645 0.0326188 -1.65315 
161 1 0.113027 2.77478 7.21521 0.44876 -0.945781 -0.821227 
162 1 3.67513 2.43425 4.40487 0.718013 0.931506 0.373062 
163 1 6.80765 8.86705 1.29064 0.0966815 -0.245253 -1.80751 
164 1 8.40783 4.31459 8.30074 -0.372087 0.757612 0.711706 
165 1 4.70343 8.40992 4.60595 0.252894 -0.367009 -1.4187 
166 1 9.36249 4.03715 1.45361 0.472597 -0.0153743 1.075 
167 1 6.09884 6.45739 4.48849 -0.905261 -0.303753 0.451966 
168 1 3.35277 3.36325 5.1394 0.829246 -1.9965 0.238065 
169 1 8.31947 5.75612 4.42835 0.0725774 -0.331423 0.0168931 
170 1 4.07619 8.72147 9.13378 -1.1867 0.774781 -0.912311 
171 1 7.24464 4.45784 0.150947 -0.127683 0.018351 -1.24089 
172 1 0.049076 7.35461 3.89426 -0.144138 0.268865 -0.387061 
173 1 6.98679 0.704305 4.55236 1.27694 0.178549 0.532946 
174 1 8.87356 8.98425 1.33609 0.150463 0.0719891 0.312702 
175 1 5.31102 1.49912 4.71924 -0.242772 -0.588435 -0.237683 
176 1 3.19235 2.35086 5.2314 -0.641867 -0.689456 0.419858 
177 1 6.32631 1.66018 2.22701 -1.08247 0.769283 0.242157 
178 1 6.18043 0.85255 1.28017 0.492471 2.27727 -1.91843 
179 1 0.844709 4.07497 4.13498 -0.277029 0.441515 -1.21677 
180 1 1.93809 3.19054 4.7788 0.0548805 -0.988347 0.757636 
181 1 0.683463 7.94598 0.615477 -0.401185 -0.672357 0.737433 
182 1 8.23303 8.79975 2.07174 -1.75743 0.0507798 -0.801534 
183 1 8.27494 1.79183 3.85946 -0.0734951 0.56216 -0.864893 
184 1 2.97025 4.13632 7.76962 -0.582987 0.811995 0.892337 
185 1 6.56179 8.87602 8.55511 -0.0792375 -0.465977 0.883635 
186 1 4.70604 6.59984 4.90168 0.302213 -0.413458 0.495887 
187 1 3.20916 6.2952 4.23245 -0.325806 -1.05478 -1.20852 
188 1 5.9827 5.82902 2.0456 -0.535356 -0.783859 0.360958 
189 1 6.25679 2.77869 2.3077 -1.24702 0.127029 0.458397 
190 1 3.83504 6.33986 3.41165 0.722602 0.702261 -1.31086 
191 1 1.91079 2.43655 4.10263 -0.2262 0.502965 -0.455092 
192 1 2.34332 8.07575 4.15262 0.249602 0.0819576 -0.659785 
193 1 2.31843 4.45954 0.621849 0.122008 0.613895 -0.247889 
194 1 3.05144 9.13002 4.30865 -1.20106 -0.0486932 -0.0887372 
195 1 7.11738 1.26143 2.78239 -0.980531 0.553579 -0.588357 
196 1 2.39554 8.42247 5.73222 -0.14609 -0.782914 -0.0199328 
197 1 5.70396 3.24742 9.27111 -0.315357 -1.51096 -0.130889 
198 1 0.658687 2.33542 3.88134 -0.963373 0.263148 -0.613502 
199 1 2.51552 8.84697 3.53285 -0.0482921 1.03906 -0.110588 
200 1 8.88507 1.15757 3.5165 0.0335985 0.625908 -0.179205 
201 1 1.75201 7.26675 3.44438 0.285144 0.0112437 0.679568 
202 1 0.912581 5.57779 7.36734 -0.102402 0.824151 1.48574 
203 1 6.07714 6.51175 3.55133 -0.165279 0.506481 -0.364629 
204 1 0.507898 0.535375 6.07979 0.33651 -0.23876 -0.448224 
205 1 0.948604 8.70432 7.57474 0.483431 -1.05733 -1.15968 
206 1 8.45117 7.13889 4.57984 1.24743 0.698541 0.885127 
207 1 0.0841097 8.19602 5.27677 -1.27955 -0.17556 0.289007 
208 1 6.88277 0.892728 1.95112 0.779579 -0.373897 -0.400699 
209 1 6.7931 4.84485 6.00594 1.63292 0.0597571 -0.864693 
210 1 0.299121 7.56678 1.45068 -0.79071 1.45513 0.416971 
211 1 8.31557 0.335607 1.64104 0.871063 0.174413 -0.578643 
212 1 7.88201 3.52391 7.96832 -0.322739 0.628592 0.752096 
213 1 3.09537 1.5507 4.7349 -1.19459 0.250472 0.197323 
214 1 0.993344 8.46215 2.49572 -0.74338 -0.297875 0.647955 
215 1 1.22579 3.14492 4.03105 -0.272908 0.151739 0.144191 
216 1 8.61388 5.45441 9.15956 -1.54552 0.983548 -1.08725 
217 1 6.01557 4.23471 6.24319 0.162077 0.040272 -0.136902 
218 1 4.65422 1.24832 5.42523 0.794178 0.276739 -0.365147 
219 1 8.8517 6.53205 7.42475 -0.379177 -0.876553 -0.230039 
220 1 5.72832 6.77256 8.86537 -0.216935 0.212341 -0.294512 
221 1 2.81168 2.85818 4.49916 0.723075 0.174885 1.11099 
222 1 2.88287 8.26099 7.62359 -0.353584 0.108853 -1.11301 
223 1 0.0881397 1.42786 6.03452 -0.361051 0.715255 -0.338741 
224 1 0.963708 7.32033 6.42756 0.486919 -0.315834 -0.102018 
225 1 5.50666 6.59106 2.33201 0.174665 0.487267 -0.300459 
226 1 2.56642 7.55266 7.03291 1.25982 1.22163 -1.36661 
227 1 7.99197 3.112 8.90848 1.65128 -1.01618 -0.662802 
228 1 6.21003 2.91037 4.24093 1.17281 0.982663 -0.584391 
229 1 6.25221 7.74258 4.56586 -0.117263 -0.572664 -0.179097 
230 1 2.0061 8.26535 9.37754 0.561211 -0.536985 -0.217848 
231 1 4.86747 2.71713 6.93362 -0.0841991 0.3586 0.170835 
232 1 4.21263 6.01397 4.30099 1.10618 -0.80084 -0.688379 
233 1 2.56348 5.02573 7.74664 0.367262 -0.63361 0.534494 
234 1 7.31357 2.84469 7.56854 -0.980162 0.37354 0.480955 
235 1 5.49611 8.18187 4.10751 1.97406 -0.233183 0.731902 
236 1 2.51934 3.94656 5.35399 0.90554 -0.468706 0.172931 
237 1 1.76543 7.4649 8.74205 -0.6919 -0.0767419 -0.285352 
238 1 9.22432 6.20991 0.214588 -0.686328 1.16557 -1.28744 
239 1 0.415133 4.25575 8.45705 -0.540447 -1.40707 -1.79809 
240 1 4.36401 2.40026 8.73305 -0.34602 0.555412 1.03392 
241 1 9.08324 3.88484 2.79071 -0.38873 0.296238 1.8509 
242 1 3.45274 7.87197 2.96544 -0.192224 0.695836 -0.580699 
243 1 8.42355 6.32232 3.68023 -0.40891 0.116874 0.833384 
244 1 4.35044 9.15568 2.99157 -0.466558 0.404592 1.04855 
245 1 5.856 3.56794 0.76984 -1.00897 0.658971 -0.347705 
246 1 7.62841 8.49925 5.64882 -0.676381 -1.50941 -1.41308 
247 1 7.34096 7.55725 6.76378 -0.376294 0.979225 -1.33692 
248 1 3.77539 7.70839 1.33707 -0.795419 -0.0707342 0.522181 
249 1 6.98462 3.96658 6.32543 0.120823 0.691985 -0.288556 
250 1 3.33427 1.06234 8.95698 -0.37252 0.707886 -0.300908 
251 1 1.80356 8.17551 5.01467 -0.547903 0.418289 0.0367718 
252 1 1.27597 4.13686 0.229436 0.710806 -0.657874 -0.153758 
253 1 1.77866 8.9507 2.7974 -0.320002 -1.48961 0.481303 
254 1 2.20378 7.61423 7.91248 -0.268349 1.0215 0.203416 
255 1 7.2955 0.362146 7.11135 -0.589029 -0.932024 -0.658577 
256 1 6.16481 3.28442 8.42805 -1.02322 -0.615748 -0.441845 
257 1 3.51119 2.09902 9.02768 0.761118 -0.601354 -0.453548 
258 1 1.80018 6.01328 8.23349 0.190659 0.181718 0.299391 
259 1 5.81141 0.835833 6.58928 0.819098 0.972721 -0.247987 
260 1 6.75758 3.89941 0.759068 -0.0054726 1.07319 1.13973 
261 1 0.807338 5.44978 0.870286 -1.08447 -0.719895 1.35399 
262 1 0.632851 0.107659 8.73671 -0.260903 -1.26684 0.838306 
263 1 7.41679 1.4213 5.50438 0.220173 0.101215 -0.107102 
264 1 5.75238 7.33482 3.02883 1.64831 -0.284255 -0.86434 
265 1 5.12634 6.63144 3.19465 -1.29339 1.41076 -0.111495 
266 1 1.7342 5.63327 0.751156 -0.430789 1.39134 0.478047 
267 1 2.38201 7.43168 5.0157 0.497618 -0.34575 0.737056 
268 1 3.95735 0.895041 6.02467 -0.762785 -0.94995 -0.800172 
269 1 1.72506 9.03423 5.35085 1.08342 0.392445 0.692589 
270 1 5.91072 8.97539 1.02856 -1.08018 -1.14519 0.591331 
271 1 2.39968 6.93121 0.692935 -0.154345 -0.105241 0.367669 
272 1 6.86484 8.13993 6.14979 0.86339 -0.335811 0.721825 
273 1 3.90845 5.08762 4.7459 2.34749 -0.00287065 0.850863 
274 1 7.62274 5.37448 0.017786 0.636894 -1.04836 0.515293 
275 1 2.37416 0.348289 3.9635 1.33299 0.394724 1.48855 
276 1 9.03 4.45543 5.06494 -0.855707 -0.67338 0.49627 
277 1 0.498262 6.45671 6.24673 -1.0327 0.885471 -0.18523 
278 1 0.86216 6.82511 3.51079 -0.246219 0.0548552 -1.21096 
279 1 5.84516 2.27208 0.377726 -0.343397 -0.215048 -0.710498 
280 1 8.19953 1.97911 1.97439 -0.189961 -0.0450521 -0.606285 
281 1 3.86522 6.92089 4.53524 0.570448 -1.09686 0.428903 
282 1 5.10311 1.63101 0.171724 0.593977 -1.00849 0.876866 
283 1 4.66924 5.85861 3.49815 -0.351083 0.185305 0.624066 
284 1 9.30282 8.99355 4.67908 -0.421154 -0.709242 0.676657 
285 1 2.19364 1.31058 4.358 0.104745 0.70122 -0.421417 
286 1 0.231164 2.42065 6.32006 0.368371 -0.221975 -0.325798 
287 1 5.6627 2.8648 7.48773 0.186259 -0.353392 0.528814 
288 1 8.50269 8.6512 5.19678 0.824176 -0.828709 0.367985 
289 1 4.85041 7.2732 2.5049 0.444908 -0.812462 -0.945357 
290 1 3.13002 4.54564 4.91945 0.702314 0.334396 -0.27909 
291 1 2.1811 5.22157 3.55873 0.609924 0.961635 0.0984122 
292 1 2.5564 6.02938 0.382445 -0.0383366 0.251817 1.06464 
293 1 0.644593 4.40643 5.0572 0.304644 -0.111289 -1.14826 
294 1 2.16513 8.6977 1.0398 -0.272852 0.478318 0.403891 
295 1 0.939189 3.86011 5.79818 0.775574 1.24521 0.46007 
296 1 5.84691 4.99705 4.67655 0.267864 -0.103389 0.121458 
297 1 6.95064 0.880039 3.61095 -0.604561 -0.194113 -1.0598 
298 1 3.93405 7.47958 2.25359 1.14954 0.927888 0.0565906 
299 1 5.23986 3.12718 8.38348 -0.269619 0.640606 1.57418 
300 1 2.41556 6.76756 8.29765 0.520546 0.136025 -1.39555 
301 1 8.26287 2.80535 2.51319 0.247238 0.615511 0.103435 
302 1 7.81271 3.39361 3.98416 0.126601 -0.363542 0.737196 
303 1 5.24292 2.44104 9.07805 0.279074 0.673006 -0.488437 
304 1 2.65923 5.96517 7.85235 1.19784 -0.275582 -0.786593 
305 1 6.82334 8.27179 5.15621 0.960517 0.160058 -0.409085 
306 1 5.69675 6.52173 0.369509 0.59515 -1.01186 0.0112609 
307 1 3.21861 2.66781 7.01507 0.0385369 -0.645602 0.140521 
308 1 4.47921 0.316132 5.4229 0.319034 1.255 0.86276 
309 1 6.28831 8.13111 2.65043 -2.0527 -0.340867 0.71106 
310 1 9.19258 8.15777 0.931253 -0.497153 -0.601032 -0.549816 
311 1 8.65175 7.23275 6.48704 -0.342577 -0.949651 0.168949 
312 1 1.76246 0.416245 8.92375 0.0742804 0.340482 1.58492 
313 1 0.324378 6.25767 7.1745 0.617779 0.122744 -0.952207 
314 1 6.6785 2.38508 1.56319 -1.2896 1.1193 -1.25869 
315 1 7.95985 7.73227 7.99079 -0.0838877 0.165179 -1.52605 
316 1 0.668324 5.29715 4.68158 -0.507406 -0.449101 -0.461476 
317 1 8.28214 5.23431 1.53934 0.41913 1.64656 0.539678 
318 1 5.3992 2.89396 5.11484 -0.929532 -0.259458 0.445817 
319 1 6.00602 8.52949 5.65616 -0.0846172 0.372143 1.32267 
320 1 1.70956 8.68957 1.87335 0.0598708 -0.390319 -0.818241 
321 1 0.117114 7.6735 6.09107 0.0712333 -0.928804 -1.47331 
322 1 5.82183 3.46713 2.82612 0.440161 -0.448198 0.34021 
323 1 8.22132 7.04896 9.09346 -0.104775 -0.238341 0.159692 
324 1 4.08769 8.62912 1.3222 1.60687 -0.0342184 0.334708 
325 1 8.75996 5.41515 6.34966 -0.438117 -0.878813 1.14854 
326 1 6.98972 1.65727 4.52238 -0.629389 -0.19887 0.723785 
327 1 7.61671 8.59549 4.68757 -0.362394 0.0566418 -1.15015 
328 1 6.84588 8.90649 6.78162 0.0468777 0.924277 0.185669 
329 1 4.573 4.60074 3.69338 0.439061 -0.188002 0.611609 
330 1 2.3767 5.11706 6.82368 -0.15732 -0.257453 0.421697 
331 1 0.786714 8.77328 5.05048 -0.0932117 0.233509 1.15753 
332 1 2.04552 6.131 6.44208 -0.273564 1.03808 0.448712 
333 1 6.03838 1.77763 1.24539 0.844678 -1.31981 0.0513749 
334 1 0.922987 2.04171 5.80217 0.964738 -0.191183 -0.720867 
335 1 2.96643 4.20981 2.69717 -1.64223 -0.207267 0.0648785 
336 1 8.62229 1.12558 4.47081 -0.601304 0.652003 0.597163 
337 1 3.00698 1.09329 8.0512 0.762218 -0.681466 0.611086 
338 1 1.4056 5.69425 3.81674 1.28199 0.710431 -0.469355 
339 1 0.923235 1.34222 6.54158 1.04964 0.466377 -0.689466 
340 1 1.77222 3.43084 5.72126 -0.987647 -0.0890093 1.55219 
341 1 7.99594 3.29321 7.01359 0.896393 1.00388 -0.897426 
342 1 5.10005 3.97559 0.25651 1.30376 -0.237442 0.387268 
343 1 7.31254 6.57606 1.37612 -0.0101143 0.953642 0.769957 
344 1 1.64772 7.54356 5.70995 0.643155 2.24062 -0.738694 
345 1 5.336 0.231648 2.4028 0.382216 -0.369042 -0.416469 
346 1 7.16341 4.72543 6.9141 0.487566 0.44949 -0.993065 
347 1 0.362781 6.36654 5.05024 0.614212 0.205286 -0.774134 
348 1 9.05774 2.93069 3.06383 -1.30929 -0.935515 0.969122 
349 1 3.78259 0.912157 5.06857 1.40313 1.55566 -0.649291 
350 1 0.780382 6.97033 4.44297 1.62921 0.952105 1.61108 
351 1 3.27614 0.511054 6.62185 0.468335 0.236593 0.60322 
352 1 0.945064 3.22113 7.13752 0.275533 0.373091 0.781111 
353 1 1.75052 8.21765 3.42866 1.10849 0.639651 0.285927 
354 1 7.31411 2.11686 8.43695 0.398669 0.364265 -0.714793 
355 1 7.61385 5.81896 3.74621 0.263085 0.0647815 0.582546 
356 1 6.99963 1.83582 6.50861 0.657029 -1.00302 -0.811862 
357 1 4.45657 3.59421 6.73716 1.67222 0.173842 1.53961 
358 1 7.09804 3.12032 8.53196 0.399442 -1.01082 -1.07809 
359 1 6.77614 1.70554 9.20451 0.623694 -0.823974 0.230941 
360 1 0.450092 4.28312 3.29704 0.0104685 -1.26459 0.349482 
361 1 7.67596 5.60774 5.1557 0.21951 -0.711056 2.35617 
362 1 6.46949 2.97465 3.30225 -0.716 0.088829 -0.231564 
363 1 2.84734 8.6609 0.233203 -1.30804 0.871077 1.33959 
364 1 4.90553 5.75419 2.5829 0.416295 0.268944 -0.528471 
365 1 1.58082 6.59143 4.09618 0.421296 0.544163 0.425872 
366 1 6.5 3.32558 7.53742 -0.654946 -0.0385929 -0.525012 
367 1 3.38876 5.63029 0.65428 -0.614963 -0.574292 -0.405552 
368 1 3.96387 8.67311 2.25909 0.75535 -0.220638 2.15938 
369 1 2.3277 2.13519 4.89249 -0.12842 -0.304092 -0.292741 
370 1 1.86927 9.01905 6.28143 -1.65866 0.310763 0.00678627 
371 1 7.13447 6.5377 3.31133 -0.175252 1.00394 -0.639213 
372 1 6.50173 2.51219 7.03506 0.0235151 0.0758192 0.516808 
373 1 8.81863 7.66683 2.78167 -0.405742 1.12605 -0.0826604 
374 1 3.72837 0.465266 4.21442 -0.394955 -0.326344 -1.61602 
375 1 6.3512 8.12172 0.752806 -1.17846 -0.955465 -1.38952 
376 1 1.67906 7.43688 0.305403 0.134525 1.09718 -0.49376 
377 1 6.31423 3.38178 6.60806 -0.144058 -0.333608 -0.706803 
378 1 5.80749 9.13633 9.23504 -1.10595 -1.51323 -1.01461 
379 1 9.11781 7.09625 2.07436 -0.311788 1.18494 -0.852517 
380 1 0.170309 4.30396 6.23936 0.632377 0.500788 -0.235109 
381 1 5.86924 5.65196 3.96265 -0.744533 -0.860805 -0.241228 
382 1 8.39681 9.02801 3.29713 -0.59486 0.852957 0.475638 
383 1 6.34121 0.113813 1.8417 -0.0802305 -1.48001 -1.39136 
384 1 5.55904 1.25157 5.72081 0.199317 -0.824965 0.27355 
385 1 8.78013 2.04458 6.16576 -1.79005 0.283604 -1.38829 
386 1 2.11861 5.14921 8.62445 -0.286755 -2.10086 -1.41828 
387 1 1.04721 7.59859 2.89602 0.0874983 -0.629369 0.36434 
388 1 4.01021 2.69011 5.52578 0.150548 0.777329 0.174955 
389 1 2.02276 0.480809 4.84653 -0.212843 0.359838 0.701497 
390 1 7.45083 2.36071 5.87559 0.00655996 -0.572503 1.52301 
391 1 3.22341 5.82509 1.56847 -0.437253 0.476631 -0.348552 
392 1 5.02988 3.74696 3.48191 -0.234291 -0.723799 -1.21347 
393 1 4.01521 6.39988 0.275448 -0.442492 -0.733968 -0.0718677 
394 1 3.0473 2.83732 8.62934 -0.643456 0.263486 -0.0951778 
395 1 3.93045 2.11092 3.53942 0.155714 -0.413134 0.101867 
396 1 2.96449 0.216753 7.52517 -0.422374 0.197665 -0.0264611 
397 1 8.01217 4.32943 3.78617 0.744376 0.343424 0.837027 
398 1 1.68529 2.05478 6.41694 0.0395707 -0.820144 0.710748 
399 1 6.49482 3.40356 1.57252 0.841949 -0.920778 0.562041 
400 1 9.36177 1.19191 5.0454 -0.079602 0.461326 0.35072 
401 1 2.54488 6.76984 3.13975 -0.986932 -0.255857 1.21258 
402 1 6.00084 4.31908 1.31344 0.091324 -0.442055 -0.210347 
403 1 7.52978 0.202503 8.27014 -0.274232 -0.690114 0.263108 
404 1 7.74342 2.04799 2.81171 -0.430935 0.310565 -0.70921 
405 1 2.27501 6.45047 4.72301 -0.687977 -0.351395 -0.917049 
406 1 3.57209 6.67007 1.83817 -0.799091 0.566004 -0.35893 
407 1 3.72116 8.53059 4.63266 -0.555664 -1.30443 0.543065 
408 1 7.90177 9.08555 7.44016 2.20206 0.149698 1.56176 
409 1 2.48387 8.83643 6.98261 0.0859161 0.567824 0.0767336 
410 1 2.33792 4.98608 5.2257 -1.32215 -0.686587 0.23181 
411 1 4.92702 2.80551 1.58361 0.417229 -0.939706 0.39339 
412 1 4.99105 8.74654 2.43406 -0.723951 -0.366762 0.55804 
413 1 2.45577 5.50458 1.99846 0.264878 -1.23227 1.00938 
414 1 4.93348 1.64831 8.57013 -1.38012 -1.10573 -0.125652 
415 1 6.885 9.19966 4.84725 -0.517184 1.68052 -0.712214 
416 1 6.90211 0.244144 2.82931 -0.2301 -0.43451 -0.997805 
417 1 6.24671 1.37846 3.1765 -0.0473975 -0.817635 1.50745 
418 1 2.39436 2.8021 6.39694 1.13153 -1.02995 0.822512 
419 1 3.0313 8.22429 6.4515 -0.343787 0.359485 -0.941397 
420 1 3.82982 0.903192 3.33704 -0.307315 1.11508 -0.945672 
421 1 7.92632 4.06335 6.38938 -0.708982 0.573436 0.0745519 
422 1 5.52626 1.66211 3.73347 0.546978 0.0264427 0.660925 
423 1 2.5968 1.1432 6.24441 0.614221 0.275579 0.0690292 
424 1 5.95525 3.7306 3.8001 -1.94802 0.720982 -0.323295 
425 1 7.23201 1.01241 7.81606 -0.936081 0.3712 0.419773 
426 1 0.696037 9.33476 6.84503 -0.602605 -0.384441 0.924289 
427 1 1.22053 9.24335 1.246 -0.295174 0.509225 0.185651 
428 1 4.88558 3.72766 2.54488 -0.828435 1.5268 -0.861045 
429 1 1.42885 4.92326 6.91198 -0.998872 -1.0716 0.71246 
430 1 3.00316 4.763 3.5509 0.303603 -1.69973 0.597466 
431 1 8.70109 2.76476 6.75224 -0.0117055 0.384922 -0.465957 
432 1 7.80759 7.38531 1.36146 -0.151281 1.47853 0.000883245 
433 1 2.63497 8.19798 8.56106 0.43496 -0.543503 -0.849864 
434 1 4.24949 4.4738 0.574298 -1.06561 0.748191 0.751694 
435 1 8.37141 5.04926 0.594063 1.63734 1.25959 0.946502 
436 1 8.01962 1.59026 7.94529 0.336591 -1.64686 -1.27235 
437 1 5.28189 5.14671 3.37656 -0.702908 0.242866 0.271972 
438 1 5.04828 2.02143 6.24363 0.428825 0.278553 0.616829 
439 1 3.9515 6.96875 5.50925 1.30878 -0.130937 -0.622263 
440 1 5.36868 2.40936 4.29862 -0.477646 0.769064 0.272427 
441 1 0.967379 4.09933 1.55736 -1.4878 0.336453 -1.28455 
442 1 8.21257 6.06743 5.92752 -0.742185 0.512754 -0.0730183 
443 1 1.10422 0.252924 3.08142 0.488409 0.363894 -0.886988 
444 1 0.291803 0.230759 1.56188 0.965452 -1.08641 0.13311 
445 1 0.20004 0.769202 6.94845 0.45891 -0.265981 0.260796 
446 1 3.12402 4.86158 1.69849 -1.11506 -1.41334 0.174442 
447 1 1.35399 4.6371 2.29818 -0.785908 -0.288336 -1.51139 
448 1 9.1422 4.6565 9.03126 -0.0534389 0.423509 0.327925 
449 1 6.88779 5.72585 2.4009 -1.04699 0.627432 -0.659717 
450 1 7.42009 8.25384 1.67579 -0.134082 1.1777 0.0944781 
451 1 8.72285 6.06589 1.96402 -0.0265753 -0.854433 -0.245026 
452 1 3.8616 8.17358 0.512766 -0.179695 0.276236 0.660427 
453 1 4.82435 7.4307 5.46707 -1.05095 0.656917 0.784876 
454 1 2.55 2.96777 5.47269 -0.436877 -1.035 0.287279 
455 1 3.89157 5.26454 3.81209 -1.38045 -0.211457 -0.586983 
456 1 0.315085 8.29012 4.21171 1.23289 -0.0554083 -1.36947 
457 1 1.70223 3.51671 7.64849 -1.1856 0.408412 0.223043 
458 1 2.59923 2.59601 7.74247 -0.785733 0.275895 0.210894 
459 1 3.48449 3.56907 6.87804 0.659525 -0.296599 0.062931 
460 1 8.04439 4.96518 6.73873 0.480531 -0.887304 0.522416 
461 1 4.70211 7.97226 0.980906 0.0332271 1.52029 0.062788 
462 1 7.88282 4.4437 1.99588 0.682434 0.0626268 0.0583777 
463 1 4.80814 5.17152 1.79649 0.106084 0.634607 -1.25829 
464 1 8.65963 4.56188 5.95931 1.12716 -0.140781 0.346503 
465 1 2.05171 0.602877 7.6873 0.459033 -1.2215 -0.18792 
466 1 5.24158 3.33668 4.30715 -0.0700137 -0.621111 -0.0999558 
467 1 2.29694 3.26727 3.77335 0.656892 0.378267 -1.18911 
468 1 1.88523 7.05821 6.47554 -0.745276 -0.526964 0.212527 
469 1 6.15787 4.15356 2.23981 1.18799 0.639973 -0.253629 
470 1 4.8361 3.45931 7.60791 1.1593 0.019091 -0.143139 
471 1 4.75641 4.63408 4.89862 0.504131 -0.756215 0.789015 
472 1 7.32392 5.15072 1.77368 -1.45167 0.0434725 -1.51975 
473 1 7.41051 2.98919 3.0948 0.182486 0.420649 0.252871 
474 1 8.64954 6.31739 5.11632 0.681823 0.500756 -0.781393 
475 1 1.0961 5.50432 8.62693 0.850023 0.248497 -1.06607 
476 1 2.16235 6.68333 7.33032 -0.766324 0.266586 0.327022 
477 1 1.3784 4.72077 3.33481 0.254576 -0.316772 0.652815 
478 1 5.3139 1.0519 0.908812 -2.0864 -0.625863 1.75229 
479 1 0.887979 7.81988 4.86617 -0.232884 1.21757 0.922027 
480 1 2.56628 5.29106 1.03918 -0.23609 0.305069 -1.17714 
481 1 0.988524 6.70003 2.56493 -2.00408 1.20584 -0.688539 
482 1 7.18836 3.05613 6.6081 -0.481527 0.405383 -0.656562 
483 1 7.75483 9.34564 5.2963 1.36837 0.504984 0.362901 
484 1 4.60079 8.02984 1.89929 1.53168 -0.908337 -0.483419 
485 1 7.42681 0.112404 2.0035 -0.147092 -1.12292 -0.366947 
486 1 6.98102 9.06916 7.72322 0.983416 -0.381288 -0.634485 
487 1 4.48329 2.93774 3.81184 0.192857 0.140011 0.193779 
488 1 6.67449 4.88843 0.922778 0.643993 -0.684795 0.62329 
489 1 7.25023 7.45848 5.57887 -1.1037 -0.350706 -0.237062 
490 1 5.83507 1.66298 8.95907 0.114657 -0.774942 0.423104 
491 1 3.89147 9.00435 3.82305 0.392454 -0.443192 1.07534 
492 1 7.99478 9.28831 9.0402 -0.653177 -0.220654 -0.672962 
493 1 3.86379 4.54414 8.36809 -0.601785 0.155644 1.00335 
494 1 3.70212 0.960165 7.41423 -0.280668 0.494281 1.41585 
495 1 9.34914 5.24764 0.401262 1.1587 0.0970739 -0.591428 
496 1 5.38043 0.734451 4.06616 0.322188 -0.115075 0.423457 
497 1 6.70495 5.7551 1.36138 0.189503 -1.16874 1.04901 
498 1 4.56343 0.891281 4.53098 1.05649 -0.39703 -1.3767 
499 1 1.51351 6.50943 0.464894 -0.210808 -0.348171 -0.476625 
500 1 0.289741 5.50608 6.47921 -0.906238 0.211474 0.692948 
501 1 8.67238 3.45841 0.998416 0.118328 0.0894395 0.457292 
502 1 1.54942 5.09144 7.8697 -1.09443 0.610049 -0.997984 
503 1 7.26113 6.62257 2.37393 0.781076 -0.514386 1.0638 
504 1 0.0229553 3.73007 4.53008 0.0776533 -0.876849 -0.616399 
505 1 7.02834 0.535516 5.49644 0.880528 -0.119349 0.215604 
506 1 8.98061 6.32094 6.52449 0.875067 -1.1834 -0.325084 
507 1 8.19493 5.95703 6.97197 0.675511 0.367482 -0.822395 
508 1 9.02031 8.83065 0.311102 0.364803 -0.227647 -0.784405 