ITEM: TIMESTEP
2057
ITEM: NUMBER OF ATOMS
1000
ITEM: BOX BOUNDS pp pp pp
0.0000000000000000e+00 9.4000000000000004e+00
0.0000000000000000e+00 9.4000000000000004e+00
0.0000000000000000e+00 9.4000000000000004e+00
ITEM: ATOMS id type x y z vx vy vz 
1 1 2.30139 0.130872 2.49966 -1.67194 0.254356 0.337438 
2 1 0.164191 2.92518 9.09496 0.892187 1.561 -0.248271 
3 1 1.38466 6.57016 8.49617 -0.11634 1.07225 0.313367 
4 1 8.10092 9.34257 6.21794 -1.53481 1.09553 1.37874 
5 1 4.9428 1.30382 0.397833 -0.680091 -2.01724 0.592842 
6 1 3.96093 6.93698 8.62651 0.297513 -0.200916 -0.185974 
7 1 0.617597 3.8936 1.7003 -0.315036 1.1973 0.43605 
8 1 4.76319 7.6309 0.954991 -1.09881 -0.106016 0.788962 
9 1 1.33561 9.15709 8.51118 -0.483739 -0.679486 1.04325 
10 1 3.87973 5.26638 9.01389 -0.321783 -0.548703 -0.187944 
11 1 4.35053 7.5288 5.89094 -0.636314 -0.5192 -0.738823 
12 1 3.81861 6.12564 0.961897 -0.454586 0.458378 0.289154 
13 1 6.64328 6.90407 6.84871 -2.09373 0.285233 -0.50767 
14 1 3.41034 3.53211 3.54294 1.2083 -0.0847499 1.18123 
15 1 4.27708 1.4078 1.08676 0.407327 -0.666183 0.154532 
16 1 2.61461 2.68925 2.30646 -0.492905 0.251317 1.62165 
17 1 5.76565 7.83042 6.33156 -0.154959 0.0289106 -0.679519 
18 1 1.62996 0.406714 9.14428 -0.968143 -0.0894203 -0.121677 
19 1 8.09389 4.63972 4.37317 1.90123 1.11465 0.265421 
20 1 1.83461 6.58381 1.57593 -1.1875 -1.15651 -1.04221 
21 1 6.44222 4.05701 0.700787 0.99433 -1.17186 0.401068 
22 1 8.03359 6.64582 0.674766 -0.885289 -0.00972262 -1.02814 
23 1 4.43543 9.10497 3.79578 0.684606 -1.05327 0.923442 
24 1 3.66456 1.70577 6.77751 0.0569966 -0.420445 -0.635226 
25 1 8.63394 5.90485 7.50572 0.289155 -0.870167 0.192789 
26 1 3.0525 9.02922 4.86914 0.108932 0.483415 0.0145336 
27 1 5.89771 9.30577 0.364157 -0.0569249 0.562245 -0.186628 
28 1 3.74015 4.95704 2.9196 1.44554 -1.43997 -1.07108 
29 1 8.68874 6.74745 9.32212 -0.164916 -0.93397 1.02332 
30 1 3.19586 2.85702 1.46117 0.189321 -0.279689 -0.0999845 
31 1 0.358333 7.86433 0.0198359 -0.754844 -0.671769 -0.0465238 
32 1 3.13159 8.6741 8.76784 2.28936 2.59581 0.484639 
33 1 1.59329 7.27057 2.20131 -1.21228 0.953334 0.224804 
34 1 2.29245 6.73336 8.31191 0.385136 0.110398 0.0117722 
35 1 5.71476 8.99791 8.883 0.295976 0.162506 -0.339212 
36 1 0.553896 2.56018 3.82793 -0.633167 1.49263 -1.32274 
37 1 1.48674 9.22075 5.89644 -0.963842 0.0335679 -1.12403 
38 1 5.1993 3.99896 3.19234 0.674478 1.31463 -0.330987 
39 1 8.74 6.8526 1.3059 -0.383231 0.418514 1.27757 
40 1 7.60586 5.36008 8.13184 -0.136888 0.364725 -0.443694 
41 1 7.61188 1.06059 0.651058 0.824058 0.459267 0.255662 
42 1 1.8539 1.42292 6.11887 -0.586668 1.37611 0.757327 
43 1 6.80535 0.705494 3.7174 0.430595 0.273002 -0.95932 
44 1 1.10549 1.5803 0.872442 -0.100233 -0.317309 -0.0557156 
45 1 3.05409 1.3154 7.40339 -0.262358 -0.605087 0.529798 
46 1 6.08085 5.2749 6.97397 1.42764 -0.106852 1.00833 
47 1 4.81883 4.44465 7.58934 0.802105 0.975344 -0.72624 
48 1 9.07302 6.49867 8.41859 1.37076 -1.31259 -0.470614 
49 1 5.21144 1.63428 1.29422 -0.53157 0.7492 -0.686405 
50 1 4.01277 0.824729 6.92538 0.0638559 0.44798 -0.295872 
51 1 0.522232 3.18202 7.19269 -1.09096 0.261295 -0.879929 
52 1 5.35114 2.01145 2.19936 -0.0413461 0.604504 0.905386 
53 1 5.6006 7.95199 8.78796 -0.82874 -0.015904 0.0068224 
54 1 3.5905 1.05672 6.05171 -0.452525 0.882616 0.101545 
55 1 0.818795 1.33246 6.77623 0.688768 0.0827348 0.820437 
56 1 4.6444 9.07499 8.00507 1.87065 0.577954 -0.508916 
57 1 3.07543 8.01393 0.101671 0.0189693 -0.340532 -0.125764 
58 1 0.124966 7.36846 1.44111 0.276703 0.664463 0.752347 
59 1 2.99159 6.51964 3.56855 -0.712373 0.376989 0.0148201 
60 1 1.73555 2.9072 9.3525 0.181261 -0.855912 0.0878066 
61 1 1.33929 8.87538 6.81809 -0.428942 0.93723 1.08297 
62 1 6.7076 3.18284 0.44065 0.243868 1.79618 -0.973793 
63 1 3.62754 8.2922 5.04572 1.57636 -1.24714 -1.1526 
64 1 2.68627 6.88452 4.43253 0.0827445 -0.40153 -0.373275 
65 1 5.28515 0.411103 2.59647 1.11489 -1.31043 0.658577 
66 1 2.95763 1.93846 4.56583 0.453715 -0.541574 -0.242515 
67 1 8.74275 0.704764 2.15705 -0.873882 0.36637 -0.0546379 
68 1 4.14628 9.37258 5.51497 1.24733 -0.78245 -0.65418 
69 1 4.33892 7.63361 9.33815 -0.497885 0.229741 0.80414 
70 1 6.45765 4.20466 5.20924 1.03934 -0.468974 0.24512 
71 1 5.34698 0.293637 5.99706 -0.679665 -1.58915 0.146662 
72 1 6.4991 8.44599 6.44733 0.0846455 0.362407 -0.374824 
73 1 5.27739 3.61886 7.36741 -0.659597 -0.115854 1.9195 
74 1 5.02542 8.93853 5.51747 -0.369762 0.107377 0.747406 
75 1 8.48853 1.61832 1.98448 -0.302188 -0.228384 0.375648 
76 1 8.03719 8.11468 8.98958 -1.15745 0.648614 0.862284 
77 1 1.3254 7.91891 0.147793 0.704863 1.20379 0.784086 
78 1 5.75879 3.39834 0.556942 -0.272676 0.672769 -0.928596 
79 1 6.11874 2.7693 6.42177 -0.660523 0.765585 -0.0428265 
80 1 0.639102 5.47703 9.3868 0.454826 1.54217 -0.800222 
81 1 3.05848 2.54449 6.43149 -0.338374 -1.68269 2.1412 
82 1 3.52712 5.30306 1.36882 0.275878 -0.194173 0.994465 
83 1 6.76943 9.03787 5.22631 0.851574 -1.13141 -0.457817 
84 1 3.97779 1.64682 8.60236 -1.22734 0.791536 0.164658 
85 1 2.87081 3.48092 0.772006 -1.74355 -0.571082 0.702333 
86 1 4.15966 8.35373 8.35419 1.22974 -0.676207 1.25027 
87 1 5.53035 8.41361 4.823 1.65924 -1.67208 0.695905 
88 1 5.68865 1.19782 6.84407 0.244556 1.45298 1.06232 
89 1 8.20211 3.8249 1.18182 0.341539 -0.462808 0.125885 
90 1 7.21558 7.81732 6.87754 0.890417 -0.350906 -0.14902 
91 1 7.40714 8.46444 4.69764 -0.349512 -0.391695 -1.60406 
92 1 0.571028 9.31425 6.20179 0.422612 -1.4889 0.123044 
93 1 5.20064 6.1508 0.340474 -0.758754 0.0519663 0.316083 
94 1 3.96537 1.85663 2.85818 0.0543248 -0.534911 -1.04753 
95 1 0.198658 1.68123 6.10065 0.66294 1.1305 -0.0288957 
96 1 5.51903 4.00974 2.05204 -0.433645 -1.82767 0.0636426 
97 1 8.69724 0.808435 0.488829 0.576348 -1.29591 0.88397 
98 1 6.30332 7.75931 7.15319 -1.28738 0.0400488 0.0709881 
99 1 4.99985 7.28785 6.58604 0.227215 -0.200485 0.171762 
100 1 7.28081 6.27539 0.278583 1.32818 1.47253 -0.0825702 
101 1 1.69025 6.35607 2.48645 0.870796 -0.679585 -0.746534 
102 1 7.69273 0.886338 3.25068 -0.0369132 -0.395025 -0.583866 
103 1 7.44179 7.04582 7.43831 -1.45398 -0.645566 0.157646 
104 1 5.68912 3.32958 2.7176 0.458127 -0.657275 0.422472 
105 1 6.42749 8.38202 8.94737 -1.10683 1.60671 0.807506 
106 1 6.99851 3.81261 8.29225 -0.339586 -0.105335 -0.474459 
107 1 3.94492 3.21239 2.81499 0.0806342 -1.13515 1.20015 
108 1 8.67644 4.10206 3.7731 -0.136223 0.255771 -0.804202 
109 1 5.6017 1.90755 5.18843 0.216139 0.815264 0.763013 
110 1 4.40697 4.11558 9.03159 -0.291109 -0.318791 -0.086197 
111 1 7.97527 9.262 4.46235 0.405227 0.172505 0.511969 
112 1 8.80886 7.79671 6.20813 -0.0592608 0.215759 -0.459772 
113 1 2.76147 8.98446 7.93864 1.79524 -0.702942 0.149064 
114 1 8.45262 9.39791 5.31178 -0.373252 -0.493223 0.00245822 
115 1 2.4338 4.0241 2.25331 -0.458683 -0.896169 0.353185 
116 1 2.19211 0.252733 1.57613 -0.0534838 -0.260686 -0.130777 
117 1 8.9253 9.07416 3.34201 1.10254 1.48554 0.38004 
118 1 4.96008 4.7053 1.60448 1.82589 -1.50869 0.67437 
119 1 3.96518 2.98993 0.938035 -0.745515 1.12913 -0.0743077 
120 1 8.74496 9.27904 0.606141 -0.716291 -1.0544 0.16036 
121 1 1.07723 2.2469 4.60138 -0.0764562 -0.229873 -0.920348 
122 1 0.361059 8.51929 2.55356 0.124432 1.82307 1.4984 
123 1 4.49096 2.25987 0.60234 -0.630952 1.0267 -1.9959 
124 1 8.10498 0.781189 5.7291 -0.570143 -0.604862 1.03923 
125 1 8.11696 6.50287 6.91436 0.0507192 -0.617536 -0.219514 
126 1 7.31163 4.62971 8.70052 -1.43025 0.0902722 -0.116134 
127 1 6.49805 9.21747 3.60541 2.07195 0.176736 -1.04025 
128 1 6.99104 5.1489 6.61757 -0.136928 0.744698 1.52249 
129 1 5.18964 5.31887 8.27639 -0.526143 -0.922823 0.205705 
130 1 1.48025 0.92465 7.40522 0.066329 -0.0788612 -0.241503 
131 1 7.2101 6.95609 8.4046 0.0563144 0.00171458 0.0166653 
132 1 0.157482 1.7862 7.87754 0.299847 -0.457573 -0.0508626 
133 1 9.11868 3.73599 1.39749 0.0421639 0.353926 -0.599714 
134 1 6.53673 4.80101 0.0325041 0.00485697 -0.139109 -0.99955 
135 1 6.45551 5.89942 -0.00713903 -0.542171 1.63837 -0.245667 
136 1 7.54545 -0.00842551 3.52134 -0.209181 -1.38507 -0.84585 
137 1 1.28388 5.52585 2.13632 0.0499622 -0.0493844 -0.0950022 
138 1 5.78455 9.34684 5.11945 -0.564287 -1.29897 -0.509766 
139 1 5.99121 1.24247 4.10255 0.522831 -1.07268 -0.599467 
140 1 1.32918 4.06419 0.681355 -0.164736 -0.71976 -1.63765 
141 1 7.86865 5.25483 1.75879 0.174612 -0.613993 0.614833 
142 1 7.02452 8.21382 5.60994 -0.274551 1.27092 0.939131 
143 1 8.95008 1.21485 5.5196 -0.504792 -0.124863 -0.660185 
144 1 1.54197 2.6674 3.86634 0.651969 0.338613 -0.774648 
145 1 0.86264 0.289863 5.30024 -0.3447 1.21251 -0.72624 
146 1 6.27923 5.76727 1.65701 -0.72942 0.486894 0.912843 
147 1 1.91965 3.33954 0.773372 -0.529672 0.0743042 0.172632 
148 1 2.82523 4.8121 0.00245214 -1.63516 0.898727 0.189473 
149 1 1.48747 1.48515 1.80188 0.158142 -0.349794 1.61107 
150 1 4.14081 6.8661 1.55606 -0.128187 -0.239336 -0.339016 
151 1 1.06021 3.13741 8.7261 0.524147 0.609594 1.55895 
152 1 7.88913 3.66645 7.86953 1.09267 -1.85754 -0.0206599 
153 1 2.10135 1.90021 2.42513 -0.5884 -0.153246 -0.113423 
154 1 1.2306 8.67281 4.37505 0.0238748 -1.12659 -0.519769 
155 1 1.7084 8.51794 5.28353 0.735302 -1.081 -0.838864 
156 1 7.95744 0.27268 0.230716 0.942861 0.377618 -1.85862 
157 1 7.60056 0.686344 6.59689 -0.0638785 0.00436779 0.0201421 
158 1 1.325 9.27255 1.41188 0.0358309 -0.113184 0.0656952 
159 1 3.56363 2.5314 7.25332 0.485311 0.474302 0.456929 
160 1 5.72238 2.42546 3.04568 0.308191 -0.35508 0.189062 
161 1 7.64784 1.58476 9.23448 0.28673 0.476155 -1.06975 
162 1 6.04196 6.14972 0.827643 -0.799119 -0.635678 -0.0254782 
163 1 8.96607 6.07024 1.83207 -0.0665113 -0.117205 0.242344 
164 1 1.64962 8.85699 9.37169 0.616777 0.430283 0.0628963 
165 1 4.12129 2.65153 5.5346 -0.977177 -0.642053 -0.141725 
166 1 6.19997 3.66216 4.42497 0.963357 0.095008 0.788349 
167 1 8.34241 6.98318 6.05438 -0.115231 -1.88202 0.43624 
168 1 0.812449 7.15023 0.43701 0.638353 -0.0961329 -0.470232 
169 1 6.83469 1.15408 4.56902 0.69026 0.224569 0.245179 
170 1 1.01854 2.83176 3.00814 -0.0508205 -1.14338 -1.8643 
171 1 2.19328 1.44653 4.95987 0.195513 1.06245 -1.15152 
172 1 7.81958 7.8633 6.12473 -1.20027 0.0893492 1.71326 
173 1 2.39929 8.66389 1.12815 -0.193623 0.297371 1.24415 
174 1 3.23948 8.09492 3.39971 1.07194 0.374301 -0.312993 
175 1 2.81254 1.58079 6.33169 -0.692426 0.153246 0.020729 
176 1 7.52663 3.0423 3.05405 0.253786 0.452757 0.174305 
177 1 3.22365 9.19092 7.13653 1.07756 0.203147 -0.957038 
178 1 7.69035 8.88004 5.48487 0.221426 -1.31646 0.592296 
179 1 4.7807 7.39359 7.52471 -0.903402 -0.585663 0.0661214 
180 1 3.20589 1.04115 3.41663 0.920844 -0.301664 -0.887286 
181 1 6.19799 2.80378 3.88892 -0.47631 0.496462 0.596294 
182 1 6.50626 3.64763 2.34943 0.272806 -0.224938 0.077068 
183 1 5.3511 5.66412 7.42181 -0.269875 1.05236 -0.401022 
184 1 2.99235 1.83204 2.77427 -0.660465 0.882968 -1.55124 
185 1 7.46216 6.97722 6.40235 0.544361 1.40038 -0.0189754 
186 1 7.17771 2.49431 3.77612 -0.800557 1.18016 -0.143562 
187 1 1.83468 2.47979 1.67255 -1.2231 -0.273344 1.1418 
188 1 0.237906 2.34165 2.22051 0.384167 -0.470299 -0.617265 
189 1 1.95979 8.76518 1.9603 0.749064 -0.96692 1.81505 
190 1 3.20904 1.86577 9.04921 0.610075 0.573372 1.20712 
191 1 6.98363 3.5123 1.49125 0.640312 0.116378 1.11226 
192 1 2.19955 4.27615 3.17336 0.652129 1.0923 -0.000924569 
193 1 8.70846 5.24836 2.26012 -0.608558 -0.0938407 1.18102 
194 1 8.8256 6.13732 0.682163 2.02941 0.63682 -0.531124 
195 1 2.14066 5.81391 3.13065 -0.885951 -0.77715 -0.555454 
196 1 0.554596 1.44106 1.75682 -0.383297 1.6139 0.3883 
197 1 1.01621 1.39934 5.70325 1.25421 -0.290537 0.529069 
198 1 2.63359 7.16424 0.374282 -1.43757 -0.113405 -1.49518 
199 1 7.68174 2.07657 7.73673 -0.958756 -1.13298 0.342176 
200 1 1.10852 2.13693 6.31035 0.00916207 0.0350345 0.171302 
201 1 9.3305 0.497154 5.03539 0.47388 -0.658541 -0.366128 
202 1 6.05208 4.41737 2.72672 0.269665 -0.338072 0.561291 
203 1 5.79062 2.80998 7.35113 -0.414758 -0.355393 0.915991 
204 1 6.97609 7.75659 7.86604 -0.0818419 -1.25214 0.303654 
205 1 7.93002 8.73248 2.79264 0.952715 2.1 -1.13649 
206 1 1.04865 8.39297 1.68195 -0.369322 1.09832 -0.2596 
207 1 5.83638 1.89104 6.1191 -0.73653 -0.72497 -0.083705 
208 1 8.41242 5.83631 8.43875 -0.265711 -0.293638 0.287187 
209 1 0.600812 5.98806 2.62739 -0.693478 -1.31145 0.168911 
210 1 4.80916 3.29282 5.71269 -0.213069 0.542704 -0.810675 
211 1 2.63627 8.08498 1.9629 -0.543626 0.348957 -1.39315 
212 1 1.78537 3.22535 2.34558 -0.27005 -0.595665 1.33103 
213 1 8.97656 7.08883 6.84481 0.54784 0.0639061 0.842371 
214 1 6.92314 5.08644 1.65463 -0.596662 -0.849356 1.2504 
215 1 8.43683 1.55426 0.994355 0.477965 -0.647126 -0.156792 
216 1 0.335251 1.41947 5.03559 1.69192 -0.960541 -0.693921 
217 1 4.98655 8.34114 4.00937 0.366625 -1.44069 -0.384042 
218 1 7.13688 2.39822 0.119289 -0.083804 1.502 0.40651 
219 1 5.83114 0.51423 3.48123 -1.31006 0.442291 -0.583098 
220 1 5.72316 7.79967 0.98447 -1.06336 0.985968 -0.339786 
221 1 0.0354 0.255836 3.87752 1.25244 2.16052 0.579477 
222 1 4.92403 0.545732 6.87429 1.32223 0.502386 -0.323996 
223 1 3.65195 3.3098 7.81195 1.34224 -0.952813 0.169889 
224 1 2.34835 4.28979 8.76693 0.415613 0.232575 -1.02092 
225 1 4.30094 6.88168 0.60136 0.593021 -0.890824 0.792679 
226 1 7.21213 1.93877 0.942633 -0.599013 -0.43244 -0.0350419 
227 1 0.33861 0.786505 5.87263 -1.2227 0.707912 0.639697 
228 1 2.60609 8.72915 3.60308 -0.00930114 0.345219 0.161403 
229 1 7.06313 2.88133 2.18998 1.37179 -0.396903 0.640327 
230 1 4.04784 0.753474 1.76214 0.551257 0.11398 1.18198 
231 1 2.56912 7.51632 3.74037 -0.434669 0.472446 2.19607 
232 1 9.19632 8.16704 5.34026 1.17475 0.0335488 0.301392 
233 1 2.34496 7.8899 2.88713 0.933741 -0.644109 -1.47804 
234 1 3.37798 4.07623 9.15602 -0.236602 0.145773 0.630204 
235 1 8.21785 4.527 8.22928 0.623672 -0.137033 0.0533569 
236 1 3.91973 0.679262 8.53702 -0.204836 -0.352929 -0.963696 
237 1 8.50246 6.95853 7.68899 0.176478 -1.28994 0.664573 
238 1 3.11238 1.27228 5.24188 -0.457822 1.04358 -0.380049 
239 1 8.73016 4.56696 2.94203 -0.215686 0.7938 -0.559308 
240 1 0.907099 5.34335 3.29395 -0.378281 -1.29246 -1.01293 
241 1 5.63495 2.5268 1.16546 -0.207516 0.381716 -0.174476 
242 1 5.66158 4.3682 0.152104 -0.928326 -2.13882 -0.172707 
243 1 5.51423 6.99149 8.72788 0.926123 0.273461 -0.293616 
244 1 8.01852 2.2479 0.459754 -0.619936 -0.0843982 -1.04526 
245 1 1.62668 9.40053 7.64041 -0.56964 -1.40835 -0.41847 
246 1 2.79881 5.92053 8.18697 -0.529348 -1.50463 0.47471 
247 1 1.62437 3.50461 3.26804 -0.159231 0.408514 0.912997 
248 1 1.26699 1.33925 4.80428 0.0540222 0.976433 -0.0336172 
249 1 1.50365 4.13586 2.47547 0.805318 0.171049 0.417426 
250 1 5.57212 2.09307 3.95381 -0.940712 -0.486633 1.45539 
251 1 0.152088 7.01363 9.05997 -0.0233422 -0.703449 -0.161014 
252 1 0.464324 9.34069 3.03428 -0.293169 -0.066395 -0.212581 
253 1 1.80525 6.93466 4.92881 0.211853 -2.04011 -0.18711 
254 1 5.06833 0.285986 8.5522 -0.860783 0.0279442 -1.69638 
255 1 1.52782 2.30252 8.61803 0.833098 0.395965 1.31043 
256 1 6.05953 8.47485 5.59505 -0.29315 -0.375468 -0.775914 
257 1 7.06624 2.00163 1.89374 -0.0573851 -0.203551 1.36482 
258 1 5.63088 7.43721 7.92823 0.573252 -0.48899 -0.685563 
259 1 3.54101 8.02193 2.50105 1.11937 -0.238815 -1.07683 
260 1 4.98659 2.72534 7.80608 -0.403882 -0.0455432 0.387035 
261 1 6.45101 8.57466 4.46751 -0.12184 0.720264 2.26632 
262 1 0.786772 8.70452 5.38136 -0.171702 -0.116828 0.337901 
263 1 4.09313 7.45696 4.92536 -0.188635 1.01891 0.121029 
264 1 3.63815 0.62986 0.762917 -0.702333 0.28716 -1.98813 
265 1 2.7589 8.01894 8.11929 0.180498 -0.580007 -0.683154 
266 1 2.27995 4.17584 0.430495 -0.165001 -0.344874 -0.516972 
267 1 3.84473 3.84306 0.553526 0.414921 1.16754 0.356191 
268 1 7.65093 1.61949 6.42746 0.543548 0.301669 -0.6853 
269 1 4.36632 0.58884 4.32304 1.74965 0.0835161 0.0343406 
270 1 1.44739 5.61212 0.454038 0.732496 -0.00198729 0.0508403 
271 1 1.81562 9.19295 3.7997 0.545873 -0.5448 -1.003 
272 1 8.91385 0.410562 6.03898 0.73897 -0.631094 0.376917 
273 1 7.95167 3.44175 5.29957 -0.250706 1.35577 -0.433576 
274 1 2.26966 9.16348 8.73449 -0.915555 0.32416 -0.560176 
275 1 6.05675 9.25025 2.74971 -1.3603 0.371437 -0.677763 
276 1 5.66304 4.49497 5.66155 -0.368955 1.33676 -1.73472 
277 1 4.89724 6.48796 7.25027 -0.0770713 0.0103832 -1.1367 
278 1 0.125974 6.75309 2.17198 0.254663 1.09139 0.523139 
279 1 5.53757 1.24068 8.36438 0.219319 -0.897545 1.33187 
280 1 3.62788 6.52684 4.32455 0.738456 1.43986 -0.459147 
281 1 4.76886 6.62651 8.21616 0.439258 0.0023688 -0.933601 
282 1 7.6896 1.34035 4.94621 0.690593 -0.383641 0.543081 
283 1 2.26614 8.85298 7.13652 -0.0210886 0.768828 -0.355696 
284 1 0.68349 8.00069 0.904786 0.238445 1.16872 0.93678 
285 1 6.54161 4.46347 7.17413 0.303234 -1.27789 0.655104 
286 1 3.71368 6.25474 2.71473 0.939105 0.409123 -0.0313993 
287 1 6.03396 3.40118 1.47662 -0.681904 0.845726 -0.689023 
288 1 6.223 7.66992 0.152351 -0.217306 -0.846255 -0.847121 
289 1 3.91388 5.86265 3.58198 0.575102 -0.508639 0.862348 
290 1 0.741764 8.01414 7.01497 -1.2186 -0.31329 0.350756 
291 1 7.8792 7.60439 8.1884 -0.1558 0.916788 -0.170345 
292 1 3.30262 6.50564 1.86159 0.211945 -1.12387 -1.00437 
293 1 1.37221 5.60713 8.82602 -0.330668 0.623359 0.658632 
294 1 0.231312 4.42408 3.30531 -0.336774 0.192212 -0.0398438 
295 1 6.93781 3.37831 3.89686 -1.00906 -0.505919 0.608127 
296 1 8.50245 0.434436 6.94007 -1.33113 -0.00994834 0.586414 
297 1 5.08545 9.01333 7.15832 -0.190883 -1.26019 0.159491 
298 1 1.6265 1.82346 7.06132 -0.67061 0.526016 -1.02954 
299 1 3.96097 2.44649 9.14378 1.23402 0.0962505 -0.132152 
300 1 3.25564 0.327192 5.51848 1.12548 -0.393699 -0.322397 
301 1 5.1403 2.97157 6.60139 0.758893 -0.0975228 0.645726 
302 1 5.92193 1.46203 0.701311 -0.0563458 -0.298271 0.513056 
303 1 0.658668 3.7673 2.68681 -0.0548438 0.00972284 0.864608 
304 1 7.23698 2.91635 5.58416 0.849652 0.431231 0.102372 
305 1 5.61205 3.65787 5.17224 0.0424702 -0.955682 -0.272106 
306 1 2.7749 2.02304 1.66053 0.94655 0.0502055 -0.199524 
307 1 4.79437 3.97707 0.553621 -1.29086 0.695482 -0.129216 
308 1 6.16738 4.95579 0.979838 1.29057 0.0957333 1.17014 
309 1 1.01605 7.33673 8.8792 -0.247543 -0.785287 0.42622 
310 1 7.76159 5.3865 5.37323 0.557752 0.976907 1.15166 
311 1 0.318366 8.68225 3.77102 -0.340069 0.282503 1.42969 
312 1 7.04413 3.66222 7.35629 0.197321 -0.434782 -1.04554 
313 1 4.22713 9.24861 8.87555 -1.4093 0.130708 -0.00227182 
314 1 0.541172 6.16414 8.74601 -0.952499 0.696225 -0.901483 
315 1 8.72629 2.66193 1.91566 -0.174547 0.257233 -0.0898164 
316 1 7.16466 4.78888 4.77277 0.325209 0.374203 0.819831 
317 1 4.92461 4.97065 9.13774 -0.686387 0.307765 -0.20545 
318 1 5.63724 8.41584 0.244084 -0.867725 1.05 -0.209864 
319 1 8.95654 9.23429 8.29434 0.33241 -0.534938 0.301228 
320 1 2.25472 1.12861 6.92317 0.288837 1.27954 0.586061 
321 1 4.17438 1.25038 3.53691 0.653135 -0.138717 -0.597148 
322 1 0.23027 8.40787 6.16767 -0.0423777 0.493072 0.948177 
323 1 3.88776 0.885076 2.70006 1.3945 -1.6986 0.508808 
324 1 5.1053 9.08626 0.974509 -0.161445 0.177353 0.592323 
325 1 1.15733 6.45369 4.3304 -0.271179 -0.396569 -0.581614 
326 1 6.13653 0.823308 2.62172 0.825671 1.0497 0.407945 
327 1 4.32527 1.93003 4.16176 0.684168 0.764032 -0.173319 
328 1 9.02184 7.51155 4.67627 -0.797712 -0.0277326 0.0539726 
329 1 0.324489 6.12279 3.51459 -0.141845 -0.185333 0.296942 
330 1 6.42625 2.20752 8.86629 0.328953 0.873755 -0.166763 
331 1 2.47479 2.5541 0.90113 0.416028 -0.193862 -0.510154 
332 1 8.91399 1.01322 7.63867 0.332148 -0.304054 0.507414 
333 1 5.58839 5.975 8.86506 -0.443084 1.08849 0.450026 
334 1 5.26293 7.48663 0.145042 -0.495651 -0.0504376 -0.879649 
335 1 7.40082 3.81666 0.708931 -1.17558 0.0140798 1.26391 
336 1 1.05652 0.14805 0.525485 -0.347291 0.63225 0.316828 
337 1 5.95626 0.949286 1.67879 0.478876 -0.153961 0.11516 
338 1 7.86521 9.12867 1.04178 0.872156 -0.307476 0.733802 
339 1 7.74561 8.30418 7.50878 0.103389 0.988413 -0.338957 
340 1 3.4202 3.12648 0.103284 -0.676258 -0.0537774 -0.370665 
341 1 2.12928 2.43061 4.66786 -0.131683 0.461231 0.255995 
342 1 3.47068 3.77921 1.42485 0.964827 -0.386785 1.26582 
343 1 4.99957 0.868401 1.80385 -0.609533 -0.0938023 -0.724469 
344 1 8.8725 4.35959 0.700919 0.848468 0.378861 1.05103 
345 1 7.95753 2.93446 8.59264 0.448188 -0.545746 0.265076 
346 1 5.71218 9.05417 4.1231 0.0580252 0.308223 0.981006 
347 1 4.6081 9.16968 6.34982 0.60446 -0.431668 0.800856 
348 1 6.61506 8.62916 0.441376 -1.066 0.892791 -0.0627888 
349 1 3.47985 8.3952 1.63069 0.390361 -0.0207864 0.464801 
350 1 5.11995 8.2635 1.61656 -0.580626 -0.480146 0.710934 
351 1 4.7044 6.48952 2.31385 0.398605 0.587373 0.587956 
352 1 4.57121 0.508131 0.984006 0.640272 0.525404 0.576542 
353 1 8.24735 0.601329 1.30401 0.661042 0.904915 0.38741 
354 1 8.44163 3.59142 4.52222 -0.732648 0.030743 0.986972 
355 1 4.87797 8.5491 8.91358 -0.07749 -0.533453 -0.648376 
356 1 7.21379 2.1238 4.67909 -0.832717 1.00573 0.562103 
357 1 8.12196 6.00085 2.42239 -0.475391 -1.03806 0.218334 
358 1 4.71405 8.38941 0.414199 -0.608914 -0.382765 0.218046 
359 1 4.75594 6.25216 1.20122 0.838922 -0.570021 0.226724 
360 1 8.07267 5.136 8.94502 -1.05438 -0.31921 1.01983 
361 1 0.654559 2.26831 5.46711 -1.53338 -0.426867 -0.315103 
362 1 3.62999 1.27608 4.31706 -0.138537 1.43204 -0.64274 
363 1 1.87015 7.0923 9.20282 -0.252952 -0.0889284 -0.0221722 
364 1 1.45906 4.64629 8.53048 0.488264 0.247226 -1.04605 
365 1 0.104635 4.69459 1.35463 0.892623 1.16314 -0.474405 
366 1 9.03668 2.4845 8.40659 1.16025 -0.852983 -0.417776 
367 1 7.64692 1.52579 2.50353 0.0856589 0.785561 0.428118 
368 1 6.5665 0.539111 5.28072 0.332033 -0.989314 -0.229536 
369 1 6.94328 3.34057 6.44586 -0.172675 -0.331802 0.506873 
370 1 6.8734 1.29201 3.00352 0.457648 1.2408 0.29954 
371 1 6.12912 3.99501 8.77964 1.42781 -0.465461 -1.09188 
372 1 3.9338 7.58872 7.85505 0.621011 -0.0607676 -0.385158 
373 1 3.97024 1.39557 7.70148 -0.0983115 0.601617 -0.46653 
374 1 0.0702983 5.46104 0.745757 -1.07911 0.783994 0.989186 
375 1 6.77749 6.66709 5.78403 -0.338441 -0.463011 -0.187752 
376 1 1.41665 0.256883 3.02532 0.290892 0.516289 1.62859 
377 1 0.527586 4.97197 8.58296 0.356916 -0.468979 -0.514319 
378 1 2.95028 8.37111 6.63845 2.2316 0.000927481 1.53647 
379 1 3.98795 7.14917 2.45851 -0.761315 1.32883 0.246653 
380 1 5.66445 2.79645 4.67529 0.0217786 -0.810974 -0.58364 
381 1 3.91305 3.34421 8.73161 0.199086 0.179049 0.0661526 
382 1 0.461492 9.14569 1.80962 0.883024 -0.154862 -0.934536 
383 1 1.47885 8.55305 0.843185 0.0770679 -0.084814 -0.421402 
384 1 9.26766 7.10361 0.570862 1.03076 0.203676 -0.995099 
385 1 1.45489 1.04894 3.5122 -0.960727 -1.8558 -1.7359 
386 1 2.87513 8.68791 2.67376 -1.70886 -1.63712 0.398129 
387 1 3.25215 2.0326 7.99474 -0.28991 0.247275 0.486035 
388 1 0.697762 0.261745 9.00398 -0.342623 0.764031 -0.492663 
389 1 4.74342 3.58148 2.46553 0.00104527 -1.09087 0.693762 
390 1 8.48208 6.77776 5.08034 0.297153 1.10995 -0.696595 
391 1 3.24216 2.67174 5.11605 -0.204403 -1.93338 0.333926 
392 1 6.43965 2.39954 5.55046 0.167741 1.21946 0.150481 
393 1 5.64447 6.43808 7.9586 -0.558543 -0.826132 0.854791 
394 1 8.4101 9.01822 9.10462 1.03747 0.859716 -0.594763 
395 1 6.66926 7.54171 6.14937 0.46571 -1.14601 -0.310487 
396 1 2.12121 0.611167 8.33412 1.81459 -0.550606 -0.346224 
397 1 2.38571 3.29251 1.60671 -0.728727 0.343704 0.0867285 
398 1 3.69532 9.12782 8.08102 -0.467724 0.276958 -0.70539 
399 1 8.53106 8.60039 5.8347 0.480147 -0.377551 1.25318 
400 1 6.75796 4.33145 4.00924 0.723718 -0.277404 -1.07629 
401 1 0.204828 2.56933 6.49118 -1.75758 -0.279564 0.36268 
402 1 8.61554 1.89026 7.77329 0.533827 -0.757301 0.0816314 
403 1 4.80114 1.38745 4.85688 -0.376772 -0.0285586 -1.48759 
404 1 9.11056 5.84951 9.17478 0.657901 0.465893 -0.3935 
405 1 7.61835 3.01942 4.48369 -1.86327 -0.389143 -1.98477 
406 1 6.43415 4.20876 6.21621 -0.521665 1.305 -0.565892 
407 1 4.3163 8.58213 1.23674 0.99166 -1.62627 1.06198 
408 1 6.97883 3.06634 8.86498 0.866933 0.922277 -0.289944 
409 1 8.90529 8.33706 8.62106 0.411386 0.445709 0.62328 
410 1 8.09452 1.18518 8.23267 -0.0105931 0.207808 -0.311099 
411 1 4.38244 4.86312 8.33763 1.3066 0.138176 1.04088 
412 1 7.97405 2.07456 3.25064 1.03552 1.33431 -1.39092 
413 1 3.76873 4.15783 8.25857 0.229969 -0.519384 -0.537642 
414 1 4.43714 5.61447 0.326897 0.570897 -0.11491 -0.356927 
415 1 6.93836 8.91596 1.31904 0.0513076 0.84815 -0.182419 
416 1 6.42076 4.27815 1.6378 0.503094 -0.743269 0.97154 
417 1 3.99441 0.880051 5.16494 0.455178 -0.368283 0.235761 
418 1 2.09989 2.30919 6.34591 -0.411554 -0.367068 -0.464151 
419 1 6.05116 3.07821 9.0957 0.671339 -0.0720327 0.765925 
420 1 2.91488 0.028511 0.894883 0.87423 0.326278 -0.104125 
421 1 3.57923 0.0477293 2.34253 0.713341 0.261773 0.327352 
422 1 1.69088 8.04472 7.24916 0.705942 -0.837563 -0.389509 
423 1 1.54549 1.3558 8.79699 0.449062 -1.07927 -0.318909 
424 1 1.43667 8.14522 2.5007 -1.04782 0.193751 -0.333528 
425 1 8.46674 1.25957 2.89405 -0.795192 0.519979 0.536439 
426 1 1.18558 2.18269 2.35459 0.827813 0.870227 0.588194 
427 1 4.56545 8.30393 4.88149 -1.53551 -0.270259 0.824235 
428 1 7.89942 2.41632 2.371 0.607463 0.424192 0.195902 
429 1 1.80255 4.81789 0.973205 1.5068 -0.743892 0.573449 
430 1 9.16889 1.06427 4.29054 0.509267 0.242298 1.10713 
431 1 2.52096 7.15851 2.24874 -0.615318 -0.556663 0.845783 
432 1 7.20239 3.87268 5.7164 -0.103159 -0.831879 1.06259 
433 1 9.07379 8.16572 3.17084 1.26569 0.158905 0.824388 
434 1 5.45508 5.18339 2.79445 -1.4921 0.314347 0.522346 
435 1 0.828113 5.62091 1.29327 1.08112 0.0446541 -0.720871 
436 1 2.22782 8.71075 4.51618 0.894749 0.17783 -0.147545 
437 1 7.76255 0.646301 2.22802 0.693181 0.78582 0.40689 
438 1 3.33479 0.933824 9.27845 0.177586 1.01144 -1.00065 
439 1 1.95587 8.79192 2.9384 -0.821165 -0.577001 -1.03387 
440 1 0.380239 0.571425 2.29841 -0.136145 -1.03824 1.88888 
441 1 8.60842 4.51813 1.67829 2.00067 -0.61029 -1.22158 
442 1 3.04702 0.268661 8.568 -1.08078 -0.142825 0.0968575 
443 1 0.40211 8.19587 4.61774 0.690917 -0.251632 1.11441 
444 1 2.52753 7.10245 1.31024 -1.25563 0.731188 -0.222343 
445 1 2.21161 8.23136 8.93635 0.820335 0.65651 -0.668305 
446 1 2.89871 0.866068 2.55233 -0.684797 0.140298 -0.356287 
447 1 6.94395 8.79887 2.87226 -0.102591 -1.89955 -0.275571 
448 1 5.62992 3.64505 6.14203 -0.0962713 0.00471821 -0.285259 
449 1 1.15467 6.41346 0.925173 -0.0657495 1.28215 -2.01585 
450 1 0.651996 0.582142 1.36753 0.0685467 -1.77289 0.153989 
451 1 4.92985 3.11084 0.936558 0.183664 -0.672112 0.0829973 
452 1 6.12636 2.67298 2.13265 -0.285107 0.401979 0.0357144 
453 1 7.63142 0.721673 4.19637 0.922361 0.376151 1.48732 
454 1 8.56122 1.68346 4.74634 1.20912 -0.689171 0.195091 
455 1 1.55745 0.78829 1.14846 -1.44331 -1.08475 -0.605355 
456 1 5.55238 2.41577 8.57523 -0.90654 -0.832535 -1.14131 
457 1 9.00135 2.27162 0.607535 0.447618 -0.939318 -0.342361 
458 1 2.17529 6.88028 3.13647 -0.714367 2.01268 -0.444523 
459 1 9.15724 3.22276 3.89842 -0.100051 0.585672 0.759202 
460 1 0.77171 7.00368 3.66412 0.592469 -0.131602 0.264166 
461 1 8.4689 3.61658 0.257076 0.989484 -1.46092 0.940328 
462 1 8.30928 8.4474 0.454733 0.505524 -0.0624764 -0.775923 
463 1 9.21715 1.73208 6.99 0.932811 0.402229 -0.0647953 
464 1 6.45679 1.49243 5.3617 -1.23512 -1.43384 -0.186066 
465 1 7.10938 3.95134 3.16788 -1.126 -0.549024 0.365342 
466 1 9.10484 3.69713 3.02413 0.556914 -0.630128 -0.405718 
467 1 0.739649 3.98673 8.46625 0.373623 0.159711 0.467629 
468 1 6.24347 0.380872 4.40611 -0.152365 0.273564 0.253744 
469 1 5.11815 7.52609 4.80179 0.792703 1.36706 -1.86049 
470 1 8.80284 2.15895 6.21429 1.50318 2.38522 -0.501611 
471 1 9.37999 6.98552 3.11179 0.597008 -0.368371 -1.4266 
472 1 0.298129 7.83804 8.48286 0.0255037 -0.93449 -0.376508 
473 1 6.39183 0.227407 7.58608 -0.796209 0.0546624 -0.140856 
474 1 8.04133 4.74441 0.961439 -1.22976 0.181559 -1.46985 
475 1 0.00488571 5.2727 2.92941 0.367448 1.37063 -0.209258 
476 1 4.08741 7.74024 3.22922 -0.0281145 -2.22492 -2.32819 
477 1 4.06678 2.51944 8.14592 0.598921 -0.500795 -0.859176 
478 1 3.72997 6.0243 8.42125 -0.112962 0.695378 0.300886 
479 1 6.24758 6.14865 7.30463 -0.577296 0.136545 -0.453402 
480 1 2.49722 4.19631 1.33969 -0.729501 0.228055 0.182946 
481 1 3.21301 3.41517 2.24482 0.445161 0.799813 -0.674581 
482 1 4.33571 1.59221 5.68291 0.459419 -0.79813 -0.131572 
483 1 3.49232 0.537311 7.67725 0.0504986 0.0695749 0.197156 
484 1 2.71436 9.28218 6.3545 -0.872316 -0.000456976 -0.764164 
485 1 4.8026 4.54034 2.50818 0.297414 -0.202933 1.17534 
486 1 0.224137 6.41815 1.2372 -1.15934 0.917235 -0.444843 
487 1 2.03804 2.63623 3.05109 -0.108066 -0.687341 0.673935 
488 1 8.23546 2.04375 8.64022 -0.663607 -2.69545 -0.440675 
489 1 3.20798 4.57717 1.91536 -0.37503 -0.911244 0.51058 
490 1 3.54732 2.47325 2.28507 0.616638 0.839103 0.0687708 
491 1 8.00871 2.20124 4.18311 -1.41425 0.973181 -0.593143 
492 1 2.44874 2.06395 8.53835 -0.850364 -0.666114 1.25107 
493 1 8.32004 1.35613 3.86182 0.314901 0.302189 -0.492727 
494 1 4.4382 9.41836 2.77373 0.746301 0.931008 -0.0846607 
495 1 3.92588 6.8331 3.43933 -0.244455 -0.0724625 -1.23052 
496 1 1.29311 6.26293 3.34891 -0.183299 0.271321 -0.0744452 
497 1 3.9925 1.5519 0.177541 -0.399801 -1.4965 -0.175018 
498 1 1.60885 3.87566 1.57403 -0.0336987 0.53383 -0.790719 
499 1 4.95104 4.20292 4.11461 -1.55269 0.313503 -0.091907 
500 1 7.03595 2.40572 6.42862 1.03046 -0.506425 0.714267 
501 1 5.59689 2.79578 5.62146 1.07047 0.0735521 -0.408418 
502 1 7.31281 7.30303 0.699187 -0.784012 -0.676103 0.501824 
503 1 7.48339 4.31476 1.59451 -0.634858 0.783845 0.643433 
504 1 1.72689 7.23945 0.738649 0.633006 1.23248 0.351189 
505 1 4.46961 5.78015 7.84246 0.880266 0.582614 1.3903 
506 1 0.403723 8.8859 7.04314 1.34196 0.399797 1.39197 
507 1 1.83643 7.57847 8.34601 0.533056 0.205296 -1.28535 