ITEM: TIMESTEP
2478
ITEM: NUMBER OF ATOMS
1000
ITEM: BOX BOUNDS pp pp pp
0.0000000000000000e+00 9.4000000000000004e+00
0.0000000000000000e+00 9.4000000000000004e+00
0.0000000000000000e+00 9.4000000000000004e+00
ITEM: ATOMS id type x y z vx vy vz 
1 1 2.11266 2.21174 5.32124 -0.542319 -0.456278 0.61742 
2 1 9.05892 4.87338 4.35138 -0.495428 0.234501 -0.00246704 
3 1 5.44174 1.75252 8.63525 -0.460761 0.459438 -0.207498 
4 1 2.82331 7.8391 4.86733 -0.150992 1.39143 1.35343 
5 1 2.78777 3.91589 7.10954 -0.695651 -1.43892 0.478286 
6 1 1.766 0.415475 5.53637 -0.367758 -0.275568 0.17911 
7 1 2.27339 0.221444 0.128103 -0.171961 1.07059 0.115693 
8 1 0.314298 0.0578167 6.90587 0.00109817 -1.11319 -1.26959 
9 1 0.582199 5.49671 7.33837 0.298753 -1.59783 -0.658445 
10 1 6.55489 0.937687 6.82636 -0.0554615 0.776595 0.232751 
11 1 1.40357 0.578557 9.13245 0.463715 0.365525 0.0631043 
12 1 8.80049 4.82425 8.01812 -0.35407 0.266687 0.0480311 
13 1 3.32402 4.73598 8.54424 0.192591 -0.852345 -0.148464 
14 1 6.75234 5.13166 1.70975 -1.11577 0.52957 0.543889 
15 1 0.332053 7.842 8.75273 -0.224841 0.105694 -1.29142 
16 1 2.19199 7.84189 7.04816 0.464412 2.03695 -0.0879226 
17 1 6.26709 4.50189 4.14163 0.262511 -0.0997523 0.41285 
18 1 7.3027 7.36837 8.06106 -0.0675355 -0.0415504 0.327529 
19 1 3.80539 3.52301 6.46143 -0.628142 -1.32679 -0.0861322 
20 1 3.34281 2.164 1.12396 0.616596 0.173396 -0.0996651 
21 1 4.63889 1.17142 2.87488 -0.868329 1.20907 0.441027 
22 1 6.93699 1.08295 0.971674 -0.0501114 -0.171099 -0.184019 
23 1 4.80455 5.33306 1.567 0.540917 1.08782 -1.47342 
24 1 7.26121 0.337071 2.93612 1.57622 -1.32706 0.800791 
25 1 5.957 3.10575 8.13822 2.63649 -0.445358 0.876466 
26 1 5.34317 2.89634 2.47931 0.183035 0.0523636 0.375883 
27 1 2.98967 0.324986 5.01999 -0.499127 1.18309 -0.317978 
28 1 5.71865 5.92624 3.20959 -0.585807 0.27576 -0.376145 
29 1 8.46106 7.76211 1.80294 0.791584 -1.29839 -1.61631 
30 1 0.416341 7.59065 3.98388 0.164899 -0.928973 0.430745 
31 1 2.27061 8.6425 0.454157 1.19447 0.753991 -0.0816613 
32 1 9.12044 1.23708 0.0708011 -0.120719 0.446692 -0.0455756 
33 1 8.93026 7.55415 4.38719 -0.341661 -0.99821 -0.857785 
34 1 7.61733 5.97071 8.96317 0.200764 0.549646 -0.111249 
35 1 7.98306 8.53683 9.00962 -0.227056 1.33598 -1.88474 
36 1 7.36799 0.850942 4.24299 -0.215732 -0.819854 -0.47524 
37 1 1.85874 7.44521 6.21867 0.770994 -0.359091 0.732456 
38 1 1.00195 2.88408 7.73633 -0.537672 -0.154747 0.60408 
39 1 4.66589 1.99358 9.16915 0.709428 -0.644407 0.649299 
40 1 7.85084 0.833002 1.22668 0.176159 -0.31131 -0.763671 
41 1 1.47001 2.75583 9.34808 1.03037 0.935395 0.827006 
42 1 2.95465 5.95717 1.447 -0.15173 -1.07897 -1.02114 
43 1 8.54525 6.46144 2.27572 0.441276 0.886355 0.713536 
44 1 4.36777 1.8857 3.49635 1.26823 -0.246013 0.249713 
45 1 1.50528 8.00703 0.425055 -1.15552 -0.376788 1.12821 
46 1 2.14512 2.74957 6.10718 -0.272619 -0.833713 -1.02172 
47 1 1.30661 5.36108 8.2051 1.52203 0.0385728 -1.05433 
48 1 3.01043 8.24518 3.98361 -1.43399 -0.348452 -0.3183 
49 1 4.417 5.9121 2.23372 0.87354 0.637704 0.365944 
50 1 1.44389 8.48323 3.01425 -0.389966 1.74884 0.436835 
51 1 0.547812 6.20625 5.68198 0.354254 -0.71084 -0.0818948 
52 1 3.71989 7.63688 6.27052 -0.417482 0.622563 0.441883 
53 1 8.38893 2.46111 3.00564 1.82956 1.34352 0.899038 
54 1 8.8458 7.36668 2.60601 -0.785991 -0.385823 0.266419 
55 1 8.41241 4.60181 8.98522 0.982694 -0.743876 0.312532 
56 1 7.798 1.43445 8.21355 0.148547 -0.768265 -0.520384 
57 1 4.814 4.8515 6.10238 -0.358397 -0.676244 0.583369 
58 1 1.83025 7.02058 0.549694 -0.919063 0.435726 0.863629 
59 1 1.39978 4.0542 4.52218 0.070375 -0.194259 -1.82035 
60 1 7.53186 9.27745 1.38528 -0.892166 -0.166634 -1.13311 
61 1 7.32301 3.00535 7.49263 0.252455 0.962959 1.3151 
62 1 1.5169 6.84045 6.8726 -0.394316 0.621341 0.534578 
63 1 8.43343 1.78356 5.4792 0.186118 -0.145622 -0.139469 
64 1 2.59174 9.38222 7.89234 -0.620048 -1.54236 0.940726 
65 1 3.19859 5.1006 6.33457 -0.114591 1.34313 -1.29599 
66 1 0.562807 8.69979 2.64846 0.356794 0.693183 0.55467 
67 1 1.59762 5.03764 4.34725 -0.802597 -0.763885 -0.468609 
68 1 1.81911 1.27606 3.82367 -1.76917 -1.16473 2.00329 
69 1 3.40772 1.64182 7.06251 -1.12818 1.00449 -1.26788 
70 1 2.3002 8.47505 2.49761 -0.234415 -1.56195 1.02423 
71 1 5.77349 6.96583 1.54582 -0.0780995 -1.05324 -0.263572 
72 1 8.88639 3.85483 8.05915 -0.880297 0.333801 -0.237752 
73 1 2.12371 3.73213 6.30304 0.701685 -0.239885 -0.125342 
74 1 0.0429324 1.18701 4.82959 0.298263 -0.94165 0.192634 
75 1 2.1845 8.09572 5.55978 0.0315846 0.186394 -1.27051 
76 1 7.66579 8.18353 7.54106 0.29593 0.652333 0.493899 
77 1 7.68788 7.761 0.180723 0.0342664 -0.404198 0.00435276 
78 1 6.5047 3.84242 8.58324 -0.128951 -0.0202962 -0.245596 
79 1 1.10805 4.34837 2.0903 -1.34924 1.64661 0.121312 
80 1 7.09201 3.46614 3.66888 -0.308586 -0.189645 -0.944722 
81 1 0.847142 8.46187 8.19022 0.542565 0.0562543 0.636433 
82 1 3.2832 1.38893 1.68924 -1.85885 0.820835 -1.03465 
83 1 0.350356 7.72132 5.8761 0.69654 -0.0497784 0.502987 
84 1 0.967293 3.34407 0.513046 -0.875148 -0.61644 2.11976 
85 1 0.189546 4.26365 7.53419 -0.188935 -0.742315 0.297256 
86 1 3.5887 7.76882 7.88874 -1.55586 1.29243 -0.11504 
87 1 2.56437 3.53554 1.17414 -0.744393 0.0913318 -0.619926 
88 1 0.593818 5.08253 4.22464 -0.272512 -0.570126 -0.79864 
89 1 8.55738 9.16417 0.0512536 0.57244 0.966512 -0.0502215 
90 1 8.45286 2.45675 1.92564 -0.154817 0.374796 0.402299 
91 1 6.18568 4.08565 5.08829 0.204046 -0.640694 -0.286064 
92 1 3.67002 7.5923 8.98507 0.00234647 0.293484 -1.41489 
93 1 2.42072 4.75173 6.748 -0.596868 0.59826 0.546984 
94 1 9.12096 8.09089 1.17492 0.412923 -0.115344 1.01801 
95 1 5.2274 1.76105 3.97156 -0.757601 -1.43491 0.137526 
96 1 0.73779 6.05697 4.05681 0.20184 1.58554 -1.06832 
97 1 0.835177 2.5449 6.65917 0.800796 -0.0219358 0.719803 
98 1 5.27884 4.88052 0.802926 0.588781 -0.36151 1.22732 
99 1 3.52487 1.28783 0.740572 0.709187 -0.335764 -0.00218182 
100 1 7.55499 6.26334 2.99725 -0.183786 1.34446 -0.471295 
101 1 0.700507 4.08484 8.37657 -1.86168 0.227618 0.791167 
102 1 6.76762 6.96742 1.68594 -1.32435 -1.52225 0.127921 
103 1 7.01483 6.40762 0.227583 0.400907 -0.604114 -1.44777 
104 1 1.23878 8.01269 5.7774 0.164724 -0.505681 -0.878082 
105 1 1.42912 8.14743 4.03359 -0.10102 -0.0591157 -0.362666 
106 1 5.44418 3.94954 2.64964 0.874842 -0.734667 -0.255654 
107 1 3.72517 1.75586 6.18491 0.677876 -0.363086 -0.330544 
108 1 8.09238 0.854183 2.71961 1.26424 0.464723 -0.00129444 
109 1 2.94355 2.25868 1.99855 1.20942 -0.0368762 0.493708 
110 1 9.35647 3.38186 5.20982 0.269362 0.536037 -0.731785 
111 1 7.35565 4.14331 6.38357 0.454487 0.00662145 0.925671 
112 1 0.660844 5.62532 8.94745 0.461548 -2.4348 0.122358 
113 1 7.38538 1.51699 1.73422 -0.222795 -1.02286 1.08481 
114 1 0.895311 6.58688 4.84571 -0.213204 0.579384 -1.67929 
115 1 8.81974 2.02235 7.12519 -0.102146 -0.925139 1.57644 
116 1 1.96631 2.10045 0.515327 0.630476 -1.23972 0.83572 
117 1 5.49449 5.44939 8.02057 -0.458812 0.593095 0.457621 
118 1 7.60678 8.12009 2.02965 0.194807 0.125006 0.158523 
119 1 1.41728 6.0622 0.248259 -0.369791 -1.01819 0.61004 
120 1 1.76091 7.67534 2.5553 0.720521 0.657139 0.361038 
121 1 3.54148 3.00591 8.2656 -0.656628 -0.243247 -0.986552 
122 1 8.51846 8.29052 0.456454 -1.07396 0.719801 0.279089 
123 1 6.12301 3.45167 1.53164 -0.233583 0.586409 -2.13737 
124 1 3.67936 1.18722 3.20139 -0.142011 1.5349 -0.626546 
125 1 1.86963 3.75064 0.555104 -0.026863 -1.68445 -0.833249 
126 1 4.37314 3.10566 2.2774 1.30704 0.347132 -0.890289 
127 1 5.1253 4.75723 2.31031 -0.580021 1.40939 -0.661305 
128 1 3.22296 4.82537 1.75301 0.463011 -0.213272 -0.292634 
129 1 8.67951 8.96724 4.7915 0.190387 0.0838518 0.54366 
130 1 2.94721 6.38649 7.54969 -0.322593 -0.361799 0.695077 
131 1 6.77467 3.91255 1.00748 0.29094 0.201357 -0.571385 
132 1 5.43856 3.38345 6.353 0.81854 0.596391 -0.394131 
133 1 7.18901 4.43176 3.69329 -0.664708 1.148 0.608253 
134 1 1.5098 5.20219 9.16011 0.302498 0.833562 0.797465 
135 1 7.15158 2.09838 7.81977 -0.662212 -0.148918 -0.0705991 
136 1 1.29157 0.111273 1.5289 0.438218 0.140331 0.0431095 
137 1 7.11746 4.50694 8.06543 -0.667014 1.60315 0.289758 
138 1 1.27242 7.11821 1.89759 -0.413749 0.256941 0.0594578 
139 1 3.55481 7.44982 4.30545 -0.616035 -0.481993 0.964004 
140 1 4.55889 6.37413 4.34936 -0.343073 -1.21352 -1.97899 
141 1 2.69493 8.63969 6.36946 -0.465591 -0.142748 -0.236756 
142 1 1.07468 2.30728 4.05395 -0.427178 0.0631757 -0.459228 
143 1 7.70453 2.90898 2.48942 0.715344 0.0552322 -0.736862 
144 1 5.18703 1.4291 7.72758 0.777336 -0.668356 -0.148709 
145 1 6.42836 4.03726 3.27183 0.501156 -0.906999 -0.300005 
146 1 1.53499 2.33936 2.80475 -0.0778526 0.578188 -0.276105 
147 1 6.58069 4.43084 7.10895 -0.974118 0.344721 0.982602 
148 1 4.5327 3.68329 9.12581 0.173471 0.0256082 1.30032 
149 1 2.70363 5.5824 9.01701 -0.511877 0.178781 0.591982 
150 1 4.7476 2.59035 4.24303 -0.938002 -0.39941 1.07889 
151 1 3.93062 0.463261 0.45211 -0.0403365 -0.0886635 0.958073 
152 1 8.41961 3.78723 0.992405 -0.271257 1.17043 0.253467 
153 1 0.0401224 1.22849 2.94979 0.655212 -2.1028 -0.408235 
154 1 0.679965 5.78917 1.37449 0.242439 -0.158507 0.136774 
155 1 9.15798 9.04251 1.2585 -0.076961 0.658833 0.259723 
156 1 9.14747 5.29284 8.77404 0.344184 -1.18205 -0.345847 
157 1 0.830889 4.85737 1.34458 0.0180774 0.113941 0.0949792 
158 1 0.591737 4.32759 0.581826 0.255221 -1.72479 0.318378 
159 1 2.47465 0.709854 2.7099 0.701651 0.156115 -0.435214 
160 1 3.27284 0.369416 6.52442 -0.701313 -0.219736 -0.975691 
161 1 7.02633 2.1872 2.30958 -1.77112 -0.831452 0.789461 
162 1 0.477891 2.72051 9.3444 0.789804 0.00752428 0.593552 
163 1 9.07891 9.01043 7.67903 -0.908256 -0.124748 -1.70003 
164 1 3.85332 8.59532 7.49477 1.84727 -0.601582 0.217234 
165 1 3.77452 4.42382 0.278974 0.836098 1.33438 -0.0949523 
166 1 6.10245 6.19018 0.0149597 0.575707 0.821999 0.752877 
167 1 1.57883 7.85392 1.43118 -0.196244 1.81038 0.426618 
168 1 8.76168 5.64415 1.79082 0.854321 0.102825 -0.588897 
169 1 3.07722 9.2596 0.499641 -1.11002 -0.185017 -0.64541 
170 1 1.80915 4.11736 7.10832 -0.535757 -1.12241 -1.41274 
171 1 7.67199 9.0433 2.35234 0.493411 1.38255 -0.933885 
172 1 0.635862 0.742951 3.49491 0.260199 0.368951 0.983049 
173 1 8.64071 1.20756 7.66103 0.262606 -0.921804 1.33707 
174 1 9.17978 5.69756 7.85072 -0.475469 0.398339 -0.406664 
175 1 3.15646 7.62297 0.377166 1.0936 -0.296972 -0.140457 
176 1 1.34973 1.60867 2.20948 -0.0798067 0.18387 -0.0467432 
177 1 4.25064 3.63573 1.44382 1.19765 0.0610546 1.01652 
178 1 2.69622 4.05906 8.72957 0.572134 -0.557979 -0.876699 
179 1 6.82873 2.81722 8.37356 0.721976 -0.299352 -0.0499654 
180 1 8.86912 4.90285 3.35924 1.34474 -0.935614 -0.210622 
181 1 3.6472 4.16106 3.8002 0.00742152 -0.366023 0.344626 
182 1 5.68528 6.30298 8.46893 -0.465485 0.0472116 0.937465 
183 1 3.14495 0.690516 9.35823 0.76869 0.742144 0.302059 
184 1 0.525915 2.91026 4.61065 -0.408663 1.01952 -1.16491 
185 1 9.30304 4.15737 6.60356 0.240874 -0.158886 0.485148 
186 1 0.341191 6.99946 8.29735 -0.836873 1.02817 -1.59491 
187 1 2.35447 3.07027 3.66137 0.310494 -0.928089 1.31193 
188 1 2.31061 4.0977 7.90167 0.105958 -0.635962 0.0226863 
189 1 7.4742 3.01377 9.03554 0.336419 -0.553916 1.33941 
190 1 3.15298 2.22643 4.72411 -0.815543 0.415144 -0.412243 
191 1 7.46346 0.600873 2.03776 -0.718742 -0.353361 -0.937135 
192 1 7.75968 0.0709489 8.99703 0.355902 -1.32749 -0.180293 
193 1 3.90888 0.451085 8.79726 -2.1196 -0.974091 0.445952 
194 1 7.54744 2.52102 1.60502 0.660975 0.348087 0.535616 
195 1 0.790701 1.23748 7.92549 -0.685127 -0.268514 0.0312108 
196 1 6.21937 1.30591 7.66248 -0.13128 -1.07734 0.794004 
197 1 6.36232 2.14927 4.57705 1.28443 -0.737309 -0.359923 
198 1 3.39462 4.07898 1.10781 0.822237 0.27718 1.68313 
199 1 2.13607 7.27457 8.40735 1.5031 0.0335193 -0.526657 
200 1 9.04898 1.98582 6.17733 -0.373966 1.33647 0.184323 
201 1 7.58877 0.700084 5.25405 0.767311 -1.24572 0.144985 
202 1 4.01734 6.08049 3.10958 -0.464625 0.217488 -0.895109 
203 1 5.54761 4.16923 3.58479 0.475836 -0.324953 0.223045 
204 1 6.14059 1.8321 3.66979 0.75476 -0.74411 -0.37426 
205 1 3.92926 1.54555 2.36158 -0.669089 0.437034 0.9978 
206 1 3.21807 0.680818 4.14382 0.171755 0.857269 0.449972 
207 1 2.23697 0.869362 8.00875 -1.13716 -1.14732 -1.47299 
208 1 2.94541 6.03622 4.2615 1.10477 -0.910429 1.00463 
209 1 4.20317 4.97034 3.76399 0.0983145 0.607318 -0.504336 
210 1 7.33539 1.43018 6.59664 -0.951746 0.828615 -0.874579 
211 1 5.08313 3.82202 7.21755 -0.343761 0.804577 -0.792018 
212 1 9.19924 7.31885 7.55153 0.666171 -0.332389 0.490587 
213 1 0.348341 3.71857 9.2732 1.15199 -2.09617 0.343494 
214 1 6.10509 3.34802 5.66999 0.452525 -1.33789 0.21598 
215 1 0.0858981 2.5257 1.93781 -0.44196 0.19179 0.432599 
216 1 1.35756 8.31855 7.34636 -0.7717 0.383014 -0.175291 
217 1 9.16215 3.2144 8.76577 0.116886 -0.233371 -0.338654 
218 1 8.13049 3.4592 7.72318 -0.711923 0.429404 0.0752596 
219 1 0.332599 7.05425 2.41819 0.205895 0.903408 0.058465 
220 1 5.09445 5.49636 5.44558 -2.05768 0.911842 -0.343157 
221 1 0.655242 7.70487 7.65358 1.33125 0.263839 1.30681 
222 1 1.48552 3.12588 4.37798 2.13793 0.675139 1.11314 
223 1 3.55058 0.525785 1.35613 -0.492481 -1.20429 -1.0812 
224 1 4.02353 0.0600087 7.07263 1.26411 -1.08217 0.563501 
225 1 6.90407 1.35437 4.97245 -0.190181 -1.1331 0.326741 
226 1 1.3716 0.905724 4.84001 -0.337127 -0.766127 0.0566326 
227 1 0.409009 0.221911 1.88426 -0.195383 0.854587 0.690241 
228 1 5.29026 5.65179 2.39614 0.517485 -0.50866 -0.450494 
229 1 8.24313 2.94945 4.06091 0.246031 0.0492655 0.395872 
230 1 1.64347 1.79362 4.61409 0.341039 0.546472 0.117582 
231 1 9.15649 4.23942 5.60307 1.20931 -0.286338 -0.516859 
232 1 1.45178 5.31883 6.93273 0.415561 -0.352831 -0.0608645 
233 1 2.26681 1.53908 2.01546 0.742397 -1.00744 -1.11444 
234 1 2.01782 6.03221 1.78438 -0.991796 0.376081 -0.173816 
235 1 2.80561 5.46153 5.53342 -0.133943 0.218165 0.276993 
236 1 4.87038 7.11508 1.15855 1.03629 0.980117 -0.344019 
237 1 2.9246 4.71857 9.39898 -0.611741 -0.126666 0.152049 
238 1 2.50659 7.15689 5.53418 1.17342 -0.714292 0.253173 
239 1 3.6118 6.77079 0.122475 -0.310804 -1.77665 0.326134 
240 1 2.61935 0.531532 5.86293 1.16428 0.800938 0.177628 
241 1 3.71143 5.35969 7.46023 0.0857492 1.01644 -0.986927 
242 1 8.84155 2.85997 7.96718 -0.723143 -1.15368 0.515633 
243 1 8.36675 2.61394 8.97535 0.604269 0.546074 0.894905 
244 1 0.115973 1.23815 1.957 -0.376649 -0.309609 -0.100547 
245 1 6.22988 5.54905 2.50788 0.256761 -0.10113 0.605994 
246 1 3.87867 1.30901 9.23975 0.0556069 -0.415282 0.155142 
247 1 7.49877 4.92241 0.994053 -1.67764 0.331135 0.695161 
248 1 9.13309 0.395479 9.02184 0.576403 -0.974574 -0.122459 
249 1 1.94571 2.19988 3.6733 -0.547549 -1.23268 -0.245605 
250 1 0.564228 6.79703 3.4708 0.585776 -0.412143 0.187076 
251 1 4.90266 4.67131 5.01783 -0.110017 0.000527911 -1.16192 
252 1 4.20114 3.34945 3.89492 0.243525 1.37017 -0.484384 
253 1 7.29082 6.38192 1.15803 0.0150902 -1.06783 -0.319168 
254 1 7.71293 7.20202 1.48297 0.36438 0.294593 -1.18662 
255 1 2.09192 0.0242431 1.02386 0.508926 -0.0410563 -0.419149 
256 1 1.54005 7.42775 7.59843 0.546895 -1.37701 1.14659 
257 1 1.18232 6.86054 2.78824 0.810842 0.616131 -0.780154 
258 1 9.31257 8.17799 8.0101 1.00271 -0.285439 0.671275 
259 1 2.82351 7.05718 9.09045 0.243011 -0.832025 0.967697 
260 1 8.63823 3.22354 2.46703 -0.188853 0.974056 1.04887 
261 1 3.85159 2.47109 6.85104 -0.277882 0.000712775 0.190622 
262 1 6.72283 6.46846 2.50792 -0.910666 1.40353 0.0144137 
263 1 4.41797 1.23798 5.72878 -1.23478 -1.35778 1.17523 
264 1 7.8055 2.36251 0.310295 1.29582 0.149048 -0.188455 
265 1 3.19028 0.367216 3.24493 -0.0911758 -0.572056 -0.303838 
266 1 6.94107 8.85795 7.61518 -0.642492 -1.0903 1.33702 
267 1 0.160908 7.84043 3.05566 1.04859 1.00375 0.930874 
268 1 8.32938 4.252 6.32443 0.184461 -0.325092 -0.311548 
269 1 8.33402 0.681059 0.14572 -0.157117 0.978801 0.621129 
270 1 1.47806 6.34675 3.51811 1.62303 0.46949 0.739663 
271 1 1.99249 5.52167 6.14862 -0.00806616 1.64472 0.316001 
272 1 6.19528 2.16193 9.09012 0.543259 0.266041 0.091126 
273 1 7.15471 5.61965 2.40128 0.0932222 -0.125988 0.142783 
274 1 8.55168 2.00533 8.19471 0.847043 0.312644 0.33988 
275 1 3.91182 3.68597 2.98693 -0.571203 0.351539 0.32848 
276 1 2.24108 5.29928 0.400305 -0.0786397 0.765214 1.17497 
277 1 1.07463 7.69365 6.70666 0.373019 0.886209 0.793007 
278 1 3.63612 6.34166 2.02224 1.03225 0.16741 0.951353 
279 1 3.60638 2.65005 5.87944 0.159202 -0.85234 0.388483 
280 1 8.27508 8.30712 4.20778 0.0454485 -0.531411 0.833882 
281 1 9.25204 4.824 0.175684 0.958741 1.00989 0.437899 
282 1 4.47169 2.32571 6.11509 0.972012 -0.0232012 -1.02187 
283 1 6.08322 4.07502 0.046306 0.159666 0.0295277 0.244733 
284 1 4.11487 2.74422 1.06543 -1.06772 -1.00985 0.829466 
285 1 8.90509 7.44057 8.50166 -0.337132 -1.30893 -0.149634 
286 1 3.81651 2.86139 4.9704 -0.154883 0.262944 0.631132 
287 1 6.66143 1.92225 7.00864 1.0916 -0.429137 -0.223349 
288 1 1.25587 2.24615 8.42191 0.910539 -1.14424 -1.56756 
289 1 1.21422 7.62043 8.48603 0.618311 -0.00716262 1.27779 
290 1 7.69581 5.81494 0.52797 0.455393 -0.0894273 -1.3279 
291 1 2.30379 0.451288 3.60353 0.909087 0.201045 -0.378166 
292 1 6.69518 1.14369 5.89495 -0.0578546 0.906853 0.180477 
293 1 0.56392 0.514453 4.43293 -0.250793 -0.45104 -0.547301 
294 1 3.89687 8.22896 0.419299 0.23144 -1.09421 -0.722615 
295 1 2.41957 1.63264 7.08545 1.0022 0.440149 0.931948 
296 1 4.53844 4.01704 2.34212 -2.02981 0.893829 0.249946 
297 1 0.234864 2.03546 4.37728 -1.02812 -0.791769 0.18798 
298 1 5.20436 1.83473 5.71089 -0.191264 0.739719 1.30609 
299 1 7.98019 4.5039 3.1442 -0.411164 0.283851 1.10025 
300 1 5.52077 4.36876 6.5782 -0.23531 1.1027 -0.184554 
301 1 1.56905 4.41928 8.44111 -0.585958 -0.599353 -0.684236 
302 1 9.33476 2.02859 5.26835 0.93694 0.12297 1.86492 
303 1 7.15534 1.24916 2.6329 0.575761 0.316436 -2.45366 
304 1 5.51123 1.65162 1.24469 0.454396 -0.185258 0.458756 
305 1 1.12478 6.178 2.11519 -0.348414 0.467762 -0.613312 
306 1 2.83827 2.37206 7.47225 -0.745093 -0.103057 -2.30437 
307 1 4.52553 5.25929 2.89396 -0.0342517 0.175846 0.784014 
308 1 0.267803 3.60487 3.16243 -0.146309 -0.282858 -0.41067 
309 1 6.73194 1.07806 3.50541 -0.933917 -0.109424 0.425858 
310 1 3.57637 6.13507 6.85905 -0.508459 -0.270138 -0.207022 
311 1 0.667396 8.53732 6.39513 1.37096 -0.748041 -0.0166961 
312 1 5.32267 5.8499 4.56079 -0.187738 0.326838 0.588567 
313 1 1.07005 7.64709 3.29806 -0.218167 1.07685 0.997896 
314 1 3.16757 8.06144 7.04314 0.206752 -1.45944 0.59202 
315 1 4.49276 5.40085 4.57416 0.140883 -1.82898 0.446465 
316 1 4.31543 0.977143 3.86839 0.53867 -0.161617 1.6458 
317 1 7.45138 0.213234 7.27573 0.150154 1.54867 0.347158 
318 1 6.41531 2.76708 7.38219 0.485321 -0.78348 -0.748904 
319 1 2.82658 6.91693 4.66498 0.677141 0.433462 -0.373124 
320 1 2.00079 4.92188 7.58304 -0.47083 0.0504722 -0.544743 
321 1 3.09012 8.15996 2.93135 -1.3629 -0.783967 -0.345327 
322 1 2.74115 1.48711 0.262022 -0.118587 0.872313 -0.187725 
323 1 3.58541 6.53831 1.05837 -0.073143 -0.192151 -0.238216 
324 1 0.605329 1.88568 1.45003 0.475731 -0.195067 -0.131937 
325 1 8.56933 7.44382 0.00456027 -1.83419 0.443479 0.545686 
326 1 1.17931 1.47134 6.63656 0.274482 0.51423 0.701294 
327 1 5.71472 2.60184 1.30326 -0.306325 -0.261448 -0.315983 
328 1 7.93193 4.96811 7.51784 -0.105687 -0.449915 -0.922862 
329 1 4.83859 5.72558 3.678 0.259084 0.851213 -0.911456 
330 1 5.18672 3.52045 1.80874 0.176215 0.898107 -0.263367 
331 1 6.89424 9.20222 8.54788 0.909411 -0.180556 -0.766167 
332 1 3.82947 8.99816 1.0598 0.751647 0.0423758 0.669751 
333 1 6.72273 6.3235 8.67946 -1.52416 0.17781 1.72179 
334 1 4.27682 0.717034 1.98484 -0.661889 -1.01139 0.402093 
335 1 8.11295 3.30234 0.23809 -0.67277 1.29882 0.42431 
336 1 1.03582 2.42352 0.766567 0.627403 0.626071 -1.05425 
337 1 2.60414 3.8205 5.42152 0.929087 0.256998 -0.16005 
338 1 1.13526 1.46555 0.794405 -0.529914 0.503491 -0.0842006 
339 1 1.77455 3.81628 3.66883 0.792578 0.773796 -0.00117819 
340 1 8.62507 9.13519 3.82623 -2.49766 0.558904 -0.524047 
341 1 9.26651 0.331489 5.26465 -0.151592 0.223321 -0.745928 
342 1 7.92388 1.81767 2.4941 -1.04172 0.270294 -1.0055 
343 1 1.10731 4.48706 3.68947 -0.0626052 0.464247 0.776137 
344 1 6.02082 2.43223 2.97246 0.778529 -0.153225 -0.655725 
345 1 4.7266 6.0369 8.26618 1.26587 0.520806 0.620571 
346 1 9.14918 1.16735 5.73292 0.349874 0.113187 0.618604 
347 1 4.1619 1.71393 1.31208 2.05022 -1.12147 -0.386575 
348 1 6.91309 5.28601 4.08353 0.00206995 -0.648379 1.6038 
349 1 2.9191 2.28961 6.51776 0.789515 0.818835 0.458506 
350 1 3.08678 8.38068 0.963941 0.368722 0.110625 0.0967471 
351 1 2.65363 9.28127 4.24401 -0.204594 -0.484301 0.42362 
352 1 0.678395 4.39702 5.83548 1.23426 -0.889909 0.550832 
353 1 9.39861 7.01021 9.24816 -0.864728 0.789913 0.521105 
354 1 9.32631 4.87654 1.85121 0.178529 -0.266547 -0.1032 
355 1 0.554229 0.631455 8.6078 -0.495459 0.210547 -0.582647 
356 1 6.1107 4.61495 2.54675 0.881474 -2.16044 2.20607 
357 1 3.85466 8.05479 1.4646 -0.288889 0.0643714 -0.674834 
358 1 1.45494 9.09377 0.184983 1.21685 -0.0472514 -0.523723 
359 1 7.17845 1.99498 0.923564 -0.485204 0.526455 0.311974 
360 1 3.44014 7.30665 5.35008 -0.458699 0.692016 0.726125 
361 1 1.60357 4.04217 5.57371 0.100179 0.719644 -0.791941 
362 1 5.44612 5.02501 3.16553 0.0262797 -0.978665 0.157811 
363 1 1.91035 3.18683 5.25579 -0.667118 0.526652 -1.64171 
364 1 9.03734 8.83768 6.68901 -0.445307 0.860024 0.391391 
365 1 8.99819 3.20068 1.51703 0.539908 -0.980164 0.189814 
366 1 0.553808 8.64847 1.69138 0.0404422 -1.40304 -0.0800577 
367 1 8.33614 1.07325 4.07713 -0.13388 0.189055 0.521102 
368 1 2.72278 8.9324 3.35632 0.0669552 -0.328242 0.189223 
369 1 7.99336 3.53048 3.23164 1.35838 1.36319 -0.555681 
370 1 5.78233 4.28272 1.76626 -1.99682 -0.500107 0.3037 
371 1 7.74138 8.86906 0.49748 -0.122561 -1.06386 -0.72555 
372 1 8.0559 3.30551 1.70646 0.909143 0.147019 1.02388 
373 1 0.111311 0.938478 7.35163 -0.779339 1.41139 0.258089 
374 1 9.28951 1.2677 3.90662 -1.00783 0.424992 -0.0470128 
375 1 4.63027 2.18859 2.58318 -0.661783 -0.48355 -0.519715 
376 1 6.85634 4.60622 0.343702 0.17158 0.0542489 -0.369873 
377 1 7.51426 3.22024 5.02549 -0.0692577 -0.447563 0.974818 
378 1 3.98621 0.972795 6.62233 0.186069 0.681981 1.37598 
379 1 8.91807 8.34171 8.94983 -0.457541 -0.637039 0.155573 
380 1 2.29144 6.34816 9.38166 0.521581 -1.706 0.793869 
381 1 8.54908 4.81009 2.41614 -0.148424 1.04878 -0.349777 
382 1 3.98351 0.924553 4.81475 0.908974 -0.0463878 0.0728923 
383 1 4.5889 2.39424 5.17144 1.33667 1.25606 -0.916921 
384 1 1.01826 2.01143 7.45617 -0.13989 -1.09188 0.975722 
385 1 2.90757 2.29778 3.78666 -0.459412 0.343029 -0.319847 
386 1 7.92691 3.42258 6.79366 -0.235275 -0.299852 0.838505 
387 1 5.28851 2.81283 5.6195 0.941519 -0.630301 0.0545985 
388 1 4.46107 6.56685 0.469758 -0.432131 0.577955 -0.44975 
389 1 0.667401 4.71696 9.08629 0.12782 0.744876 -1.00464 
390 1 1.44792 8.57269 2.04769 0.225603 -1.10842 -0.379461 
391 1 1.27803 6.733 8.19489 -0.644466 -0.828223 -0.0636777 
392 1 9.01154 0.33855 6.18944 -0.56443 0.599839 0.834949 
393 1 2.05941 2.71239 8.59583 0.184679 -0.468032 -1.04782 
394 1 4.76268 2.22271 7.22376 0.793495 0.5204 0.0991243 
395 1 5.32422 5.68043 9.28748 0.234661 0.5145 -0.838435 
396 1 1.62826 9.00121 7.93553 -1.99342 0.011167 -0.283748 
397 1 2.72984 5.94624 2.41973 0.66335 0.723865 0.859985 
398 1 0.674908 4.7436 6.74202 1.55921 -0.845112 -0.547268 
399 1 2.71573 7.41677 7.68846 -0.365302 0.695955 0.00775232 
400 1 8.70849 8.123 7.26081 0.499004 -0.109021 -0.612141 
401 1 9.40304 5.78593 4.6283 -0.402594 0.625012 0.354171 
402 1 8.3385 0.110704 5.50741 -0.355061 1.00404 0.392112 
403 1 2.95973 1.92 5.62781 0.140705 -0.209816 -0.679205 
404 1 3.0667 5.58868 8.13334 0.484618 0.81481 -0.0332372 
405 1 2.57496 6.39362 8.46006 -0.676194 0.953025 -0.243362 
406 1 1.68572 6.05037 8.71144 0.324805 0.0041751 0.995215 
407 1 1.16187 0.00164816 2.43739 0.854196 -0.147395 -0.244796 
408 1 6.67497 2.7297 1.22373 1.52332 0.784546 0.933807 
409 1 1.35624 9.01456 5.88461 -0.895369 -0.671181 -1.00089 
410 1 3.17245 7.42056 1.32059 -1.40666 -0.596516 0.992504 
411 1 6.04224 5.30841 7.06952 -0.808138 -0.753814 0.528366 
412 1 3.44869 6.14561 8.83745 -0.8164 -0.615492 -1.38948 
413 1 7.01809 3.87458 5.51059 -0.517422 0.251014 0.0280533 
414 1 5.7499 0.987952 3.42413 0.655487 -0.948365 -0.0109825 
415 1 1.36472 4.86333 2.83448 1.04166 1.19975 0.176747 
416 1 0.00693714 5.04551 6.13707 -0.246764 0.406314 0.952673 
417 1 3.29337 4.6165 5.42247 -0.695448 0.625339 0.864987 
418 1 5.39005 6.09714 1.52261 0.602596 0.583323 -2.56058 
419 1 9.1067 1.27068 8.53417 0.929911 1.02196 0.336261 
420 1 4.12835 3.77372 7.30833 0.256387 -0.559208 -0.99562 
421 1 3.33115 6.95432 8.27779 -0.231246 -0.910606 -1.0268 
422 1 9.27507 6.22346 8.74683 -0.544951 0.377106 -0.596854 
423 1 4.177 6.92751 2.60942 0.510287 1.036 -0.182398 
424 1 4.38649 6.87154 3.54968 1.09811 -0.18263 -0.975399 
425 1 8.82721 3.48654 6.09697 -0.382668 0.384836 -1.52132 
426 1 0.148788 4.32691 3.74552 -0.417449 0.965268 -0.0982509 
427 1 1.1041 2.50352 1.93504 -0.0142458 1.51261 -0.433442 
428 1 0.0295763 7.15305 0.824519 1.61664 0.467029 -0.63975 
429 1 4.61573 3.0673 6.74754 -0.393145 -1.11696 -0.254213 
430 1 7.47638 4.22019 8.95291 -0.589677 0.926489 -0.27045 
431 1 8.9319 2.28658 3.75943 0.1552 1.10261 -1.74007 
432 1 4.67676 3.92964 6.31298 -1.37202 -0.530804 -0.443723 
433 1 2.92815 1.25744 6.36385 -0.610937 1.78856 0.614569 
434 1 6.04695 3.64435 6.99753 -0.835657 1.47105 -0.193644 
435 1 5.62915 3.17462 4.82226 -0.135954 -1.27222 -0.232612 
436 1 4.92096 6.74843 2.04434 -0.609389 -0.171238 -1.86092 
437 1 0.780709 5.31592 0.457127 0.931272 0.523551 -1.33074 
438 1 3.80024 6.18794 7.93607 1.10209 0.614175 -0.393472 
439 1 1.95387 3.23485 2.79053 0.059277 0.662265 -1.38078 
440 1 8.82891 0.328599 7.10611 -0.393537 0.822655 0.819689 
441 1 6.93521 3.90046 4.5275 0.310825 0.285764 1.07959 
442 1 8.39137 6.63402 8.93742 0.738534 0.316882 -0.139491 
443 1 5.43079 6.53859 0.632483 -0.73175 -0.121808 -0.53484 
444 1 8.42767 8.40696 2.52618 0.31748 0.0307436 -1.22535 
445 1 0.651451 3.14862 1.42506 -1.33985 -0.528856 -0.261841 
446 1 8.2975 6.45417 1.3068 -0.170418 -1.2816 1.1056 
447 1 5.17183 4.4276 9.31441 0.556026 0.591329 1.15007 
448 1 6.5812 2.68159 3.75639 0.306897 -1.22344 0.506014 
449 1 0.402901 4.18424 4.70084 0.499432 0.694207 -1.04359 
450 1 4.81982 3.43852 3.0983 -0.64524 -0.038422 1.22112 
451 1 8.52647 4.22824 7.26156 -0.236667 1.27442 -0.72723 
452 1 3.51421 5.56689 4.89674 0.212 -0.262285 -0.00765931 
453 1 7.61141 4.08866 1.45451 0.734317 0.286249 -0.124847 
454 1 8.83796 3.92214 0.118769 0.123624 -0.263492 -0.236069 
455 1 5.65458 4.63925 5.68121 0.0611143 0.10146 -0.831191 
456 1 4.52388 7.40054 9.37781 0.799436 -0.282004 -0.232655 
457 1 3.99296 7.36101 0.77705 -0.581057 -0.0176844 1.4623 
458 1 1.08746 4.69944 7.58899 -0.964304 0.585626 0.11818 
459 1 2.36049 4.93163 8.4609 -0.209634 0.550728 -1.7107 
460 1 8.22601 0.928404 5.99536 0.786078 -1.19071 -0.611029 
461 1 9.3977 5.27614 1.00986 -0.742769 0.450803 -0.432076 
462 1 3.46612 6.6384 3.75368 0.137466 -0.748649 0.866408 
463 1 9.09453 7.1599 3.5374 0.624946 -1.49878 -1.47602 
464 1 8.16373 1.79298 6.4121 -0.107266 0.270629 -0.788065 
465 1 1.6426 3.02442 1.19572 -1.0392 0.0717184 -0.312685 
466 1 4.16494 4.83111 2.06446 -0.285817 -0.999992 0.594016 
467 1 4.43883 2.82313 8.60137 -0.563859 -0.695423 0.77495 
468 1 6.92238 3.62308 0.0935028 -0.087825 -0.427376 0.0488487 
469 1 8.72891 1.7768 4.56083 -1.02876 -0.0846708 -1.18876 
470 1 0.729157 8.50054 9.30202 -0.591941 0.926321 0.843855 
471 1 1.73756 2.24947 6.83573 -0.276986 -0.356498 1.22683 
472 1 6.96128 1.98777 3.21231 0.134574 0.535082 0.111872 
473 1 8.42578 1.22664 1.87738 0.36571 -1.50471 -0.617346 
474 1 5.56586 2.57527 0.346481 0.623234 -0.248808 1.17725 
475 1 2.83909 6.79415 1.96208 -0.935134 -0.541854 -0.133579 
476 1 1.32522 2.99925 3.46647 -0.21862 1.50682 1.62419 
477 1 1.20555 6.08706 6.41615 -0.738133 -0.894833 -0.0712553 
478 1 8.83813 4.04277 1.89607 -0.465572 0.527555 -0.299462 
479 1 2.37966 5.21637 1.37103 -0.640738 -0.745783 -0.536453 
480 1 0.0624551 3.54266 0.773613 -0.260756 0.876889 0.360516 
481 1 1.81641 6.86409 4.93771 1.18433 0.586198 0.788106 
482 1 8.08518 5.63059 2.45738 -0.747678 1.57553 -1.27396 
483 1 7.44791 6.95265 8.98741 -0.120359 0.427238 -0.237265 
484 1 3.21584 2.96691 0.650184 0.145902 -0.377503 0.689735 
485 1 3.72524 2.94407 9.22769 0.038504 0.186095 0.579829 
486 1 2.62626 0.670655 1.77075 -0.883154 0.500284 0.986737 
487 1 5.44931 4.0846 4.53718 -0.358448 -1.38484 -0.649613 
488 1 0.328781 2.84069 3.70209 -0.753249 -1.45577 0.576719 
489 1 2.03698 0.0966664 8.63336 -0.774325 -0.226277 0.11496 
490 1 2.27901 2.61357 4.49861 -0.0681501 -0.737114 -0.330945 
491 1 5.94554 5.45236 3.98669 -1.31357 -1.51097 -0.545809 
492 1 6.43246 1.87674 1.62155 1.77762 -0.202122 -0.82957 
493 1 8.58704 9.19392 8.50221 0.585177 -0.505433 0.976086 
494 1 4.37506 0.568808 7.94035 1.13539 0.397033 -1.3209 
495 1 3.40681 2.95622 2.53387 1.10195 -0.0791964 -0.67801 
496 1 5.70911 2.62657 4.03914 -0.575462 -0.234392 -0.443055 
497 1 3.06218 1.51115 8.8 -0.0019466 0.777365 -0.31249 
498 1 2.07432 9.36768 6.41884 1.47831 0.0468473 0.17965 
499 1 3.00373 2.32316 9.37158 0.320168 -1.79629 -1.07631 
500 1 8.33266 8.70049 1.59324 0.267211 0.527783 0.299092 
501 1 8.88666 1.18581 6.67113 0.170863 -1.07401 -1.08298 
502 1 0.639516 0.842291 5.50472 -0.801346 1.5842 0.474672 
503 1 8.46175 5.81552 3.2953 0.215584 -0.479236 1.00879 
504 1 8.50054 7.36138 0.937755 1.8543 -0.509825 0.123653 
505 1 0.291378 1.75959 6.88129 -0.495574 0.883523 -0.68521 
506 1 0.588932 6.42211 0.566864 0.146362 0.255177 1.06577 
507 1 4.5954 6.01024 6.20096 -0.435145 -0.313303 -1.18093 