ITEM: TIMESTEP
1219
ITEM: NUMBER OF ATOMS
1000
ITEM: BOX BOUNDS pp pp pp
0.0000000000000000e+00 9.4000000000000004e+00
0.0000000000000000e+00 9.4000000000000004e+00
0.0000000000000000e+00 9.4000000000000004e+00
ITEM: ATOMS id type x y z vx vy vz 
1 1 5.1236 6.79035 8.96767 1.14904 -0.10043 -0.447065 
2 1 4.10382 2.99396 6.88668 -0.577966 1.3871 -0.331095 
3 1 6.70603 4.81144 6.04449 1.18584 0.419678 -0.203867 
4 1 4.49874 4.97154 5.17945 -1.45826 0.184957 -0.64086 
5 1 4.42426 3.29849 6.0345 0.35355 0.438028 0.42113 
6 1 0.600579 3.15664 0.150502 -1.14847 -0.67178 -0.181482 
7 1 3.75365 4.26891 2.25823 0.153957 -0.760102 -0.438155 
8 1 8.30032 2.38316 5.65866 0.85682 0.374172 0.763064 
9 1 8.87071 6.37003 7.17352 0.280554 -0.217414 -0.661631 
10 1 0.742526 4.80074 0.420081 1.27213 -1.27042 0.282362 
11 1 7.65948 1.64888 0.828662 -0.273792 1.35121 -0.789124 
12 1 4.09686 3.16335 3.55488 0.744685 1.33638 -0.109601 
13 1 2.67293 4.58659 4.38974 0.0457872 -0.421625 -0.72089 
14 1 1.51202 3.05441 0.411715 0.241556 -0.653188 -0.186852 
15 1 6.6364 4.13172 3.28514 -0.964451 0.905003 -0.275812 
16 1 7.71136 0.929016 2.93335 0.55962 1.5291 0.727956 
17 1 3.07379 0.376502 7.59751 0.311307 0.00366799 0.338562 
18 1 7.41152 1.01528 1.59755 -0.440897 -0.219637 -0.437373 
19 1 1.76945 5.72539 8.10162 0.746121 -0.277768 -1.00929 
20 1 0.205954 8.87627 0.921495 -1.35113 -0.303255 -1.64363 
21 1 8.11886 6.19293 6.55471 0.550506 -0.353914 0.0179128 
22 1 7.16556 8.84414 4.38977 1.08757 -0.766272 -0.644877 
23 1 8.83112 4.164 1.49828 -0.537594 -1.1089 0.842102 
24 1 0.525741 9.23088 4.98705 -0.352038 1.84827 -1.73792 
25 1 6.90281 4.41282 4.27201 1.66505 0.0991453 0.231702 
26 1 8.93391 8.50755 3.90595 0.217772 -0.643517 1.39231 
27 1 5.73237 4.40705 0.0253199 -0.0266679 -0.373748 -2.18045 
28 1 6.68075 3.43013 7.34994 -0.38763 -0.813898 -0.702429 
29 1 1.23819 0.376828 5.35355 0.87029 -0.650964 -0.211132 
30 1 7.37975 6.32259 0.417967 -0.150235 1.31309 0.351479 
31 1 3.97803 7.68126 5.292 0.21411 -1.01787 0.433168 
32 1 3.29527 6.78337 6.46551 -0.427501 0.24893 -0.212343 
33 1 5.66315 1.93222 5.2487 0.456312 -0.316212 -1.11285 
34 1 3.86806 6.85095 4.71485 -1.49267 0.897729 -0.502418 
35 1 0.66186 1.29624 3.73179 0.84864 -1.00582 -1.19755 
36 1 8.15634 4.0461 5.87007 0.725334 1.15372 -1.25567 
37 1 4.52475 1.87799 2.21601 -0.343853 0.370882 0.652156 
38 1 1.4614 7.01609 3.65116 -0.68143 0.506339 1.67633 
39 1 1.24359 8.04443 4.55783 -0.237175 -1.46308 0.930581 
40 1 8.61009 3.94585 3.46334 0.331001 -0.14433 0.100167 
41 1 0.395981 4.33349 5.67828 -1.07992 0.581636 -0.259383 
42 1 9.27473 6.10551 3.2195 0.537472 0.600342 0.572416 
43 1 8.37269 7.60704 0.0435145 -0.443913 0.200807 0.545839 
44 1 6.8942 3.06281 0.173641 -0.602463 0.431011 1.08643 
45 1 8.37965 3.05676 0.929226 -0.054327 1.0316 -1.01354 
46 1 3.33747 6.06287 8.87946 0.162885 -0.770589 -0.894254 
47 1 3.30954 3.3746 2.32905 0.754387 -0.00487852 -0.737873 
48 1 2.83453 5.59312 5.85358 0.696321 2.05195 -0.558711 
49 1 6.90211 6.35633 5.65588 0.130106 0.0311149 -0.852953 
50 1 3.24446 5.40098 6.90428 -0.237009 -0.529579 0.00851059 
51 1 6.67544 4.85002 0.664916 -0.240802 -1.30859 0.720279 
52 1 5.9633 5.13958 5.46056 -0.870473 -0.26496 1.2133 
53 1 6.22861 8.57115 4.29744 0.801017 0.806961 0.253106 
54 1 7.83062 4.33751 9.1928 1.51978 -0.511638 0.308152 
55 1 8.75095 8.59815 6.47727 0.278972 0.616218 -0.255595 
56 1 8.91287 8.91466 7.40444 -0.981257 -2.0646 0.43301 
57 1 2.9439 1.51743 6.46087 -1.05045 0.602111 0.60886 
58 1 5.04717 5.06636 0.152977 1.25972 -0.554466 -0.616028 
59 1 0.871487 5.78215 3.26559 -0.0638437 0.508056 0.373713 
60 1 8.11148 1.71348 5.03369 2.03687 0.835397 1.0624 
61 1 2.00695 1.59221 6.53127 0.0232344 0.666301 1.06448 
62 1 5.88579 3.4129 6.76944 0.00135156 0.346772 -0.861672 
63 1 3.02577 6.75504 7.41747 -0.927627 0.56907 -1.55706 
64 1 4.46368 3.3146 0.358316 0.0741327 -0.166988 -0.303922 
65 1 0.806507 2.46966 0.782714 -0.157368 1.01217 -0.0746912 
66 1 2.47147 4.14159 0.82935 -0.628134 1.71191 1.24832 
67 1 2.98924 6.15336 0.890845 -0.284839 -1.18558 0.438044 
68 1 3.37388 7.63679 7.80453 0.235566 -0.408337 -0.596532 
69 1 9.28142 3.30453 8.99413 0.334922 0.0179786 -0.0966443 
70 1 2.27131 4.91298 2.63543 1.6185 -0.890891 -0.364064 
71 1 5.70784 4.9492 0.832521 0.175881 -0.191718 0.545638 
72 1 4.75856 5.53677 4.35775 -0.618664 -1.29369 0.805171 
73 1 8.44037 3.21823 4.07492 0.0847822 0.387058 -0.561904 
74 1 3.26669 7.10657 5.54758 0.84588 -1.20962 0.0547619 
75 1 0.0889622 1.27713 2.94392 -0.221328 0.954714 -2.16193 
76 1 1.87207 0.59211 7.84277 -0.817355 -1.22639 0.768253 
77 1 3.3822 5.85561 1.72928 0.604252 -0.804064 0.0279036 
78 1 8.7207 5.68364 5.4839 -0.495327 1.66822 1.11872 
79 1 6.42393 6.0079 0.4809 -0.350101 0.135236 0.46011 
80 1 6.63713 2.96549 8.62228 -0.180764 1.00976 0.562868 
81 1 3.0465 2.57213 4.13984 -0.699223 -0.0925867 0.130209 
82 1 7.15586 3.91582 5.87069 0.100926 0.464045 0.906086 
83 1 0.396167 1.08006 2.07294 0.0315904 -1.03331 -0.937007 
84 1 5.63352 2.54331 3.66113 -0.511245 0.0662659 0.850474 
85 1 3.0088 2.34764 9.1466 -0.937203 0.214378 -1.13856 
86 1 2.67382 4.63691 5.38724 -0.0440973 -0.563687 0.892023 
87 1 4.47801 2.2412 4.79274 0.166218 -0.502933 -1.53216 
88 1 0.83329 4.65775 8.85347 -0.392734 0.804472 0.0769754 
89 1 1.21537 5.64674 1.131 0.229735 0.855474 0.169794 
90 1 0.338147 8.55609 6.73349 1.0369 0.333675 -0.282858 
91 1 3.17946 6.35438 2.54281 0.768392 0.708512 -0.131062 
92 1 5.91648 3.90346 2.6435 0.643315 1.44857 -0.470501 
93 1 9.02307 2.87849 2.4776 -0.881755 -0.524511 0.184815 
94 1 6.20629 3.68925 5.85041 -0.172832 0.747197 0.651179 
95 1 3.21607 2.86532 5.05152 0.0775782 2.03888 -0.847317 
96 1 4.84945 0.840663 4.9443 -0.880932 0.175428 0.849479 
97 1 4.69954 6.42366 0.311714 0.265347 -0.858814 0.235988 
98 1 8.53271 1.67112 6.26049 1.17713 -0.884206 0.848492 
99 1 6.32386 5.11102 4.59621 -0.444048 -0.87504 0.899915 
100 1 7.54311 2.83545 8.89137 1.68412 -0.298733 0.0824003 
101 1 3.1853 7.65027 6.83229 0.192085 0.37228 -1.76624 
102 1 5.0055 6.33958 1.87074 1.73494 1.15078 -0.564244 
103 1 3.89733 1.53257 6.03904 -0.126536 1.19017 0.371283 
104 1 5.26714 1.35463 2.65121 -0.312325 0.0209427 -0.331933 
105 1 2.03922 1.652 8.13814 0.232163 -0.353969 0.1963 
106 1 0.877927 2.71473 4.61499 -0.314442 0.204338 -0.336984 
107 1 8.7031 0.623436 2.86316 0.0627516 0.146244 -0.855798 
108 1 5.1474 0.443629 6.38364 0.0422017 -0.172421 -1.80511 
109 1 0.0355367 7.09319 2.66781 -2.31459 -0.456946 0.771 
110 1 6.19461 3.23667 3.31618 0.663201 -1.15612 -0.579247 
111 1 9.09635 8.24025 1.49582 -0.764907 2.12214 -0.191121 
112 1 1.31715 6.56684 2.82843 1.35972 -0.305096 0.105389 
113 1 2.52193 5.52514 7.52574 0.0454303 -0.864038 -0.689625 
114 1 8.59007 7.57997 2.88765 1.2979 0.139441 0.437755 
115 1 7.91098 7.49509 1.5072 0.424701 0.41209 0.53957 
116 1 6.11159 2.08901 0.424942 -0.49329 -0.138854 -0.369221 
117 1 7.97244 3.78119 1.47063 0.585557 0.854896 -0.699586 
118 1 2.40321 5.56894 0.42593 0.958351 -0.750649 0.611858 
119 1 5.82503 4.51945 6.16321 -0.239469 0.752328 0.84856 
120 1 9.37219 2.39168 7.3583 -0.354028 1.33839 -0.164373 
121 1 9.25165 7.75559 6.47618 -0.209741 -0.36627 -0.0330418 
122 1 6.3336 2.62746 7.7626 -0.821064 0.219584 -0.591148 
123 1 4.13873 8.60028 5.69648 1.48346 0.308828 -0.220455 
124 1 0.573673 7.37557 7.90013 0.0301452 1.32934 0.383244 
125 1 2.62079 2.14852 4.86663 -0.53016 -1.20179 -0.679413 
126 1 3.50014 0.865842 4.26809 -0.110236 -0.109496 0.360023 
127 1 0.441221 0.270011 5.89889 -0.727832 0.450224 1.11233 
128 1 8.36819 7.02981 4.25233 0.928997 -0.0653894 0.137622 
129 1 0.302056 1.65724 4.57886 -1.06398 -1.6363 -1.82577 
130 1 0.744143 3.12509 3.68908 0.39617 0.281113 0.152418 
131 1 9.25788 1.48936 1.39192 -0.162123 1.21953 0.66438 
132 1 0.821009 4.99195 7.16167 -0.477802 -0.586813 -0.0332166 
133 1 9.12578 7.63291 4.22787 0.710923 -0.418995 -0.174363 
134 1 9.22152 7.25614 7.31522 0.37836 0.0765849 -1.11673 
135 1 8.19256 5.26483 6.14203 0.836894 1.10464 0.281115 
136 1 0.827501 9.38007 6.86666 0.0324433 0.575046 -1.57196 
137 1 2.91391 2.57428 0.660776 0.514292 -0.717068 0.0612401 
138 1 2.6402 6.1302 6.76658 -0.756896 -1.34882 -0.525361 
139 1 4.01887 0.779299 6.65658 -0.437967 -0.527846 -0.473822 
140 1 0.142785 0.32444 2.58817 0.114141 1.36412 -0.250283 
141 1 1.16388 4.1923 5.09917 0.342084 0.655444 -0.560338 
142 1 8.64168 3.21544 5.92918 -0.533119 1.09547 -0.504487 
143 1 8.35832 0.802302 3.72824 -1.24024 -1.4065 -0.209416 
144 1 0.275188 0.678446 4.45039 -1.08553 0.585325 1.47647 
145 1 1.80262 7.41456 2.85551 1.30084 0.460747 -0.438029 
146 1 7.30873 6.26 4.7967 1.53156 0.902884 0.566955 
147 1 3.87794 2.81139 0.931666 1.22991 -0.729879 1.48778 
148 1 4.16329 7.1767 0.722178 0.134712 0.497204 -0.452282 
149 1 6.26225 1.4671 5.94377 -0.417788 0.317911 -0.0241868 
150 1 7.90571 1.98758 8.75077 0.895311 -1.73544 -0.213796 
151 1 8.78318 5.72543 2.46967 0.731336 -0.950464 -0.841777 
152 1 6.54567 3.83241 8.24191 0.980782 0.127439 0.712895 
153 1 7.68757 3.79844 3.9688 -0.529147 0.825538 -1.40601 
154 1 4.95811 4.17131 2.75458 0.883627 0.58631 -1.39383 
155 1 6.77015 8.76503 3.52309 -0.202352 -0.0157618 -1.69472 
156 1 2.92174 5.16358 1.15395 -0.174577 0.279233 -1.38177 
157 1 0.44096 6.54517 7.42409 -1.18044 1.4647 0.180658 
158 1 7.22207 4.257 7.37675 0.368266 0.566455 -0.668587 
159 1 5.98422 4.29497 4.19874 -1.23121 -0.652925 -1.21404 
160 1 8.53088 7.10708 6.64832 -0.0676452 1.09483 -0.25465 
161 1 2.39772 2.81838 5.52711 0.150467 -0.915126 -0.796974 
162 1 8.36233 9.15703 0.457326 1.63718 0.0494786 -0.990118 
163 1 3.71515 1.48155 8.10868 -0.127428 -0.588257 -0.751453 
164 1 3.05355 0.320806 4.91301 0.485979 0.542717 -0.41292 
165 1 1.02247 5.92351 5.74147 -0.266132 0.197356 0.0102018 
166 1 3.61887 4.4668 3.89813 -0.47913 0.892866 0.924813 
167 1 9.29015 3.14048 6.73127 0.207166 0.275928 -0.300492 
168 1 3.64858 3.75003 6.5487 0.496796 1.08286 1.48719 
169 1 9.11234 2.74364 8.24511 0.523989 -1.26384 0.308189 
170 1 9.13272 3.0609 3.4014 -1.0157 0.396985 -0.0025383 
171 1 2.21786 5.54987 4.32921 0.544068 0.235908 -0.442156 
172 1 6.15527 4.65682 8.48195 0.785178 0.616393 0.130515 
173 1 2.74196 5.28931 8.64832 -0.413824 -0.360956 0.623002 
174 1 7.89267 5.09762 0.383208 0.646018 0.0379665 -1.21096 
175 1 8.59283 6.63239 2.74556 0.835958 0.102158 0.527316 
176 1 9.2902 4.52433 8.64379 0.676337 0.7315 -1.91549 
177 1 1.17138 9.08386 1.00095 -0.687956 -0.643417 0.606523 
178 1 8.87505 2.13691 4.51571 1.72401 -0.606155 0.199573 
179 1 3.25449 3.48389 3.95989 0.753584 -0.321691 0.895837 
180 1 6.76423 4.16703 2.28186 0.532128 -0.594058 0.94347 
181 1 4.72319 4.03177 5.34053 -0.599948 0.373833 0.339957 
182 1 9.37741 1.72334 6.67867 0.139979 0.322859 0.641984 
183 1 6.96875 7.38987 1.28156 -0.270416 -1.32648 -1.23675 
184 1 0.790093 1.31411 1.2458 -0.70713 0.40158 -0.159319 
185 1 4.78141 7.8265 1.14606 -0.746985 -0.0974027 -0.256729 
186 1 0.100839 2.04717 2.18886 1.08033 0.46513 -0.571103 
187 1 7.40209 7.11135 4.25098 0.871721 -0.450109 0.0287467 
188 1 1.51333 7.44714 7.719 -0.0818091 -0.607919 -1.52724 
189 1 5.00558 2.58558 5.56671 1.07885 -1.21646 0.12079 
190 1 4.9428 3.46352 7.10412 0.980334 -0.552583 0.291401 
191 1 5.50892 3.53015 0.387021 -0.891554 -0.076304 0.553559 
192 1 0.162494 5.56178 1.895 0.316372 0.0672116 -0.521385 
193 1 4.6601 1.8026 0.492461 -0.119971 -0.0488536 1.41242 
194 1 3.91533 1.17433 5.11375 1.34356 -0.505438 0.277058 
195 1 8.99291 5.81213 6.37489 0.434028 0.132046 -0.417893 
196 1 4.45069 0.745893 5.79021 0.32554 -0.295385 0.0944242 
197 1 6.97745 1.64574 2.65107 -0.475116 0.531685 1.4846 
198 1 3.38939 8.97567 6.25645 0.745117 1.31342 0.887547 
199 1 0.922752 5.77452 7.67442 -0.524682 0.703781 1.42195 
200 1 4.78667 4.8747 7.18624 -1.29567 -0.327554 -0.897686 
201 1 6.6614 4.47083 5.19687 1.18461 0.277386 0.222042 
202 1 8.6113 1.94819 0.0110781 0.968213 -0.373992 -1.54002 
203 1 3.85082 3.47611 1.60287 1.50539 -0.698219 0.587667 
204 1 3.42681 1.47922 9.00987 0.935742 -1.22727 -0.626421 
205 1 0.16932 5.30823 9.16096 -0.665585 0.0785129 -0.774069 
206 1 4.29013 6.36391 1.17796 0.033709 0.45576 -0.109363 
207 1 7.55621 2.74605 3.78764 0.0240407 -0.895782 0.581582 
208 1 9.13491 1.23078 9.12968 0.284371 -0.238251 -1.24493 
209 1 8.83147 1.35474 2.2624 -0.506022 0.37483 0.0611497 
210 1 0.684083 8.45248 3.54187 2.14383 0.503876 0.195623 
211 1 9.00438 5.24662 3.62058 0.443203 0.0164164 0.33445 
212 1 7.26131 0.285061 4.89411 0.66746 0.0981205 0.411803 
213 1 0.363314 4.35495 7.73351 0.980934 0.0536773 0.322432 
214 1 4.10309 4.01835 0.90584 0.240166 -0.102666 -0.216969 
215 1 0.930353 2.70762 5.67418 -0.566321 -0.69601 -0.659668 
216 1 8.01602 9.37164 2.7923 -1.30721 -0.446523 -0.280748 
217 1 3.44259 6.85666 3.8084 1.28026 -0.652231 -0.700039 
218 1 4.20434 4.61263 8.03927 -1.63918 -0.756453 -0.613026 
219 1 6.44909 5.86429 4.03603 -2.55716 1.56516 1.26532 
220 1 5.84597 3.28938 4.22801 0.625801 0.272858 0.660908 
221 1 6.36018 5.70344 6.12463 -2.31876 0.111526 0.761512 
222 1 3.11762 8.57136 7.17211 1.38434 -0.084699 -0.171883 
223 1 5.21043 2.83335 6.46886 0.109981 1.13245 0.648985 
224 1 7.7188 7.75977 7.54753 1.2481 -0.159297 0.0759667 
225 1 1.1665 3.83656 9.19536 1.01053 0.35858 0.0245099 
226 1 8.35217 4.44892 8.35293 -0.50001 -0.00687707 0.496363 
227 1 6.191 2.12584 8.68939 0.10594 1.26443 -0.0204914 
228 1 3.69573 7.73792 1.34262 0.661423 -1.19837 -0.526312 
229 1 4.66754 0.0801898 7.16161 0.0958013 -0.193929 -0.988624 
230 1 1.85083 4.9216 4.96291 0.530431 -1.27885 1.48233 
231 1 0.450964 1.80997 5.86416 -0.606198 0.780365 0.252046 
232 1 4.81217 3.25435 8.03453 0.390998 -0.936239 -0.100029 
233 1 6.55272 2.59303 4.00316 -0.779208 -0.0516021 0.313759 
234 1 3.20449 4.89481 3.04398 -0.669569 -0.271164 0.616709 
235 1 1.24058 7.36764 8.64136 -0.499703 0.104994 0.3724 
236 1 0.947361 0.834478 2.91591 -0.228739 0.127781 -1.32897 
237 1 7.39072 5.62264 3.43937 0.0801283 -0.0912359 -0.712787 
238 1 6.27812 6.00581 7.01848 -0.426023 0.0240404 0.0859625 
239 1 1.5104 3.0562 8.84618 -0.54273 -0.630564 -1.22474 
240 1 8.76198 3.01509 5.00691 0.000866092 -1.53293 -0.116839 
241 1 1.82637 0.256378 6.93896 -1.44984 0.248085 1.06353 
242 1 0.352724 5.21711 8.18963 -1.42079 -0.674964 1.32233 
243 1 0.0440812 2.30875 9.05083 0.560743 1.50599 0.581116 
244 1 9.06578 1.45606 7.55953 0.382943 1.5698 0.255515 
245 1 3.90576 2.85505 4.40837 0.0774576 2.30205 0.448167 
246 1 4.81255 6.53446 4.78642 -1.04222 -0.496075 -0.391362 
247 1 3.56682 2.00573 4.76135 0.873093 0.69643 0.166266 
248 1 2.62147 6.41934 0.0234652 0.941145 -0.688789 -0.141252 
249 1 5.72488 2.89882 2.53602 -0.339635 1.6918 0.00643986 
250 1 1.01217 2.3609 9.25993 1.17435 0.860189 0.809211 
251 1 4.13763 3.18417 8.7389 -0.260844 -0.673868 -0.253598 
252 1 3.85695 3.51949 5.30015 -0.466754 -0.635466 0.401514 
253 1 1.46901 4.4552 2.23591 -1.05523 2.86812 0.297757 
254 1 3.12961 3.78336 7.54556 0.278681 -0.332306 1.44748 
255 1 0.643644 9.02805 8.69717 -1.65217 0.320125 0.545026 
256 1 1.72261 5.87741 7.15921 1.3485 -1.10097 0.374501 
257 1 2.95842 7.87885 5.09277 0.649539 -0.605148 -0.47294 
258 1 2.43038 2.91501 3.55632 0.943439 0.116965 0.598097 
259 1 1.99848 0.197562 0.0194092 0.227671 0.178109 -0.232726 
260 1 7.17514 4.80234 2.83614 -0.0268426 0.389064 -0.0535143 
261 1 3.55974 3.042 0.0646552 -0.776792 0.958391 1.33026 
262 1 2.03793 2.20748 0.199672 -0.3531 1.4158 -0.0933243 
263 1 5.26397 3.58214 2.05682 -0.0872085 1.5905 -0.335552 
264 1 1.71152 5.66741 2.74288 0.0907882 1.47156 -0.562353 
265 1 6.83161 1.59777 6.73073 -0.41428 0.11377 1.02893 
266 1 1.54668 1.63183 7.36676 0.357756 -0.742772 0.223356 
267 1 0.371632 3.28494 1.07818 -0.508134 -0.270511 0.486062 
268 1 1.9883 0.856426 8.71535 1.06465 0.193356 -0.122294 
269 1 8.98207 3.72334 8.19249 1.77812 -1.61007 0.358718 
270 1 2.77546 7.45458 1.46051 0.678503 0.0677732 1.43954 
271 1 9.04704 7.62965 8.23174 0.447392 1.43623 0.621609 
272 1 5.58774 0.24128 5.38545 0.00450104 0.524513 0.921144 
273 1 8.56182 7.56876 5.7855 -0.755014 -0.662702 0.337799 
274 1 1.24594 7.52444 5.38804 0.980848 -0.344152 0.952314 
275 1 7.89864 5.37247 1.62875 -0.843343 0.79435 -1.84522 
276 1 2.70122 3.83987 6.61746 -0.383172 -0.983292 1.16768 
277 1 5.78706 6.67134 7.51068 -0.69792 -0.378302 0.493017 
278 1 8.60306 7.9357 7.17773 0.298367 -0.315668 0.0732632 
279 1 5.43393 5.75979 7.44461 -0.748598 -0.34582 1.74173 
280 1 6.93541 5.42384 5.26759 0.217323 -1.42514 1.3435 
281 1 7.31866 3.83422 4.92217 -0.920634 -0.642898 0.271423 
282 1 5.32002 7.38265 1.89129 -0.164891 -0.696881 -0.579941 
283 1 7.40323 2.56514 2.36723 0.126558 -0.0241326 -1.04741 
284 1 1.71161 2.3407 1.09031 -0.0562558 -1.83487 0.196829 
285 1 2.65409 7.26133 2.4282 0.131435 -0.0203855 0.586294 
286 1 2.79609 2.82612 7.77659 0.218016 -0.260044 -0.879789 
287 1 4.79686 5.3757 8.08017 -0.125379 -0.455318 0.115401 
288 1 0.491153 0.379408 1.26209 -0.213081 0.53553 0.0781249 
289 1 7.73083 8.71127 3.58082 0.0763464 0.816557 -0.697355 
290 1 6.12055 1.75003 7.38743 0.70451 1.19109 -0.368602 
291 1 0.616501 2.883 8.52572 -0.589135 0.101955 -0.0786815 
292 1 4.50379 4.14702 6.64457 -0.0723643 -0.66659 0.953961 
293 1 7.34667 0.129358 6.62385 -0.359884 1.75713 -1.05561 
294 1 0.956089 0.193512 2.10378 0.40622 -0.281753 -0.425123 
295 1 0.316786 3.3048 7.6314 0.0408125 0.498288 0.491025 
296 1 0.382069 2.21827 3.78325 0.611718 -0.104428 0.848964 
297 1 6.61264 3.24815 2.46692 -0.319092 0.162185 -0.299255 
298 1 1.97597 6.54145 4.38515 -0.449966 -0.277825 -0.354508 
299 1 0.697509 6.75106 0.594365 -1.21814 0.390039 -0.313414 
300 1 7.43632 3.61447 6.73294 0.315498 -0.606872 0.2747 
301 1 7.745 4.49228 2.10705 -0.458027 -1.09453 -0.0164224 
302 1 2.03438 8.12561 5.09765 0.205698 -0.00500648 -0.735216 
303 1 0.907439 6.83833 6.07683 0.0050279 -0.367405 0.28473 
304 1 3.52218 1.31322 3.39897 0.530694 0.494798 -0.86367 
305 1 8.20512 8.19151 2.14854 1.08235 1.08877 -0.794541 
306 1 8.25627 2.33975 2.72339 -0.16928 -0.575271 0.337804 
307 1 2.19709 2.45387 8.64424 -0.25862 0.361117 -1.77303 
308 1 7.20045 5.59111 1.01153 0.961492 -1.28728 -0.91185 
309 1 6.62336 6.44334 1.29849 0.736372 0.8168 -0.864972 
310 1 1.67646 6.24374 0.38816 -0.440172 1.28612 -0.353375 
311 1 9.3984 2.9119 4.30263 0.549154 -0.916141 -1.34242 
312 1 1.55437 3.27779 5.2344 0.806626 -0.121588 0.848192 
313 1 8.45217 8.54495 5.5085 0.715112 0.513972 -0.31921 
314 1 6.5203 9.29751 2.76517 0.0710866 0.856974 -0.394152 
315 1 5.82708 4.65852 3.21119 -0.960254 -0.507819 1.43083 
316 1 4.52465 3.98232 3.57697 -0.299448 -1.8233 -0.0147817 
317 1 9.09116 4.68641 0.361933 0.794356 -1.64047 -1.12889 
318 1 2.41979 7.02814 3.50944 -0.487322 0.316727 -0.191602 
319 1 3.51594 2.21387 7.49148 -0.839347 0.426946 -0.268372 
320 1 0.772241 8.36347 1.5104 0.152446 0.944899 0.930886 
321 1 7.56135 6.5963 1.32312 -0.977822 -0.358153 -0.263593 
322 1 1.24203 4.91554 8.01162 0.525377 0.877327 0.611838 
323 1 2.01096 5.79863 9.00069 0.265926 -0.840981 0.947486 
324 1 1.82424 7.56302 1.31303 -2.31068 -0.847777 0.11744 
325 1 9.21898 0.119706 8.24858 -0.221149 0.232741 -0.839977 
326 1 7.5697 4.7136 3.6916 0.47471 0.13366 0.866783 
327 1 8.13557 1.63591 4.09696 0.0938009 -0.261037 -1.26294 
328 1 8.77545 7.39907 1.96037 -0.0369189 1.05152 0.0322441 
329 1 1.1306 1.0432 4.62933 -0.0546993 0.227731 0.252388 
330 1 0.850699 6.94126 2.08391 0.290342 0.0645021 1.40418 
331 1 0.0115664 2.42521 1.31066 0.371194 -0.416069 -0.305027 
332 1 3.94333 7.10254 7.22666 0.557993 0.078228 0.115599 
333 1 2.09096 7.51774 4.30099 0.094418 0.124233 0.928665 
334 1 5.92546 6.20493 9.00774 -0.792051 0.577294 -1.8865 
335 1 6.23354 2.2105 1.3721 -0.428701 -0.436626 0.280051 
336 1 8.72133 3.0935 7.47978 -0.972317 0.419804 1.09164 
337 1 0.705854 5.82151 0.362263 -1.54409 0.222194 -0.373746 
338 1 0.451541 7.47394 4.85003 0.433056 -0.970617 0.22541 
339 1 0.613565 2.48368 6.57189 0.202308 -0.343607 0.0918176 
340 1 7.92273 9.10359 1.86041 -0.102646 0.288326 -0.204584 
341 1 3.59065 3.85849 3.12229 0.0924207 -2.10443 -0.3965 
342 1 6.69608 5.44145 8.59419 -1.05012 -1.57276 -0.0538327 
343 1 6.826 2.49548 3.1182 0.597584 -0.691462 -0.393764 
344 1 9.15605 6.70689 8.07551 -0.221894 -0.856233 -0.168401 
345 1 1.06551 1.58862 6.53231 0.0883033 0.611712 0.477121 
346 1 3.14374 3.91091 5.7528 -0.139954 0.816798 -0.300563 
347 1 2.65102 6.55518 1.75381 0.923043 -0.893236 -0.795008 
348 1 3.67491 3.90934 8.36458 0.986001 -0.789891 0.598565 
349 1 7.82024 0.101496 4.11219 0.582682 0.610202 0.610403 
350 1 3.72861 9.32225 7.07619 0.566455 0.35102 -0.957657 
351 1 5.76038 7.19523 2.82414 -0.855375 0.556435 -0.358799 
352 1 6.87786 9.36303 5.75666 1.31027 -1.04935 0.776518 
353 1 1.18427 0.736523 9.18715 -0.164223 -0.43226 0.860159 
354 1 7.9521 7.9069 6.48376 -0.632899 -0.623843 0.815708 
355 1 9.05293 4.88822 5.94576 0.220969 -1.68503 -0.151832 
356 1 8.82172 5.61685 0.340991 -1.23448 0.213437 1.13006 
357 1 0.575042 8.04129 8.57979 -1.64709 -0.0255282 -0.00974303 
358 1 1.6397 3.53714 2.22234 -0.332235 0.172791 -0.500811 
359 1 2.35087 3.08718 4.57293 -0.20322 1.32383 0.763981 
360 1 0.552993 3.81137 8.46942 -0.182779 0.414332 1.79789 
361 1 5.43009 4.53804 2.00745 -0.614066 0.0522375 0.164586 
362 1 3.76421 2.21453 3.65636 -1.61624 -0.243095 -0.469653 
363 1 3.69056 2.03556 0.366377 0.70369 0.648061 -0.289166 
364 1 7.3331 8.74201 2.66265 0.902451 0.232857 -1.01851 
365 1 0.152016 0.52527 7.45145 0.162625 0.592061 0.525078 
366 1 1.77169 1.91678 2.03401 -0.226398 0.741874 -0.84342 
367 1 4.81262 2.78368 2.15761 0.849409 -0.366552 1.65092 
368 1 7.18556 7.90729 3.73381 -0.382971 -0.535122 -0.756504 
369 1 0.982556 8.24025 7.44495 -1.02932 -0.827741 -0.118627 
370 1 7.59924 5.11364 8.76135 1.36355 -0.38951 0.0689817 
371 1 3.74907 3.04318 7.86825 1.20833 -1.33689 -0.110861 
372 1 1.55617 7.20873 0.405849 -0.927284 -0.184202 -0.367079 
373 1 3.65967 5.95196 6.17769 -1.32088 0.827369 -0.760049 
374 1 2.53564 8.54995 5.83902 0.0828384 0.250583 0.489327 
375 1 8.76966 1.18579 0.626947 0.341105 0.915678 -0.36554 
376 1 8.48063 8.46269 8.99487 -0.615752 1.38039 0.768543 
377 1 6.41231 7.3266 3.58397 -0.972905 0.0208196 -0.478043 
378 1 6.14803 3.56503 1.69119 -0.0940168 0.563269 0.175845 
379 1 4.33831 4.79453 8.98344 1.30845 -0.505461 1.01846 
380 1 9.15076 2.75768 0.433385 -0.935678 -0.377904 -0.132543 
381 1 1.56257 1.64169 8.98656 -0.80249 0.181753 0.146699 
382 1 5.89699 6.98158 8.42869 0.185931 0.653139 0.667768 
383 1 5.01501 7.41992 0.287065 -0.627415 0.0403049 0.208863 
384 1 4.64518 3.17422 4.92369 -0.0407282 0.466057 1.01792 
385 1 5.87286 5.12026 6.88813 -0.596108 0.270083 1.71196 
386 1 4.97548 3.20187 3.05235 -0.948075 -0.594126 0.189156 
387 1 0.742921 7.55665 0.055216 -1.8691 0.0652464 0.582426 
388 1 6.24654 2.67212 4.9077 -0.194983 -0.609314 -0.310276 
389 1 2.35519 7.82765 0.588742 0.371062 -1.38393 -0.370201 
390 1 9.15789 6.4881 1.97785 -0.554549 -0.220934 -0.45595 
391 1 7.8394 3.19102 5.38991 -0.0874482 -0.257375 -0.826237 
392 1 7.76181 6.81909 9.07212 -0.129938 -1.13327 0.253162 
393 1 4.38771 7.15779 1.69529 -0.951946 -0.24609 -0.270171 
394 1 4.94708 4.8586 3.46432 -0.461309 0.202692 0.887682 
395 1 4.04216 0.722485 7.61506 0.257433 2.20921 -0.627942 
396 1 6.44916 2.35542 2.2573 0.156002 -1.15456 0.938273 
397 1 0.565655 6.29032 1.44756 -1.47868 -0.618979 -0.375469 
398 1 2.56347 0.142221 8.43405 0.314934 0.312732 -0.406741 
399 1 6.22253 3.01525 0.848086 -1.04181 -0.811663 1.00489 
400 1 8.62056 4.89204 2.07795 -0.0882892 0.206585 0.299127 
401 1 8.67152 6.60982 5.81867 -0.138841 0.986131 0.607314 
402 1 2.44394 3.28193 2.69063 -0.908236 1.19197 -0.350855 
403 1 5.48047 2.0197 8.04333 0.518072 0.138065 -0.0129357 
404 1 3.9554 8.33804 6.68814 0.60492 -0.559794 -0.162096 
405 1 3.54639 2.25659 6.54219 0.236695 -0.753638 -0.465943 
406 1 3.764 2.33583 8.55468 0.490601 0.0899216 -1.19281 
407 1 8.63042 2.20078 1.8567 -0.339868 0.570402 -0.29063 
408 1 2.98269 3.76323 4.82763 -0.795826 -0.298474 -1.18121 
409 1 3.90219 4.82444 1.45398 -0.496742 0.295514 -0.0710636 
410 1 6.60743 1.8133 5.12942 -0.445313 0.431985 -0.144688 
411 1 0.662113 8.44492 2.54444 -2.51907 0.560478 0.813461 
412 1 0.199968 9.03112 1.8846 -0.761928 -1.5625 0.345037 
413 1 2.11128 1.98771 3.81629 -0.372681 0.862719 -1.10397 
414 1 3.62384 4.42906 4.98161 -0.953661 0.583584 -0.942062 
415 1 8.12805 5.39202 4.05893 -0.843817 -1.26566 -0.968844 
416 1 2.33005 5.25977 6.56262 -0.39994 -0.319099 1.79612 
417 1 7.42302 4.2969 8.2859 -0.334899 -0.252404 -0.21317 
418 1 1.03981 6.52118 9.10647 -0.269848 -0.876106 1.34912 
419 1 8.47041 6.58462 0.318011 1.33912 -0.256632 0.81007 
420 1 6.02104 5.65351 3.16039 0.865265 -0.0573921 0.448563 
421 1 1.42555 8.85998 5.17335 -1.41342 0.343913 -0.595898 
422 1 1.36086 8.88264 9.36514 0.129617 -1.70568 0.222613 
423 1 1.01772 3.8519 0.735427 0.222937 -0.429616 -0.0909919 
424 1 0.466352 2.96304 1.97899 -0.877593 -0.942557 0.0378464 
425 1 0.835025 6.09728 6.67827 0.0177506 -0.208704 -1.00409 
426 1 4.15273 5.37469 3.62908 -0.252854 0.290445 0.55589 
427 1 8.67346 7.58038 0.950733 -0.207705 1.26994 0.831592 
428 1 2.25031 6.46012 2.73423 0.21679 -0.128789 -0.709442 
429 1 0.915188 2.45803 7.49378 1.40545 0.0371365 -0.363149 
430 1 5.36229 1.60635 3.59615 0.940083 0.431512 1.51998 
431 1 6.79101 2.25387 6.03815 -0.107157 -0.981095 2.20268 
432 1 7.304 5.52313 6.12061 -0.939319 -1.49924 0.289966 
433 1 2.11865 2.78335 1.88212 -0.275945 -0.00924024 -0.146433 
434 1 6.3844 9.27943 4.92331 -1.3669 0.904789 -0.216591 
435 1 1.59457 3.17996 3.15723 0.796709 0.297811 1.16258 
436 1 8.78485 9.16768 2.32609 0.631642 -0.0543072 -0.475004 
437 1 7.80072 2.43194 1.38932 -0.656297 -0.662235 0.240339 
438 1 5.51142 2.07747 2.06098 -1.00917 -0.549594 -0.879167 
439 1 0.798241 3.8791 1.78092 0.605953 0.515158 1.00221 
440 1 5.22237 4.74484 8.66237 -0.56195 0.146476 1.10109 
441 1 2.89956 6.82217 4.62905 0.749187 0.50524 -1.26659 
442 1 6.5896 8.55832 2.07278 -1.16977 0.655881 -0.132083 
443 1 1.88835 4.63945 5.96297 -0.306392 -1.92256 2.06207 
444 1 3.10045 3.15835 8.61821 0.100801 0.297858 0.53995 
445 1 0.461958 3.90111 6.84382 0.256599 1.05911 -0.00665193 
446 1 8.44309 2.15601 7.52221 -0.194224 -0.626584 0.822459 
447 1 8.27867 6.4244 8.36421 0.490101 0.225968 -0.163704 
448 1 0.130285 7.23533 5.72021 -0.321142 0.450228 0.162697 
449 1 4.42287 6.12227 2.97197 0.740286 0.0990986 1.34181 
450 1 7.20515 3.69242 8.94745 0.0443779 0.317356 -1.03988 
451 1 0.337111 8.33727 4.43592 0.149327 -1.34818 -0.0605317 
452 1 2.75183 8.39166 8.05143 -1.05348 0.721741 1.01917 
453 1 9.20645 8.02091 5.24902 0.380619 0.0437412 0.348256 
454 1 8.23119 5.41816 8.14279 0.63157 0.354009 -0.177787 
455 1 9.16242 0.390132 5.21881 -0.251572 -0.224778 -0.518763 
456 1 4.69938 2.29797 3.83599 -1.07806 -0.444445 1.73584 
457 1 0.17125 4.63217 1.94395 0.578052 0.223851 -0.115471 
458 1 7.1792 5.96165 1.90678 -0.153635 0.697242 0.55789 
459 1 3.49779 6.78693 1.39414 -1.50359 0.318235 0.0949376 
460 1 8.58997 9.30611 3.52477 -0.503967 -0.456377 0.0184786 
461 1 4.83664 6.65231 7.32966 0.319913 -0.0684267 0.0584844 
462 1 3.51444 6.00258 3.3647 0.16027 1.11324 -0.00304854 
463 1 7.86304 1.61833 2.26488 0.728403 0.472265 -0.892625 
464 1 8.49944 2.8004 9.05199 -0.808242 -0.87569 -0.948872 
465 1 7.2446 2.38134 8.04806 -0.461238 0.484911 -1.32834 
466 1 1.05204 3.66878 5.96301 1.15942 -0.616032 1.15261 
467 1 0.028072 7.09722 1.30113 -0.149769 -1.69673 -1.02664 
468 1 8.53341 5.02078 9.05943 1.35603 0.784542 1.43411 
469 1 5.30476 2.15095 9.15097 0.846155 0.150712 -1.53167 
470 1 2.54391 6.5765 5.89659 -0.998487 -0.338961 -1.55212 
471 1 0.690466 8.3086 5.31644 0.104717 -0.214575 -0.59532 
472 1 7.25509 0.334791 2.32323 0.765936 -0.884472 1.38244 
473 1 6.32055 5.48384 1.33575 -0.0759874 1.39946 1.95358 
474 1 5.05466 3.13926 9.04191 -2.24231 0.826671 -1.5971 
475 1 4.07376 5.08087 6.48669 -0.939205 -0.911688 0.216251 
476 1 5.11599 5.82076 3.51387 1.75187 -0.773154 -1.7428 
477 1 5.01336 5.78602 8.95273 -0.0767987 0.851568 -0.126642 
478 1 2.41714 3.07464 9.38516 0.798863 0.157305 -0.358519 
479 1 5.40967 5.52341 6.16023 0.312211 0.657136 -0.720172 
480 1 1.29617 0.640591 0.741109 -0.103881 -1.10373 0.468748 
481 1 3.77788 5.61457 0.907096 0.125297 0.232126 -0.175837 
482 1 2.04941 3.71909 3.87967 0.769095 0.426726 0.387858 
483 1 8.46749 8.51715 3.03477 0.0305056 0.17366 -0.604737 
484 1 0.0761082 6.34642 9.31781 0.153592 -0.688944 -1.36206 
485 1 8.48354 2.58425 6.66189 1.14012 -1.22942 -0.983022 
486 1 6.22347 4.92533 2.42059 0.18784 -0.886337 0.589778 
487 1 1.75008 5.26868 1.86267 0.564839 -1.13299 -1.36934 
488 1 7.47897 3.55521 2.26008 -0.221433 0.904087 -0.422128 
489 1 2.59386 7.58465 6.0131 0.480832 -0.843643 0.307542 
490 1 8.45258 2.3867 3.65804 -0.0500015 0.683002 -2.01691 
491 1 2.25173 7.20366 5.2041 -0.328244 -1.2591 -0.849784 
492 1 4.11746 4.64576 3.0447 1.15777 -0.885063 1.09758 
493 1 7.97514 7.04884 5.15214 0.847255 -0.64575 -0.613011 
494 1 3.49315 2.0238 1.31745 0.322222 -0.460258 0.167842 
495 1 7.33763 1.19347 5.22727 -0.28502 0.767261 -0.824929 
496 1 5.00187 6.77814 3.48996 -1.31221 -0.56052 1.53249 
497 1 9.14848 0.295805 0.65253 0.556651 0.640988 0.283035 
498 1 1.43323 6.63419 1.21327 1.25234 0.164075 0.450523 
499 1 0.818885 3.49794 2.71844 0.409865 -0.259709 1.82745 
500 1 2.24488 0.74754 6.21022 -0.263179 -0.938704 0.587223 
501 1 8.32313 0.0720933 6.8277 0.0069263 0.406442 -0.599859 
502 1 4.17012 4.85657 0.504669 -0.110996 -1.52904 0.0554528 
503 1 5.15513 3.93657 4.5016 0.14371 0.160478 -0.920796 
504 1 1.36488 5.38571 3.95196 0.324474 -0.010229 -0.6053 
505 1 2.36922 7.31474 9.20562 -0.375461 1.30303 -0.669077 
506 1 7.52255 4.57416 6.50974 -0.328442 0.671953 -1.16173 
507 1 2.40172 1.00696 7.17841 -0.484639 0.738934 -0.869757 