ITEM: TIMESTEP
3317
ITEM: NUMBER OF ATOMS
1000
ITEM: BOX BOUNDS pp pp pp
0.0000000000000000e+00 9.4000000000000004e+00
0.0000000000000000e+00 9.4000000000000004e+00
0.0000000000000000e+00 9.4000000000000004e+00
ITEM: ATOMS id type x y z vx vy vz 
1 1 3.69741 2.4311 0.0515612 0.350337 0.730636 0.595075 
2 1 4.61547 8.87984 6.97965 1.16214 1.28229 0.876975 
3 1 2.12417 8.02116 0.417088 -0.997685 -0.134365 -0.448304 
4 1 4.06691 8.10385 0.304514 0.333484 -0.441318 0.75463 
5 1 3.95351 0.170435 1.50086 0.672067 0.505536 -1.37519 
6 1 2.0963 1.47482 2.44561 -0.773601 -1.51373 0.431019 
7 1 6.96933 5.23477 1.87232 0.864668 -0.705729 -1.01635 
8 1 5.75081 3.83391 0.324684 0.360638 0.70077 -0.505365 
9 1 4.61662 9.27571 5.99299 0.696225 -0.272271 0.654751 
10 1 3.55028 4.43514 4.51112 -1.56809 -0.000605091 -0.601244 
11 1 3.42083 5.17323 8.5114 -0.705262 0.312131 0.165768 
12 1 5.19981 7.00232 0.354939 0.598739 -1.85772 -0.504516 
13 1 9.18494 3.7473 7.84242 -0.197518 0.804002 -0.605831 
14 1 4.16545 5.58448 4.4489 1.36022 -0.821434 -0.419415 
15 1 8.50629 6.97583 0.929715 0.529989 0.660282 0.33688 
16 1 6.08341 6.78011 3.48797 -0.329007 0.81185 0.182885 
17 1 5.90749 0.799214 3.2125 0.464662 0.579108 0.53417 
18 1 0.247642 3.66643 5.43754 -0.278312 1.3448 -1.18904 
19 1 6.41674 5.76987 0.452836 -0.0358403 0.00856546 -0.604689 
20 1 2.32124 0.762002 4.86774 -0.490441 -0.915134 -0.718632 
21 1 7.21906 1.54693 6.37006 0.243608 0.744013 0.619179 
22 1 6.13991 7.85276 7.49607 0.142718 0.602943 2.38252 
23 1 5.31058 8.01751 1.39961 -1.45432 -0.496466 -0.569123 
24 1 7.49545 2.12387 1.71844 -0.519302 -0.639355 -0.238433 
25 1 6.26419 4.70739 3.10078 -0.896897 0.136151 0.0864184 
26 1 9.34112 9.3918 8.29543 0.458201 0.0421043 -1.20509 
27 1 4.79505 1.40056 5.10963 -0.0760023 1.53366 -0.799746 
28 1 5.35676 7.84738 8.16681 0.626475 -0.494532 0.451807 
29 1 3.37227 7.54956 3.1517 -1.357 -0.747668 -0.784326 
30 1 2.36301 5.48521 1.23802 -1.38865 -1.18154 1.04444 
31 1 4.33241 4.77058 5.89859 -0.646868 -0.897526 0.0133786 
32 1 8.8289 3.50273 0.120698 -0.40705 0.414287 0.480689 
33 1 2.99343 8.48863 2.17723 1.10812 -1.7248 -0.711615 
34 1 6.29431 0.272992 6.35667 -0.689914 0.617146 0.312573 
35 1 2.12615 3.04619 1.66481 0.110202 0.943143 -0.771894 
36 1 4.60077 5.52014 5.33329 -0.245496 -0.250395 -0.953374 
37 1 6.53571 6.71682 0.783614 -1.43255 -0.184049 0.134338 
38 1 2.75906 5.39216 7.64076 0.034682 0.486282 0.0966255 
39 1 3.56987 2.86865 7.59765 -1.14153 -2.14249 -0.323892 
40 1 0.37438 8.74608 8.89191 -0.309334 -0.733037 0.30925 
41 1 5.69473 5.49945 9.28955 -0.0676374 0.627928 0.264 
42 1 8.82621 2.45976 8.22829 0.656551 0.659154 0.106043 
43 1 8.75193 8.02407 0.762238 1.00767 -0.821905 -0.433786 
44 1 3.71227 1.93156 7.75696 0.20705 0.27721 0.0738794 
45 1 7.58291 0.358674 5.69201 -1.13926 0.446752 -1.17338 
46 1 9.16989 0.700032 8.90487 0.630023 -0.105519 0.722308 
47 1 4.12725 3.63391 6.99321 -0.21454 0.633928 0.283249 
48 1 9.00177 1.98827 7.32605 0.27026 -0.745205 0.135738 
49 1 0.666413 2.3922 2.30589 -1.18275 1.33453 -0.411208 
50 1 0.43764 5.048 8.82824 0.349479 -0.0367658 -0.28225 
51 1 3.56692 0.967801 8.08617 -0.806803 0.55373 -0.167467 
52 1 4.28499 3.8517 4.29679 -0.412445 0.0881807 0.162096 
53 1 2.06249 4.64129 1.58492 -0.722717 -0.484024 -1.03624 
54 1 5.43639 4.036 5.18529 0.802224 0.475277 1.12317 
55 1 6.62109 4.35319 2.22569 -0.225286 -0.281284 -0.444419 
56 1 0.211531 2.12618 6.02249 1.7295 -1.31073 -0.259441 
57 1 7.36944 0.574254 8.69185 -0.658315 -0.0836427 0.312101 
58 1 6.07081 8.77513 7.18221 -0.177063 0.254536 1.19316 
59 1 6.10015 7.61159 2.98787 -0.0957494 0.05712 1.46071 
60 1 3.6122 0.310266 5.76556 0.590017 0.811567 1.45961 
61 1 2.97624 4.50789 7.95736 0.442161 -0.520744 1.48878 
62 1 4.36793 4.74525 3.97563 0.613927 0.190948 -0.0208987 
63 1 7.88761 9.35229 9.21922 -0.566319 1.52049 0.237265 
64 1 7.55953 4.51228 2.40882 -0.598704 -1.01319 1.05174 
65 1 3.62665 4.11244 0.0545866 0.500829 0.59739 0.258153 
66 1 6.5025 0.14623 5.42881 -0.232018 0.419099 -0.561378 
67 1 7.90053 0.106671 0.81512 -0.860164 -0.336993 0.742092 
68 1 1.44953 1.15683 9.14944 -0.581104 -0.502565 1.653 
69 1 4.09901 8.06922 7.12572 0.872522 -1.16403 -1.30585 
70 1 0.0481957 1.07381 5.8241 -1.05704 -0.65316 -0.309932 
71 1 6.1771 9.19381 1.84575 -0.485567 -0.552125 -0.443516 
72 1 9.09433 8.14625 9.25625 -0.292109 -0.00332286 0.329609 
73 1 2.67593 2.08988 3.68342 -0.263614 0.189106 0.348756 
74 1 4.84814 2.58707 2.70038 -0.773088 -0.999672 -0.559469 
75 1 7.25679 6.56331 4.74166 -0.155476 1.19065 -1.09631 
76 1 2.10427 0.226763 6.94605 0.568692 0.21618 1.42476 
77 1 1.36859 6.5116 0.0108996 -0.089647 0.890577 -0.0712354 
78 1 4.24475 8.28354 8.7911 0.772521 -1.46212 -1.50164 
79 1 6.42024 2.39271 5.19375 0.91044 -1.63944 0.124808 
80 1 3.89199 6.11478 6.93171 -1.1423 0.359064 -0.295656 
81 1 0.204368 5.17691 3.08903 1.63798 -0.331235 -1.49557 
82 1 7.04602 7.29261 0.150224 0.720185 1.61841 0.462819 
83 1 8.91321 1.5935 6.43628 -0.78976 -0.298652 0.113341 
84 1 1.59934 7.81036 6.9855 -1.8463 -0.327431 0.365312 
85 1 6.05966 5.41629 8.04754 0.122248 -0.271866 0.441824 
86 1 6.26882 4.83191 1.36732 0.894763 -0.90853 -0.00223886 
87 1 6.59987 7.39002 1.56153 0.75908 -0.534453 0.212141 
88 1 5.42121 5.82136 5.83834 1.33508 -0.833927 1.08093 
89 1 1.05685 4.13638 5.76777 -0.0514177 0.0147157 0.942175 
90 1 5.34723 4.61816 9.35396 -0.0848981 0.427817 1.28561 
91 1 3.37754 5.30148 2.74624 1.07281 0.883356 0.860733 
92 1 0.703906 3.27077 4.66987 -0.885146 1.10036 -0.614738 
93 1 1.88996 0.107671 5.9208 0.445777 0.24894 0.181603 
94 1 5.25736 8.23339 7.27804 -1.46088 -0.179202 0.00798953 
95 1 8.7531 2.46499 0.0700244 1.29892 -0.163417 0.637872 
96 1 4.80414 6.39462 2.13665 -0.113051 0.373661 1.24168 
97 1 4.11898 9.16419 8.4446 0.737784 -0.495104 -0.390677 
98 1 3.21566 0.0334655 8.12714 0.821832 1.22158 -1.93651 
99 1 8.3767 3.8581 7.27289 -1.71368 1.17657 -1.68271 
100 1 8.52066 6.78519 8.9786 0.170163 0.075954 0.598663 
101 1 0.0580864 9.05044 1.37835 -0.466517 -0.137885 0.554308 
102 1 7.61957 1.29542 5.49747 -0.456406 -0.0116403 0.0111636 
103 1 2.17159 0.124448 8.00159 -0.832931 -1.56166 0.171945 
104 1 1.05972 4.6883 3.13535 -1.45149 1.94826 -0.478693 
105 1 5.76853 8.1568 8.98268 -0.595594 -0.265888 -0.200558 
106 1 3.25395 3.47725 8.24728 0.667025 1.017 0.674335 
107 1 7.16989 8.89331 8.73985 -1.35524 0.908207 0.785073 
108 1 7.87569 2.6186 8.01335 0.0671308 0.895162 -0.912652 
109 1 8.79061 5.02133 5.2209 0.16058 1.55702 -0.205165 
110 1 3.14884 5.568 0.633983 -0.879859 1.95556 -0.24494 
111 1 2.76524 0.745285 8.59231 -0.47992 -0.444405 -0.0205335 
112 1 3.80231 4.4377 2.54375 0.919747 1.22824 -1.05309 
113 1 0.853175 8.49509 1.25585 -1.14119 -0.760151 -0.441222 
114 1 8.32578 1.61306 1.68057 1.51162 -0.0942645 -1.31029 
115 1 3.83959 5.22358 1.8992 -1.70416 -0.0371591 0.708326 
116 1 3.83924 1.61693 0.595462 0.306975 -1.22339 -0.0322797 
117 1 5.76553 1.65044 5.03046 -0.820147 -0.467988 -1.43372 
118 1 4.33745 5.03728 8.27052 1.10058 -1.14875 0.507829 
119 1 8.7264 4.60136 7.8987 0.100455 -0.444352 -0.687771 
120 1 1.81352 4.09497 0.650808 -0.48218 0.355134 0.731075 
121 1 1.01471 2.18084 5.53202 -1.28295 -0.794379 -1.03831 
122 1 2.15746 4.56428 7.39964 -0.0174284 -1.64888 0.431905 
123 1 4.93971 4.72798 7.61197 0.632026 -0.413423 -0.413315 
124 1 4.92484 6.17923 4.56684 0.443304 0.982423 -1.95017 
125 1 5.84127 3.52446 6.13466 -0.986485 -0.184957 -0.294599 
126 1 1.18055 0.0348638 6.60066 0.364241 1.41116 0.0999497 
127 1 8.13627 3.10022 0.584949 1.45643 0.954745 -1.01306 
128 1 7.87479 0.89637 7.94545 -1.17645 0.225709 2.3723 
129 1 5.3858 8.70977 2.05871 -1.60327 1.27659 0.342126 
130 1 5.418 4.83427 1.81368 1.07079 0.101706 1.16516 
131 1 0.795727 5.403 2.35485 -0.675695 0.62107 -0.290075 
132 1 2.21871 1.46793 4.22979 -0.818635 -0.279349 -0.745056 
133 1 7.43845 7.31011 2.01407 -0.287064 0.00984332 -0.118359 
134 1 5.64471 0.0770389 2.59629 1.84513 2.20065 0.981289 
135 1 5.62055 4.9078 3.7784 0.729809 0.767445 -0.290816 
136 1 3.34825 2.61886 4.58636 -0.111371 0.0725604 -0.29157 
137 1 5.04176 1.91077 4.33783 1.19888 0.771868 1.61817 
138 1 0.268849 4.06366 6.30316 0.0414764 0.971796 -0.484519 
139 1 4.27818 7.16162 0.0600363 -1.55401 0.653994 -1.0037 
140 1 1.4485 5.62138 1.56968 -0.0196845 0.0705375 -0.462647 
141 1 9.25134 6.12898 8.779 0.679057 0.432564 0.569755 
142 1 1.81027 1.71735 5.97603 -0.861012 -0.96491 -0.237133 
143 1 9.08242 1.02265 1.6769 0.493406 -0.113271 -0.69591 
144 1 5.78648 7.54803 2.08824 -0.219289 1.44569 0.781453 
145 1 1.75931 8.66723 6.46706 1.36967 1.07715 -0.245259 
146 1 2.39546 2.37049 4.61073 0.140582 0.451523 0.228081 
147 1 4.87731 0.0758623 0.74798 0.0225625 -0.0389776 -0.0956227 
148 1 4.37649 8.48748 2.83339 -1.13929 -0.186095 -0.160308 
149 1 3.59506 3.3404 3.8845 1.28174 -0.756678 0.0509207 
150 1 4.5179 4.46649 5.00882 1.06732 1.23855 -0.828338 
151 1 5.46482 7.20975 7.13794 -0.393464 1.88588 -0.408806 
152 1 0.160365 1.88232 2.93038 -0.33546 -0.843682 -0.0175406 
153 1 0.415046 6.66007 0.0065116 -0.233921 0.665288 -0.902339 
154 1 8.62509 1.53988 4.50495 -0.645523 -0.691303 -0.333426 
155 1 4.81963 6.51443 7.15354 -0.703574 -0.995426 -0.26131 
156 1 8.60602 0.435622 5.6825 -1.5571 -0.636586 -0.413926 
157 1 6.44429 6.1782 5.0747 0.530272 -0.448355 -0.421449 
158 1 9.07662 2.88512 0.879822 0.690762 0.693482 -0.643795 
159 1 3.97432 0.184826 2.90898 0.0507728 0.569971 0.388873 
160 1 8.0365 5.30818 2.43231 -1.11938 0.863856 -0.160249 
161 1 7.27461 4.43696 0.43536 -0.0952957 0.420007 -0.29064 
162 1 8.11338 1.85514 3.25758 0.705016 0.90917 0.140482 
163 1 5.84521 7.32815 1.01211 -0.494316 0.61 0.918681 
164 1 8.94284 1.46854 3.55575 -1.01796 0.458829 -0.0105821 
165 1 1.60537 0.879788 6.44749 -0.775688 -0.707439 -0.753129 
166 1 7.43878 4.96669 3.60247 0.434176 0.624499 1.45866 
167 1 4.84574 5.55881 3.73831 0.412942 0.158457 -1.28993 
168 1 5.10145 8.7447 8.62073 -0.735319 -0.469691 -0.579952 
169 1 6.45207 6.03127 2.31545 1.56757 0.300255 -0.368319 
170 1 1.8363 3.0568 6.73752 -0.500738 -0.904967 0.75395 
171 1 8.34744 3.19413 2.39375 1.20613 -1.39531 0.586457 
172 1 8.45423 0.991178 0.948817 0.473873 -0.70233 -1.24555 
173 1 2.79763 7.31562 0.758059 -1.27713 1.22312 0.524782 
174 1 9.14408 4.29657 1.75517 -1.26307 -0.425178 0.409963 
175 1 7.54302 9.34634 7.94726 -0.223931 -0.918006 1.29188 
176 1 2.97454 6.2926 7.30291 -0.16465 1.15432 -0.252424 
177 1 8.60877 0.434101 0.204608 1.74266 0.394041 0.985617 
178 1 1.64154 8.6403 1.77649 -0.107063 0.699153 -0.927849 
179 1 4.49371 0.226939 7.70198 0.475262 0.109554 -0.00652393 
180 1 3.31125 6.06758 8.15098 -0.173201 -1.12965 -1.26045 
181 1 6.5468 2.12801 6.74556 0.926802 -0.0454258 0.911547 
182 1 6.43516 2.0725 4.26422 -0.96736 0.950032 -0.508973 
183 1 2.18884 6.206 5.54519 0.813612 -0.353111 1.81563 
184 1 0.784265 9.3828 0.861995 0.208041 1.66851 0.777136 
185 1 7.34657 1.33197 3.37133 -1.10868 0.57884 -0.0981443 
186 1 7.15761 0.675309 4.87382 0.0360985 0.263105 1.16784 
187 1 7.98621 4.86647 9.25102 0.334663 0.528087 0.520341 
188 1 1.5573 6.82187 7.15276 -1.74452 -0.0868434 -0.5552 
189 1 3.46404 8.75618 3.00849 -0.402506 -0.746732 0.203258 
190 1 0.0987754 1.73106 8.09633 -0.711068 0.851533 -0.512142 
191 1 5.67857 7.49313 4.0539 1.29029 -0.540745 -0.467371 
192 1 3.50991 8.81692 9.37039 0.969796 -0.683852 0.517419 
193 1 7.69156 2.3663 0.152205 0.201166 0.327761 1.18541 
194 1 4.07036 6.22056 0.112204 -0.205074 0.603325 1.01189 
195 1 7.71908 0.819989 0.224342 0.299101 1.16738 0.645578 
196 1 1.65764 5.0169 0.798966 -0.466552 0.751947 0.642371 
197 1 7.03983 5.22746 0.903615 0.330113 -0.879118 1.06676 
198 1 6.22666 8.28859 1.58336 0.137613 -0.659574 1.56172 
199 1 5.03895 5.11332 6.43337 -0.134034 0.0843224 1.39408 
200 1 2.15468 0.762738 1.69429 0.182754 0.0388906 0.957848 
201 1 6.74432 7.90896 2.3465 0.384009 -0.52913 -1.39473 
202 1 6.78728 1.54596 5.01855 0.461784 -0.0907303 -1.04471 
203 1 1.28533 4.52721 7.85432 0.21619 0.791149 0.777023 
204 1 6.94489 6.53089 1.67366 -0.207666 1.31449 0.706856 
205 1 8.134 2.23579 0.962318 0.634929 0.448336 0.530849 
206 1 9.06921 3.36751 4.76707 0.262245 -0.558418 0.0211017 
207 1 7.00577 0.706572 7.52537 -0.27952 0.0418151 -1.22072 
208 1 3.61747 2.62251 8.52552 1.41438 0.494808 -0.296751 
209 1 0.08211 3.64451 3.9492 -0.227764 0.724255 -0.450523 
210 1 2.48687 5.22491 8.64061 -1.1808 -0.273528 -0.210972 
211 1 2.80436 2.41228 9.02653 -0.45526 -0.434552 -0.815702 
212 1 8.9859 1.6911 8.90212 -0.587676 0.492098 0.611335 
213 1 6.42575 1.15498 6.72004 1.32316 -0.158395 0.537624 
214 1 3.38023 6.98219 7.82126 -0.623696 0.530944 -0.787274 
215 1 0.503811 2.32688 1.13149 -0.147773 0.312562 -0.672973 
216 1 2.88698 6.77003 8.62339 -1.17649 -0.960304 0.510775 
217 1 8.19914 5.5066 3.86567 0.348449 -0.469743 -0.300953 
218 1 3.63608 4.75437 0.814025 -0.220268 0.49165 -0.111596 
219 1 8.2056 0.903768 3.18751 -0.441226 -0.184794 0.747649 
220 1 3.96618 1.06108 4.60562 0.679247 -0.87392 -0.209035 
221 1 3.18381 0.951325 5.1803 0.656067 0.21453 0.69779 
222 1 3.57202 0.183196 4.74947 -0.697008 -0.909986 -0.33371 
223 1 2.39556 8.63523 8.29013 -1.02717 0.627759 -0.130315 
224 1 3.98053 2.64886 5.30095 -0.963851 -0.179301 -0.294749 
225 1 7.95653 2.76436 5.81175 0.59724 -0.402691 -0.634157 
226 1 4.88285 3.39618 3.71047 0.728148 0.652032 1.22364 
227 1 6.60091 0.124355 4.27288 -1.54618 0.878194 -0.707869 
228 1 2.12756 1.66008 1.46152 1.01421 -0.718167 0.138872 
229 1 8.29498 4.05939 0.951209 0.0153785 0.245239 0.106465 
230 1 7.6072 6.76586 2.8066 -0.711582 0.473457 -0.252867 
231 1 9.1259 4.31719 4.58211 -0.678662 0.736011 0.294004 
232 1 6.25813 5.31354 5.52132 0.433968 -0.239607 0.0673526 
233 1 6.7387 3.90864 7.47909 -0.969358 0.331365 0.639065 
234 1 8.11221 8.67639 8.54486 1.67986 1.54433 1.32288 
235 1 8.03731 2.03345 5.10714 0.157962 0.271993 0.77025 
236 1 3.29176 1.98313 1.30835 0.859979 0.892204 1.44351 
237 1 5.26634 8.91969 4.10534 0.774679 -0.648101 -0.727961 
238 1 1.05953 2.94629 7.31945 1.19174 -1.12866 0.417396 
239 1 6.06102 0.759786 2.06893 -0.712197 1.03544 -0.366011 
240 1 8.77846 2.27002 5.61823 -1.21531 0.809544 -0.557893 
241 1 4.06455 3.3085 0.378904 0.244217 0.323413 -0.925562 
242 1 3.34061 2.95363 1.61317 0.641407 -0.895557 -0.739933 
243 1 3.46718 1.85157 5.30268 0.24809 0.101065 1.4134 
244 1 8.13637 0.773539 4.8788 -0.509057 -0.439495 0.458003 
245 1 4.2576 1.16026 7.40407 1.80282 -0.52246 -0.516088 
246 1 5.77995 3.22436 4.0544 1.25674 -1.01618 0.763101 
247 1 3.81133 8.90493 7.54305 0.0450768 0.280958 1.03973 
248 1 4.8701 7.29143 2.36066 1.14129 -0.0762284 -1.08782 
249 1 0.208669 2.97908 0.0955755 0.0239689 -0.200245 0.616892 
250 1 8.21577 7.50738 0.139822 -0.951125 0.0925166 -0.17247 
251 1 2.68095 2.2741 1.96098 -0.452011 -0.659129 1.32481 
252 1 4.0919 3.01383 3.13947 -0.489239 -0.641148 -1.86431 
253 1 1.57952 3.75854 7.3449 -0.0877878 0.637077 0.537683 
254 1 1.51006 7.44362 9.2975 -0.252069 -0.67885 0.397616 
255 1 4.90034 4.01387 1.55294 0.416765 -0.343563 0.488516 
256 1 4.18056 6.81231 4.74538 0.136524 -0.716748 0.167426 
257 1 8.22698 3.83638 4.64815 -0.0584432 -1.27956 -0.790469 
258 1 7.01783 9.07753 6.13498 -1.16429 -0.166495 -0.889253 
259 1 0.858352 0.462881 5.74655 1.47186 0.492362 -1.1962 
260 1 0.670353 4.23295 4.80367 -0.569616 -1.96543 0.0977289 
261 1 3.44122 1.39143 3.53283 -1.65756 -0.19297 -0.417746 
262 1 7.7915 0.790706 1.60667 -0.734315 -0.630047 -0.263338 
263 1 4.77605 1.38094 6.62173 0.363518 -0.29494 0.661684 
264 1 4.82992 8.50165 0.679397 -0.992284 0.135107 0.589138 
265 1 7.16341 2.3668 7.44626 -0.930159 -0.704579 0.544091 
266 1 1.47969 2.72977 4.92947 -1.03312 -1.79336 0.337379 
267 1 5.10868 0.83759 2.53163 0.0978337 0.38552 1.30026 
268 1 1.86634 3.62145 5.95368 -0.510439 0.854562 0.746086 
269 1 2.51647 0.604885 0.127596 -0.776668 1.37436 1.09656 
270 1 7.416 2.96381 2.3012 -0.449752 -1.2779 -0.756279 
271 1 6.58455 8.62272 5.26976 0.424655 0.303348 0.589654 
272 1 7.31479 8.78228 0.330848 0.162433 0.0407504 0.861047 
273 1 1.49093 2.25561 1.12343 -1.03072 -1.25859 0.839618 
274 1 6.99794 5.24688 2.7963 1.03357 0.774912 0.482518 
275 1 5.63213 6.64393 2.63237 0.228458 0.379985 1.24183 
276 1 3.73999 7.86979 2.31315 0.897991 -0.191397 0.771074 
277 1 3.4271 6.23811 4.25817 -2.01182 1.16097 0.271391 
278 1 4.25076 3.83489 6.08363 -0.674439 -0.0809294 -0.152232 
279 1 7.22149 2.11168 2.7606 0.0520206 0.244232 -0.50654 
280 1 7.75757 5.70619 0.204427 0.953108 0.000476091 0.393442 
281 1 2.50031 8.16146 6.80186 0.532035 0.806967 0.0131879 
282 1 8.88037 3.35581 3.19217 1.12876 -0.788308 0.392747 
283 1 8.20778 8.48506 0.117851 -0.320038 -0.549759 -0.131838 
284 1 4.32535 8.62322 4.43357 0.181303 -0.902175 0.0200971 
285 1 6.9975 9.04669 1.20122 0.746413 0.629681 -0.0583653 
286 1 7.66487 5.81803 3.17655 -0.522487 0.390527 0.849435 
287 1 0.00629336 1.77003 5.12723 0.403149 -0.259461 -1.12779 
288 1 4.53833 6.67975 3.04224 -1.05888 0.381393 0.855443 
289 1 0.38288 1.17969 2.3152 0.557331 -0.689185 -0.0772627 
290 1 7.51543 0.447256 2.60596 -0.0749809 0.542787 0.580741 
291 1 0.78839 4.30272 7.07934 -0.0906816 -0.27067 -1.09121 
292 1 3.04325 0.440081 1.53518 -1.3518 -0.852209 0.999588 
293 1 7.588 1.47362 0.939023 0.233398 -0.516551 -0.673554 
294 1 7.83462 3.81666 1.83509 0.990577 -0.0391373 -1.02064 
295 1 1.22756 1.40094 4.11162 0.174117 0.656274 -0.997302 
296 1 7.61755 1.48347 4.43053 0.451332 -1.70554 1.16451 
297 1 3.96839 4.27198 1.62651 0.00315874 0.619789 -0.622875 
298 1 3.74347 5.1187 5.17606 1.21034 -0.662288 1.33033 
299 1 9.30795 5.85151 2.35638 0.609984 -1.63187 1.24 
300 1 4.92547 0.423689 3.39993 0.724809 -0.875464 -0.24075 
301 1 0.432797 0.219022 7.44662 -0.00707921 0.00141096 1.34226 
302 1 1.3804 1.72066 6.83872 0.249729 0.894544 0.256012 
303 1 1.07413 4.97354 5.30971 -1.80132 -0.247584 -0.373034 
304 1 4.03322 3.47327 2.27117 0.308739 0.159495 -0.821464 
305 1 7.37479 2.51213 6.52297 1.02297 1.49815 -0.0228897 
306 1 4.68687 2.44357 3.63523 -0.479312 -1.15073 -1.24332 
307 1 0.623387 1.14445 3.35385 0.381783 -1.30683 -0.210525 
308 1 5.28451 0.573433 4.97668 0.194449 -0.718226 -0.023146 
309 1 6.66936 4.53803 5.13745 0.279044 1.48376 -0.715022 
310 1 4.94458 7.872 9.34454 1.52141 0.220757 -0.507679 
311 1 2.75532 0.0592568 5.42655 0.265147 0.026727 0.0823222 
312 1 2.36695 6.90552 7.77307 0.303261 0.67691 0.389972 
313 1 8.90951 3.56573 6.5416 -0.593683 -0.737533 -0.210492 
314 1 6.10824 8.75341 6.16823 0.132512 -0.262738 -0.0168345 
315 1 0.396048 5.19673 7.16603 -0.214338 -0.520249 0.369627 
316 1 6.31109 6.76245 7.15213 0.04001 0.392582 -0.659856 
317 1 0.106524 6.78546 0.969922 -0.0612407 -0.284076 0.0742849 
318 1 2.17837 2.22763 6.99194 0.351034 0.391944 0.7403 
319 1 5.00344 6.0348 0.356644 0.66542 -1.54236 0.722494 
320 1 8.26388 1.76593 7.89828 0.33612 0.523408 -0.620438 
321 1 8.80106 0.301864 7.52454 0.0639369 0.420331 0.110922 
322 1 8.2271 4.68886 1.70328 0.699525 -0.426587 0.791317 
323 1 3.89726 8.18825 3.67847 0.0505101 0.312632 -1.07268 
324 1 1.62047 0.849951 3.0546 -0.672276 -0.0146413 0.551392 
325 1 1.08312 1.67245 0.500035 -0.679019 1.4182 1.22044 
326 1 8.8553 2.43825 4.69079 0.554637 -0.106803 0.321502 
327 1 2.85055 4.73301 5.24392 -0.271138 -1.24363 -1.27861 
328 1 8.94017 4.95298 2.4167 -0.860565 -0.24082 0.0513299 
329 1 7.55098 7.93459 0.61329 0.413759 -0.115589 -1.34774 
330 1 4.862 3.74739 9.29496 0.41415 0.811786 1.50479 
331 1 5.39685 4.48342 0.908438 -0.0121711 -0.0112207 1.05751 
332 1 7.38854 1.5537 9.11915 0.210777 0.243891 -0.490077 
333 1 1.68826 8.85805 0.788308 -0.867433 1.56053 -0.342147 
334 1 2.32167 5.51289 0.210943 1.42135 1.23472 -0.306919 
335 1 7.45851 3.48747 8.50181 0.279381 0.672042 0.506937 
336 1 1.61292 0.956631 5.46928 0.70356 0.0725797 -0.424077 
337 1 8.43678 1.19171 7.17715 -0.0146829 0.400323 0.150117 
338 1 2.69056 3.01979 7.21332 -0.672558 0.261153 -0.754735 
339 1 7.02461 6.34749 -0.000207971 -0.665582 0.3138 -1.9304 
340 1 4.88461 5.87151 1.32143 -1.67063 -0.813869 0.787605 
341 1 3.91137 0.556958 3.79001 0.890794 0.199882 -1.62989 
342 1 8.30934 1.61519 0.237426 -0.480367 0.540782 -0.307006 
343 1 0.973171 1.70418 1.72514 0.303662 -0.403696 -1.9495 
344 1 6.082 8.348 4.46018 -0.297852 -0.694863 -0.150721 
345 1 2.76398 8.25632 9.12362 -0.138469 0.160784 0.562942 
346 1 8.16964 4.07265 6.26585 -0.563108 0.733658 0.0470976 
347 1 8.10126 2.27643 4.12735 -0.22009 -0.952253 2.84208 
348 1 6.8863 3.57344 1.72482 -0.747779 -1.69621 2.05097 
349 1 7.30121 6.13863 0.909975 -0.132023 0.675799 0.164541 
350 1 5.66549 1.76207 6.84306 -0.805705 0.348636 -0.455943 
351 1 2.83232 4.10501 8.81758 0.838984 1.42459 0.167406 
352 1 6.18894 0.811465 4.79274 0.471337 1.14072 0.597761 
353 1 5.64979 8.44018 5.36884 -0.221718 0.492373 0.606857 
354 1 4.4185 4.1879 0.696363 0.620369 0.0657653 -1.71963 
355 1 3.17514 8.70817 4.94015 -0.593595 -0.0658774 -0.430072 
356 1 4.60279 2.73978 9.11881 0.305934 0.619842 1.56332 
357 1 1.20342 5.51765 0.138692 -0.389425 0.141376 -0.751709 
358 1 5.25308 7.29 3.23387 -0.495286 -0.549266 1.41994 
359 1 3.35824 3.67591 2.93515 0.160245 -0.184632 1.62979 
360 1 1.94805 3.78801 9.13289 -0.167901 0.24195 -0.117002 
361 1 6.99441 8.80684 2.1507 -0.97499 -0.586807 -0.768077 
362 1 3.53234 2.33699 6.10448 -1.45869 -1.37563 -1.35518 
363 1 3.1346 7.77814 1.5391 -0.138449 0.787997 1.11666 
364 1 1.79523 5.86314 8.88298 -0.000308634 0.435348 -1.719 
365 1 0.166701 5.14485 1.69825 1.01728 -0.224335 -0.641894 
366 1 5.78316 6.63919 4.49341 1.33352 -0.219434 -0.121922 
367 1 5.12678 1.46456 3.35029 0.794782 0.0834039 -0.114828 
368 1 9.19005 1.1982 0.313198 -0.198356 -0.952088 0.00551626 
369 1 5.63704 6.21562 7.61041 -1.88624 -0.259708 0.674519 
370 1 0.207722 2.70832 5.25767 0.629139 -0.790124 -0.559398 
371 1 3.84162 9.29377 6.57916 0.230362 -0.77456 1.02813 
372 1 0.807434 9.13706 1.99877 0.486506 -0.720546 0.651322 
373 1 5.92596 7.05952 8.00328 -0.439587 0.121923 -0.248648 
374 1 0.596202 0.579984 1.59106 0.426626 -0.186635 -1.07219 
375 1 2.49976 9.04566 2.82033 0.91394 0.326538 0.104871 
376 1 7.17241 3.02698 5.306 1.2577 -0.515145 -0.862008 
377 1 0.230354 2.03974 0.249813 0.450425 -0.576539 0.105447 
378 1 0.979765 7.15566 0.653517 -0.708969 0.597981 0.153844 
379 1 4.32399 7.57765 3.09036 0.418541 -1.30937 -0.586385 
380 1 3.97546 8.19167 1.2837 0.560433 -0.171831 0.0267691 
381 1 5.31324 4.93655 5.49603 0.21739 0.419536 1.26619 
382 1 3.07921 4.69707 7.01272 0.0893421 0.819652 -0.907615 
383 1 2.01049 5.33713 5.11438 -0.96727 0.38045 -0.21553 
384 1 5.91298 6.45245 0.0423299 1.2721 -0.331562 1.77564 
385 1 6.23015 4.77761 8.82492 -1.43143 -0.275157 -0.397849 
386 1 0.761645 0.403627 2.71133 -0.0964715 0.336222 -0.659907 
387 1 1.61152 4.33055 6.57025 1.05932 -1.63811 -0.487547 
388 1 1.67031 0.0612001 2.41438 -0.343067 -0.042856 -0.199072 
389 1 6.91761 7.24486 3.34394 0.0795943 -1.0636 1.56974 
390 1 3.7546 4.28037 8.48518 -0.826562 1.70276 1.02871 
391 1 1.30586 4.10874 2.40275 0.490979 0.237077 -0.408184 
392 1 5.17459 8.9173 3.1494 -0.156815 0.487847 1.02793 
393 1 6.48183 6.86338 8.78426 -0.39194 -0.225587 0.239858 
394 1 2.42893 8.39515 1.25143 -0.20104 -0.705666 0.789287 
395 1 4.98155 2.34439 6.50816 0.0970246 0.557303 0.134645 
396 1 5.88447 3.9744 1.63962 0.456624 -0.370684 0.283728 
397 1 1.47091 3.73477 5.02889 -0.149766 -0.426102 -0.965988 
398 1 3.53134 7.07895 5.50555 -0.991894 1.11463 -0.0282747 
399 1 2.93398 9.21833 7.2481 -1.65473 1.29992 -1.24525 
400 1 8.94884 0.628882 6.58167 -1.11126 -0.202311 0.814924 
401 1 5.20211 4.17486 4.26724 0.0889087 0.621369 -0.401624 
402 1 2.66287 4.9416 3.45692 0.0732505 -0.772241 1.14356 
403 1 0.139353 2.70869 4.11563 0.556936 -1.2745 0.0531056 
404 1 0.146948 2.96514 1.7442 0.446749 1.13562 0.221133 
405 1 5.94155 7.54157 4.98721 -0.256192 -0.173027 -0.0988932 
406 1 1.90846 2.18873 0.210582 0.411245 0.368652 -1.16692 
407 1 6.20239 0.273273 1.03568 -0.744084 -0.147683 1.04739 
408 1 2.71956 3.89284 0.328324 -0.0497897 -0.628153 0.45359 
409 1 2.69786 3.18775 4.15653 0.671721 0.305832 -0.210113 
410 1 3.18775 8.17562 0.64328 0.772758 -0.29136 -0.835886 
411 1 6.04281 4.45299 5.88354 2.33053 -0.869724 0.338691 
412 1 3.23412 8.90342 1.33081 1.05143 -0.268441 -0.394534 
413 1 2.1043 0.564944 3.89359 0.373715 -0.589502 0.0788157 
414 1 1.62352 7.7921 1.21256 -0.191111 -1.71761 -0.149137 
415 1 3.47734 3.062 6.68352 0.800042 1.3881 -0.742626 
416 1 3.34455 8.78559 5.86869 -0.362742 -0.198837 0.345951 
417 1 3.84764 6.79227 8.66125 0.457663 -0.368083 0.294828 
418 1 6.11043 7.39649 0.0982505 -0.877931 -0.51681 -0.292736 
419 1 2.66137 9.35251 4.43493 0.100356 -0.884452 -1.40359 
420 1 2.39679 7.19112 6.83217 -0.288138 -1.16108 0.338109 
421 1 1.40395 0.604428 4.60412 -0.821757 -1.27335 -0.271699 
422 1 3.1548 6.21161 5.84206 0.319503 -0.225311 0.888874 
423 1 4.45532 7.33475 5.60991 0.657418 -1.10297 -0.0644125 
424 1 0.573289 3.84915 3.17271 -0.956219 0.051929 0.778962 
425 1 1.93712 8.74435 9.16524 -2.04763 -0.375082 1.51563 
426 1 0.821796 6.1967 0.743661 -0.236236 -0.768101 0.324079 
427 1 4.56962 8.44824 7.89422 0.706657 -0.547331 -0.402799 
428 1 0.276839 5.10104 4.67367 -0.59897 -0.87941 0.284478 
429 1 6.56452 9.38134 8.05916 0.849856 0.785514 -0.665333 
430 1 2.75062 3.85822 5.61944 0.260188 -0.534747 -0.691167 
431 1 2.08632 4.67285 9.3277 0.661595 0.358193 -0.09451 
432 1 3.36788 8.50122 6.75199 -0.475105 -0.261951 -0.957419 
433 1 4.16443 6.36271 7.82335 -1.94518 1.74818 0.488523 
434 1 8.25292 4.71536 3.17412 1.25559 0.795019 0.768324 
435 1 1.04633 3.53198 6.52939 -1.51515 -0.600055 1.3717 
436 1 0.522119 0.725935 6.6126 -0.715173 0.504504 -0.187131 
437 1 4.46102 6.63994 0.901264 0.861834 -0.479516 -0.248001 
438 1 4.69565 8.22541 5.42962 -0.334811 0.784183 -0.260505 
439 1 6.44418 2.74989 3.55056 -2.21408 -0.519878 1.14363 
440 1 0.556206 6.05994 1.64779 0.601882 0.605722 -0.254143 
441 1 4.68694 0.425277 6.79625 0.959675 -0.329236 -1.09025 
442 1 7.28068 3.42221 6.22844 -0.251701 -0.472446 0.788698 
443 1 5.24 2.84434 7.46598 0.0426983 0.109099 0.0173111 
444 1 5.2613 8.07622 2.73925 -0.546327 -0.869847 0.511232 
445 1 3.24611 0.0271834 2.33678 0.53294 -0.719456 1.22407 
446 1 8.51917 9.09418 2.33601 -0.583194 0.276999 0.75136 
447 1 7.26726 2.34241 4.6646 -1.11073 -0.690165 0.92644 
448 1 6.90581 9.23843 7.1109 0.462959 -0.301969 0.141045 
449 1 1.92913 6.84781 8.66562 0.610898 0.728488 0.16507 
450 1 5.6038 3.09606 3.11739 1.39687 0.813574 0.0718568 
451 1 5.95414 8.59435 8.12708 0.427387 0.657999 -1.45416 
452 1 8.59238 4.04748 3.79973 -0.288527 -0.528379 0.0236448 
453 1 7.61921 4.0891 3.94122 1.52362 0.448463 -0.28698 
454 1 7.0989 0.624028 0.937913 0.729054 -1.43104 0.820231 
455 1 2.73742 9.24232 8.94416 -0.578231 0.704223 -0.491638 
456 1 8.07218 3.16157 6.68019 -0.296262 -0.0947642 0.658176 
457 1 8.2216 1.07637 8.85016 1.15423 0.427937 0.959155 
458 1 3.0271 0.525992 6.57316 -0.411021 0.735239 0.100142 
459 1 7.20746 2.68528 0.909291 0.67635 -0.18763 -1.51166 
460 1 2.42292 2.46045 1.01009 -0.183745 0.432024 0.32522 
461 1 6.60014 3.71214 5.58442 1.00226 1.21152 0.629896 
462 1 3.08526 1.68566 8.49217 -0.767933 0.593752 0.760341 
463 1 3.23998 1.40178 6.13064 0.670228 0.0456264 -0.787407 
464 1 7.21757 2.14792 5.64729 0.567678 -0.214675 -1.00821 
465 1 6.59849 6.95791 2.47546 0.446459 -0.371134 1.55257 
466 1 3.04426 1.82945 2.78357 -0.638789 -1.13525 -0.412459 
467 1 4.20097 3.37913 1.3397 -0.935321 -1.36069 0.195803 
468 1 6.93417 0.372299 1.83661 -1.04171 -0.293667 -0.45018 
469 1 8.34916 6.20463 2.42212 0.469392 0.306643 -0.553234 
470 1 3.27696 1.16645 9.35781 0.671872 -0.484524 -0.504235 
471 1 0.59529 3.28855 0.923151 -0.648451 0.196079 0.320988 
472 1 6.60071 1.59799 7.555 -1.91324 -0.63545 0.367095 
473 1 3.38052 8.55073 8.46943 -1.71025 -0.397937 -1.18993 
474 1 9.35925 7.14863 8.6901 -1.20224 -1.58341 0.188658 
475 1 6.14503 2.52576 7.5235 -0.590384 -1.22651 -0.655743 
476 1 1.45528 8.31215 7.92871 -0.359845 -0.0404645 -1.7495 
477 1 5.12833 4.17486 6.04997 -0.324244 -0.827103 0.697393 
478 1 0.831855 5.97126 8.79369 -0.986576 1.09536 -0.408674 
479 1 1.05346 2.52846 6.42665 -0.390193 0.172875 -0.406514 
480 1 2.11432 8.7616 7.38685 1.02502 0.441071 -1.08383 
481 1 4.89559 2.40983 5.16672 -0.61532 0.7325 0.465918 
482 1 5.61013 6.19143 6.68218 0.431904 -0.903367 -0.824674 
483 1 5.67477 6.66619 5.46069 -0.125822 0.85399 0.512801 
484 1 1.14178 3.57765 0.173197 1.43259 0.0468982 -0.457605 
485 1 4.70917 1.68094 2.34721 -0.150961 -0.798339 -0.851114 
486 1 3.64578 4.20476 5.44774 0.407602 0.618358 -0.726513 
487 1 1.0331 3.14955 5.64974 0.264967 0.343744 -0.13678 
488 1 1.32203 0.599611 8.12514 -0.0559559 -1.38893 -0.302901 
489 1 5.47291 7.16909 8.84264 0.32048 -0.629884 1.11071 
490 1 8.70708 5.58675 3.07991 -0.547466 1.15298 -0.858 
491 1 5.07376 7.16291 4.89978 1.95203 0.761772 0.593819 
492 1 2.46101 4.87242 4.38465 0.778982 1.37481 -0.915331 
493 1 5.96135 5.27223 6.41584 -1.07265 1.36691 -0.484258 
494 1 7.92795 4.56115 5.24368 0.454755 -1.17772 1.2699 
495 1 2.91934 1.93703 0.421254 -0.0383655 -1.11833 -0.63583 
496 1 5.55022 0.833031 6.56252 -0.501675 -0.518699 -0.684315 
497 1 7.39846 6.0001 2.29023 -0.417716 0.751446 -0.199832 
498 1 3.71753 5.41005 7.60352 -0.0152923 0.0361708 -0.112481 
499 1 7.86916 3.64587 5.49365 -0.342689 0.0823872 -0.900057 
500 1 7.55164 3.32623 7.45262 0.749719 0.326439 0.151979 
501 1 6.54748 2.81542 6.03509 0.273246 0.782835 -0.690033 
502 1 4.27333 2.88624 4.38723 0.0139752 -1.08077 0.185397 
503 1 6.46956 5.81442 8.84443 0.829504 0.190774 0.276764 
504 1 2.86764 4.48124 2.63541 0.960342 0.777606 -0.63009 
505 1 2.60552 4.7066 0.7747 0.798372 0.263963 0.938081 
506 1 4.38914 1.7552 1.41064 0.104975 0.670017 1.75735 
507 1 2.00566 7.83873 8.60183 -0.797114 0.315469 -1.08043 