ITEM: TIMESTEP
2237
ITEM: NUMBER OF ATOMS
1000
ITEM: BOX BOUNDS pp pp pp
0.0000000000000000e+00 9.4000000000000004e+00
0.0000000000000000e+00 9.4000000000000004e+00
0.0000000000000000e+00 9.4000000000000004e+00
ITEM: ATOMS id type x y z vx vy vz 
1 1 9.01664 0.307839 9.24829 0.0834841 0.0122946 1.54814 
2 1 1.32313 5.03884 5.73034 -0.0458051 0.025072 1.55427 
3 1 4.69084 4.81339 5.02825 -0.441548 -0.0438709 0.507762 
4 1 5.99876 5.81569 4.43919 -0.366756 -0.293086 1.35774 
5 1 8.32074 3.08914 1.69866 -0.408349 -1.29719 0.395361 
6 1 0.190939 1.10667 6.37815 -0.241188 1.09254 0.0160513 
7 1 5.47175 4.27421 5.23002 -0.208131 0.383822 -0.107446 
8 1 4.22948 4.0529 1.74801 -0.823637 -0.168529 0.376618 
9 1 6.72208 2.47162 8.78797 1.92142 0.0545824 0.435349 
10 1 2.14356 0.85879 4.08289 0.518763 -0.056122 -0.850137 
11 1 2.55908 8.49632 4.20867 -0.208181 -0.517062 -0.00283518 
12 1 5.33781 1.7773 2.33064 -0.613298 0.595047 0.15015 
13 1 9.32057 2.49154 0.330494 1.31247 -0.641077 0.206148 
14 1 8.7006 6.21288 5.08395 0.0302623 -0.432478 0.10886 
15 1 8.63276 5.14401 7.25455 -0.354465 0.720796 0.121262 
16 1 1.47523 7.24237 3.91699 -0.343452 0.54544 -0.1908 
17 1 2.18886 1.02657 2.0063 -0.781693 0.916389 0.547938 
18 1 1.57086 8.55491 0.3482 0.399663 -0.179262 1.16857 
19 1 4.87684 9.08708 6.88287 0.540937 0.823535 -0.239282 
20 1 4.13985 2.16238 5.00239 -0.865188 1.38267 -1.66124 
21 1 7.54848 8.05918 7.58871 0.179011 -0.462757 -0.553954 
22 1 8.6549 8.4249 3.77542 0.250734 -0.258313 0.108234 
23 1 1.43327 0.674927 0.511565 1.50798 -0.0391893 0.757749 
24 1 7.75865 3.70643 1.16323 0.0507389 -0.127588 -0.863289 
25 1 9.0026 0.194034 5.05834 -0.590484 0.636528 -0.163914 
26 1 4.77396 1.21567 1.35747 0.448145 -0.228563 -0.795313 
27 1 0.676683 8.39272 5.44608 -0.223167 1.39063 0.463172 
28 1 7.45593 0.133721 8.30854 0.633238 1.09169 1.32951 
29 1 2.96625 5.6848 1.45185 -0.557273 -0.67673 0.701564 
30 1 1.53341 9.24597 0.995576 0.867458 -0.53633 -0.0404704 
31 1 7.96489 9.12939 6.69583 -1.22158 -1.12018 0.429345 
32 1 3.08955 5.02483 2.15158 0.757197 0.576519 0.465171 
33 1 0.000528223 1.57435 7.23982 -0.151789 -1.13035 0.395354 
34 1 6.16009 2.13073 2.00114 -0.143431 -0.235541 -1.40915 
35 1 6.4618 0.960393 3.22812 0.0335308 1.16095 -0.298103 
36 1 6.37177 1.81823 6.20707 2.0205 1.20237 0.242138 
37 1 1.21369 6.45614 3.40906 -1.20454 -0.609012 0.286412 
38 1 2.93034 8.31792 8.74185 -2.14655 -0.21039 -0.920657 
39 1 4.05676 7.93563 5.97288 0.661858 -0.937085 0.880415 
40 1 0.424598 9.37659 8.86918 -0.464945 -1.09765 0.251464 
41 1 4.89286 2.09293 8.6268 -0.488187 1.38102 -0.961085 
42 1 6.07314 7.2472 3.30468 -0.870895 0.23657 -2.07487 
43 1 6.62859 5.92918 0.83446 -0.123004 0.259494 -1.19016 
44 1 1.48095 7.90028 5.39464 0.610882 0.204875 -1.29315 
45 1 5.4626 0.846057 4.78764 0.0371982 0.597826 0.901951 
46 1 6.59712 1.06597 5.65188 0.628363 -1.49287 -0.388073 
47 1 2.22435 2.3781 0.899526 -0.0061784 -0.100334 0.450864 
48 1 8.50303 7.46578 3.99635 0.357357 -0.38763 1.12957 
49 1 6.50808 0.0815243 8.54977 -0.0387466 0.417194 -0.616511 
50 1 2.34991 3.1983 5.7088 -0.124866 0.310063 -0.138643 
51 1 8.57663 1.00523 7.50855 -0.918786 -0.528547 0.537597 
52 1 6.439 6.26725 0.00743966 -0.117239 -0.318174 -0.621809 
53 1 6.56841 8.88602 5.06418 -0.972434 -0.289489 0.742919 
54 1 6.80437 0.4441 2.39377 0.183119 0.642151 -0.814124 
55 1 8.17784 5.71444 5.72056 -0.122907 0.806237 0.022041 
56 1 6.19663 4.96846 8.17191 0.108914 -0.918957 -0.145184 
57 1 5.49423 5.35717 5.20344 1.08967 0.122622 0.485313 
58 1 7.907 1.51669 7.06197 1.12792 0.414398 -0.388472 
59 1 2.35181 9.33488 4.98656 0.68633 -0.0327032 -0.865196 
60 1 6.12679 5.22232 1.25824 -1.27824 -0.0876875 0.460816 
61 1 5.4492 7.96916 3.30715 0.249205 1.87442 -0.554692 
62 1 0.949869 5.43096 4.32234 -0.167174 0.214063 1.85858 
63 1 1.88627 0.773145 9.07021 -0.364349 -0.990497 -0.993597 
64 1 8.19578 3.63156 8.14966 -0.130441 0.626087 1.1991 
65 1 7.35177 8.14111 1.16227 0.349793 -0.693644 0.160078 
66 1 2.96107 5.20718 4.81384 1.2585 -0.509012 0.515697 
67 1 2.78156 6.30081 6.57106 0.752742 -0.299251 -0.73813 
68 1 4.8063 6.50825 8.99 -0.258054 -0.157878 1.13411 
69 1 4.71049 3.90559 8.57945 -0.915715 1.46649 -0.00998009 
70 1 4.00622 4.86001 0.192356 0.836034 -0.375629 0.892823 
71 1 4.73953 1.69925 6.3854 1.21328 -0.382411 0.363634 
72 1 5.77322 8.74626 7.34318 -0.0428367 -0.683505 -1.03737 
73 1 5.36372 1.28357 9.00458 -0.0467233 0.669943 0.100325 
74 1 3.03582 7.9044 4.83702 0.85891 0.108445 0.800345 
75 1 1.9603 0.934594 2.94227 -1.71805 -0.406824 -0.275347 
76 1 2.18368 4.85406 5.29284 -0.490245 -0.139651 0.373881 
77 1 1.78775 1.11567 5.94231 -0.201871 -0.471519 0.349119 
78 1 6.11922 0.276145 1.73473 0.38951 0.0565409 0.533718 
79 1 4.96074 7.21664 1.94842 0.319747 -1.66215 0.155123 
80 1 3.24919 0.404859 8.01342 0.507964 0.797376 -0.44851 
81 1 1.79296 1.57153 0.362646 0.923434 -1.43655 -0.167254 
82 1 8.86544 9.35812 3.494 -1.21406 0.773352 1.00944 
83 1 7.97151 3.68289 7.25182 -1.60521 -0.220323 0.415908 
84 1 1.31776 2.08483 1.09481 -0.840613 -0.284334 1.18839 
85 1 5.04764 3.80095 1.06293 0.785318 -0.528744 -0.0373152 
86 1 7.16325 1.57052 7.61829 0.0759897 0.661754 -0.00632746 
87 1 4.12664 0.230346 7.02354 0.626914 0.829981 -1.08654 
88 1 2.06384 8.64691 2.94495 -1.2995 -0.302836 0.700643 
89 1 3.3974 7.47714 1.41909 0.0834645 0.368428 -1.26446 
90 1 7.18621 5.7665 9.04766 0.371081 -0.781044 0.0222406 
91 1 6.58886 5.3389 6.25002 -0.240765 -0.451214 -0.194249 
92 1 0.432668 2.38314 1.45211 -0.338229 -0.0346904 -0.744267 
93 1 9.07032 4.72556 4.50326 -0.106533 0.184965 0.0966149 
94 1 6.9937 1.36345 2.53034 0.0260469 0.814638 -0.408807 
95 1 5.77601 4.12241 6.19197 0.000423756 -0.0126455 0.42953 
96 1 0.790818 7.30655 3.2 0.491585 1.65641 1.14563 
97 1 5.02929 7.90693 0.888126 0.437308 -0.48921 1.15242 
98 1 7.43143 0.0924452 0.388536 -1.09647 -0.229678 -0.614915 
99 1 3.16163 1.97463 3.33182 0.149488 -0.576894 -0.951369 
100 1 2.47872 3.44856 3.80144 0.245631 0.906857 0.615318 
101 1 4.77334 8.66387 5.89142 -0.296329 -0.921563 0.687107 
102 1 2.49083 2.50966 4.13561 -0.371541 -0.403591 -0.21858 
103 1 5.89707 2.04041 8.9101 -0.26245 -0.433774 -0.157829 
104 1 6.06556 8.66774 8.22917 -1.57167 1.15415 -0.02111 
105 1 1.64063 7.98092 4.46628 0.443024 -0.0618794 1.33454 
106 1 6.34189 1.38978 4.71038 0.101658 1.41199 -0.363144 
107 1 1.39398 1.45535 3.42721 -0.553519 -0.411758 -0.577224 
108 1 3.72928 8.94946 0.664141 1.39431 0.573211 -0.523568 
109 1 3.28424 2.88905 5.74742 -1.51455 0.25801 -1.11609 
110 1 2.37935 1.45482 1.10465 -0.533688 -0.013291 -1.1181 
111 1 6.95004 4.83128 8.73448 0.968125 0.502277 0.17503 
112 1 6.29327 1.68349 7.20148 -1.24593 -0.501731 -0.503692 
113 1 2.51591 9.01854 5.84025 -0.642703 -0.127535 -0.0437658 
114 1 4.6904 4.85877 8.77609 -0.887917 0.851079 0.165401 
115 1 4.12575 1.47093 5.69717 -0.876977 -0.629383 -0.559266 
116 1 1.59174 2.9924 5.12265 -0.148606 -0.536089 -1.12772 
117 1 7.38257 1.76771 1.04709 0.868048 0.344636 -0.205667 
118 1 0.643821 1.10518 7.90101 0.832264 1.70244 -2.10212 
119 1 4.52147 6.62004 3.60548 1.97292 -0.568834 0.985899 
120 1 8.39052 8.31158 9.03825 -0.0115756 0.225485 -0.324932 
121 1 5.4884 3.84967 9.16751 0.58587 0.749467 0.841245 
122 1 4.78121 7.73048 5.38433 -0.940108 0.286586 -1.49273 
123 1 6.0302 7.95672 8.81326 -0.500844 -0.842233 1.77006 
124 1 7.2919 7.03649 7.91572 0.943679 0.6838 -1.2574 
125 1 1.06265 8.08166 3.67553 -0.59156 -0.266021 0.919339 
126 1 7.24949 1.96383 4.5188 -0.473231 1.42291 0.244049 
127 1 2.15572 0.533883 1.13974 0.193293 -0.553441 -0.957652 
128 1 5.02896 4.68123 1.78339 -0.421183 0.321512 -0.17933 
129 1 6.29484 6.53336 2.68724 0.471889 0.722171 1.16241 
130 1 4.42409 7.80105 7.84747 -1.27546 1.38029 1.0011 
131 1 4.10288 3.75118 0.805143 0.785272 -1.27801 -1.13739 
132 1 7.7876 8.08247 3.55437 -1.3545 -1.30815 0.71055 
133 1 1.74785 3.27271 3.20508 -1.13525 -0.347651 1.68393 
134 1 1.40713 7.98571 2.76468 0.858779 -1.12747 0.0627452 
135 1 1.88996 1.79481 6.58343 -0.856851 0.345268 -0.476157 
136 1 1.316 9.35871 9.24953 -0.0230772 -0.994985 0.0369058 
137 1 6.99786 4.74094 7.74051 -0.536008 0.633147 -0.430838 
138 1 1.28691 1.25988 2.32874 1.67744 -0.802097 -2.22159 
139 1 3.18511 3.61867 3.2153 0.115381 -1.50356 0.240438 
140 1 3.67402 9.31882 2.06185 0.888788 0.552086 0.431307 
141 1 2.15623 0.0686929 0.275087 0.2882 -1.33773 -0.843517 
142 1 5.76275 6.40925 8.73651 -0.531882 0.918737 0.184391 
143 1 6.69288 2.07001 5.31669 0.620504 0.514157 0.607297 
144 1 3.31106 3.67529 5.21723 2.62479 0.78073 -0.4638 
145 1 1.06779 1.20433 5.3181 0.519987 1.6357 -0.0854976 
146 1 8.94667 0.94586 5.65228 0.640949 0.189187 -0.0524951 
147 1 8.47899 1.41285 4.94297 -1.32432 -0.33895 0.522377 
148 1 4.20192 8.63184 7.40177 0.371356 -0.861636 -0.299853 
149 1 0.992314 0.697663 6.17659 -0.00919595 -0.0533611 -1.00972 
150 1 8.78376 1.20536 9.01194 -0.0180876 -0.614612 -0.106638 
151 1 1.58684 8.7324 5.79262 -0.34382 0.46956 0.0140583 
152 1 0.515541 9.11949 2.49527 -0.998914 0.215959 1.06127 
153 1 4.40328 9.19388 9.15863 0.676098 0.525456 0.276044 
154 1 2.51457 1.51243 8.92841 -0.448448 -0.31329 -0.403696 
155 1 9.13791 0.868516 3.46505 -0.286293 -0.119711 -0.773424 
156 1 5.77614 1.50724 5.48628 0.217462 -0.683392 0.420192 
157 1 2.82944 0.409125 8.9783 -0.114777 -0.2147 1.71952 
158 1 7.02049 2.61397 0.675121 0.829742 0.0815355 0.683075 
159 1 3.28545 2.76601 4.77025 0.18029 -0.33122 0.169752 
160 1 3.72931 4.26652 3.69879 0.0962582 -2.24086 -0.576454 
161 1 2.33057 7.7713 2.51897 0.381152 0.431841 0.726985 
162 1 7.07812 2.07141 6.76377 -1.24139 -0.577598 -1.19567 
163 1 3.87348 4.251 8.86934 1.50946 0.782266 -0.608863 
164 1 2.11114 8.82681 8.99803 0.245437 -0.802611 -0.412533 
165 1 0.430866 0.195957 3.33616 0.903883 -0.68013 -0.194295 
166 1 7.89951 4.49415 7.76408 -1.0717 -0.658538 -0.838764 
167 1 9.21425 2.36484 7.83808 0.259525 -0.670872 -0.0946417 
168 1 9.29672 5.71837 7.65181 0.318262 -0.482978 1.04285 
169 1 7.9579 8.08843 6.69292 0.185168 -0.644251 0.91656 
170 1 4.64771 1.43005 7.31408 -0.929601 -0.693294 -0.407956 
171 1 1.65866 0.159593 4.42133 0.850543 0.247142 -0.227018 
172 1 0.240808 1.60573 5.557 0.316285 -0.0975435 1.54154 
173 1 6.97293 6.75625 6.63482 0.426358 -0.477352 0.230107 
174 1 5.07077 4.96407 3.43723 0.980362 -0.587153 -1.09354 
175 1 5.28984 9.20832 1.98683 -0.36104 -0.775135 -0.499894 
176 1 5.11505 4.82955 5.89141 -0.125952 0.373562 1.97624 
177 1 7.51846 9.01252 5.88873 0.268191 -0.0547588 -0.572796 
178 1 7.39444 7.5787 0.326823 1.27466 -0.58088 0.241852 
179 1 4.94622 2.6341 4.77169 -0.239549 0.256017 0.311306 
180 1 5.65825 0.240942 7.07758 -0.42206 0.330247 0.655158 
181 1 3.26113 6.97308 8.41487 -1.32819 0.442736 -0.77609 
182 1 8.46721 9.19073 4.32759 -0.459129 0.256648 0.609349 
183 1 4.85484 0.300725 8.48755 -0.0610402 0.54269 -0.770828 
184 1 6.20531 2.55406 6.83357 0.57228 0.0239131 -0.546303 
185 1 2.78959 9.14348 3.25062 1.35316 0.577698 -0.0446398 
186 1 4.7841 3.23147 7.89826 -0.513649 -0.0508849 -0.774961 
187 1 2.41016 0.883626 8.24389 -0.450289 -0.131894 -1.13593 
188 1 6.70916 6.75745 3.78462 -0.290164 -0.578596 0.920283 
189 1 1.43726 8.94316 2.29781 -0.720762 0.0085647 0.166744 
190 1 3.98288 4.0012 2.80426 0.919664 -0.711048 -0.262627 
191 1 0.172021 3.98137 4.92141 1.36339 -0.300261 -0.680899 
192 1 1.09971 0.571595 8.56141 -1.36595 -0.0836434 0.254906 
193 1 7.58395 0.848689 0.947826 -0.0151801 -0.763944 1.57758 
194 1 5.42516 1.79271 4.63605 0.0418407 -0.166132 -0.227676 
195 1 3.74061 6.18752 8.72106 -0.782642 0.94291 1.18613 
196 1 4.49572 5.51768 1.71884 -0.150254 0.909747 -0.830073 
197 1 4.53488 5.98506 7.29675 1.88138 0.306555 -0.168669 
198 1 3.95022 3.66276 8.02742 -1.49054 -0.199494 -0.890058 
199 1 0.0458726 1.81816 3.29592 0.660853 0.277871 -0.545527 
200 1 5.15475 6.29262 4.2682 -0.661577 0.236712 0.590611 
201 1 3.45991 2.43204 7.70078 -0.865398 0.0847495 0.311748 
202 1 8.01742 2.08357 6.30192 -1.84145 0.840024 0.598472 
203 1 6.428 8.94446 2.52491 1.13916 -0.335421 0.652244 
204 1 0.344534 5.37928 6.85042 0.372767 0.362752 0.755483 
205 1 1.33629 0.224172 5.35976 0.836648 -0.693328 0.91381 
206 1 2.83514 0.766227 4.83808 0.147608 -0.234921 1.74957 
207 1 4.59363 2.63253 3.49958 -0.160649 -0.214654 -0.496738 
208 1 8.34805 3.5381 9.08096 0.537022 -1.20936 0.353594 
209 1 7.71181 4.18388 5.57158 1.86536 0.104267 0.399204 
210 1 3.42239 1.53601 7.40641 -1.24686 -0.435386 -0.132389 
211 1 7.36185 1.15469 5.04207 -0.166428 -0.327267 -1.38013 
212 1 2.27469 6.46568 4.71834 -0.443694 -0.051597 0.892938 
213 1 5.15899 4.2634 4.33736 0.61991 -0.887859 0.23615 
214 1 0.137348 5.21278 3.83805 -0.287265 -0.464324 -0.123685 
215 1 4.37629 7.20421 1.14792 1.82723 -0.0249379 1.15861 
216 1 7.47534 9.0325 7.48434 -0.427025 0.481476 -0.308541 
217 1 3.58693 4.48427 4.62423 -1.9036 -0.0156004 1.88378 
218 1 6.43399 7.17266 9.177 -0.00865794 -1.50639 -0.47191 
219 1 4.50053 0.108752 0.69204 1.01576 0.411904 -0.757346 
220 1 0.0365847 7.81676 3.69684 -0.908182 -0.36552 0.492353 
221 1 6.34665 2.77934 5.93533 -0.00750746 0.541664 -0.876296 
222 1 7.96482 2.45801 0.780874 -1.12695 1.86504 -0.184007 
223 1 9.273 4.25377 3.67372 -0.270155 0.238291 0.342383 
224 1 8.67289 4.92336 8.18014 -1.15179 -1.31907 0.670378 
225 1 7.0777 6.96461 5.52245 0.20289 -1.02651 -0.220226 
226 1 9.37407 1.07237 4.76852 -0.0299861 -0.288583 0.808015 
227 1 3.47782 8.59748 8.02036 0.554826 1.76306 -0.823022 
228 1 6.43998 0.771253 7.39683 -0.100158 -0.684423 -0.766747 
229 1 8.27002 0.0996461 7.76386 -0.257128 1.20114 0.613759 
230 1 3.68914 5.8056 2.11681 -1.28751 -0.581299 0.280221 
231 1 4.30936 6.47898 0.468526 -1.65706 -0.343069 0.857319 
232 1 0.807313 1.37676 0.704369 -0.424409 -1.69686 0.836753 
233 1 2.78706 1.33919 2.70326 0.858681 1.00289 0.913885 
234 1 3.56212 3.33411 1.50553 -0.875265 -1.38183 -0.566784 
235 1 8.67597 2.18072 6.98302 0.358952 -0.596605 -0.456693 
236 1 6.46297 6.12182 1.75814 -0.67245 -0.799653 0.271878 
237 1 8.6075 4.29718 5.19721 1.85097 -0.81019 0.535919 
238 1 5.19395 8.08924 8.3375 -1.04671 0.279384 -0.759315 
239 1 3.24751 1.12699 0.921077 -0.590886 0.679278 0.626575 
240 1 2.20973 6.32448 1.68958 1.07085 0.0167452 -0.480669 
241 1 7.77398 5.25459 8.43208 0.0745276 0.811688 0.960354 
242 1 5.64509 3.50365 8.17669 0.257615 0.739172 -0.591188 
243 1 4.97739 0.962605 5.7206 0.735808 1.0753 -0.0323782 
244 1 6.76377 1.87767 0.155644 -0.346628 -0.135674 0.0411662 
245 1 0.771471 8.48765 9.1595 -0.231642 0.359113 -0.376212 
246 1 2.2135 4.95923 4.28794 -0.318146 0.323657 0.982401 
247 1 4.31996 7.0162 2.74391 -0.240697 -1.25712 -0.855524 
248 1 5.5342 2.25891 6.14475 0.0113187 1.45186 1.34756 
249 1 2.5207 5.18764 3.36537 0.434585 -0.314724 1.07884 
250 1 8.94875 5.49839 6.31538 -0.452496 0.262251 -0.340461 
251 1 2.72641 8.16729 1.64817 0.67405 0.327401 0.8314 
252 1 8.5154 3.28136 0.711856 -0.524216 -0.446646 1.75249 
253 1 7.4571 0.630358 7.47575 -0.745705 -1.03906 0.16373 
254 1 6.77746 8.30897 4.34191 -0.538195 1.3835 0.367339 
255 1 3.31474 2.81718 3.78587 0.948747 -0.833744 -0.85849 
256 1 5.27846 5.29617 8.11308 0.380205 0.0743213 -0.0270484 
257 1 4.0489 8.14258 1.21165 -0.900912 0.150444 -0.593214 
258 1 7.30903 8.08072 5.96496 -1.67455 -0.604931 1.02167 
259 1 3.10895 7.79816 3.88709 -0.155845 0.415767 1.06203 
260 1 3.6292 1.28916 4.87707 -0.373317 -1.35277 0.18648 
261 1 3.06537 6.92001 5.05213 -1.29763 0.813606 0.0829332 
262 1 6.26166 0.642128 6.44673 -1.12311 0.489761 -0.708757 
263 1 5.88398 0.987259 8.23908 1.0295 -0.164725 -0.764051 
264 1 8.93878 1.60268 4.07383 0.130199 -0.573399 0.866635 
265 1 7.71226 2.38276 7.34609 -0.626597 -0.0200331 -0.418816 
266 1 7.56899 6.85648 4.70722 -0.668572 -0.414669 -0.505878 
267 1 1.20099 2.17858 2.04775 0.205529 0.910203 0.0480233 
268 1 5.87035 1.54841 3.82142 0.124931 0.11436 0.880709 
269 1 3.02778 8.67196 6.54204 1.70553 0.333001 -1.35235 
270 1 5.69286 7.81809 1.5635 -2.6564 0.0143585 0.572027 
271 1 8.06676 5.81985 3.49444 -1.1545 -0.0413171 1.26703 
272 1 4.12842 3.30611 6.23535 0.749892 -1.65767 -0.12317 
273 1 5.24354 2.35787 0.115147 0.506058 0.158584 -0.35357 
274 1 5.60197 4.51725 0.71929 0.352533 -0.557372 -0.156687 
275 1 7.48801 2.82474 5.00237 -0.440404 -1.38358 -1.67601 
276 1 6.98654 4.74373 5.16183 0.865681 0.522734 -0.381081 
277 1 7.71876 9.03857 1.1411 -0.839781 1.79384 1.07274 
278 1 2.41479 8.74034 0.830299 -0.576845 -1.01842 0.887985 
279 1 0.286353 1.97623 2.35834 -0.483423 -0.210379 -0.00627615 
280 1 0.433211 3.64032 3.11573 -0.562991 0.301155 0.607388 
281 1 3.29053 8.82857 4.73422 0.5583 -0.129045 -0.224477 
282 1 4.64894 4.1137 3.54097 -0.257206 -1.09258 -0.126931 
283 1 2.90366 6.73189 9.31197 -0.913007 0.215161 0.504495 
284 1 7.12017 2.05575 1.90966 0.802437 0.444314 -0.314907 
285 1 4.17638 4.07499 5.34813 0.481155 -1.43876 -1.09904 
286 1 4.17507 3.21369 2.28871 0.852461 -0.719563 0.588856 
287 1 1.7826 7.20406 6.90834 0.366775 -0.617725 0.76812 
288 1 8.58745 6.06798 7.00594 -0.0554847 -2.15545 -0.186842 
289 1 4.86129 7.21269 0.279398 -0.0357259 0.44725 0.6626 
290 1 7.2278 6.01583 5.79822 -0.881937 -0.542774 1.05545 
291 1 1.22144 0.367071 2.77496 0.869238 -0.342871 0.42047 
292 1 6.27288 2.29669 4.42042 0.820027 -0.601731 0.199151 
293 1 8.29715 0.510814 8.621 -0.668003 0.533429 -1.41739 
294 1 0.94224 2.32532 5.39431 -0.0836363 0.587774 -0.0851292 
295 1 5.97613 2.61294 8.10705 0.398608 1.35622 -0.780295 
296 1 8.84244 8.24939 8.11015 -1.15763 0.240793 -0.142243 
297 1 0.802448 9.06182 1.57085 0.165695 -0.42768 0.270131 
298 1 2.10415 5.64903 5.80235 0.511296 -0.298571 -0.260698 
299 1 4.41861 0.150479 6.10157 0.397253 0.34521 -1.86051 
300 1 7.50453 2.31639 8.2592 -1.1171 0.343093 -0.125584 
301 1 9.28575 0.215393 6.16991 0.485243 -0.140935 -0.0234791 
302 1 7.05908 7.71892 6.81373 1.90316 0.742793 0.464568 
303 1 4.95781 1.47385 0.4508 -0.246973 0.0484189 1.28378 
304 1 2.60164 2.24157 6.06127 0.207172 -1.20869 0.011996 
305 1 6.50633 7.26373 7.39809 -0.343868 -0.437795 -0.324643 
306 1 1.37535 4.69365 4.79207 -0.638679 0.423179 -1.06666 
307 1 8.26578 6.82898 7.87603 0.252873 -1.1115 0.845351 
308 1 8.42005 0.430395 1.11876 0.780994 0.07426 -0.10585 
309 1 0.441656 4.90095 5.02985 -0.861571 -1.60226 -0.965165 
310 1 7.5244 3.80807 6.43763 0.0657818 -0.435015 -1.28956 
311 1 0.276805 9.13834 6.88205 0.55918 0.698486 0.411187 
312 1 2.09492 8.34917 8.18637 -2.3185 -0.568061 -0.336752 
313 1 9.28332 6.94046 5.30365 0.407236 0.601758 -1.73722 
314 1 2.48383 0.536572 5.73184 -1.07332 1.34167 0.0599159 
315 1 0.122204 2.71537 2.97603 -0.228002 -0.238963 -0.870142 
316 1 4.17345 6.46474 4.47515 0.334816 -0.410176 -0.975662 
317 1 8.42306 1.49854 3.29304 0.315726 -0.733441 -0.162767 
318 1 3.38656 1.1789 9.32035 0.959254 0.16584 0.512128 
319 1 7.12736 8.64276 6.69716 -0.771004 -0.0108687 -0.483759 
320 1 6.11542 0.654384 4.09615 0.802014 -0.227427 0.00619455 
321 1 2.96599 0.201019 0.747677 -0.125957 -0.525971 0.269786 
322 1 5.39967 7.03838 1.0937 -0.134156 -0.404643 0.909419 
323 1 4.55852 2.31321 2.61628 1.10117 0.778974 -0.807708 
324 1 0.62893 0.0982778 7.88741 1.11922 1.53526 0.379874 
325 1 7.95661 3.20629 5.78627 0.48608 -0.469056 0.376766 
326 1 5.89607 3.00594 8.98534 0.580358 -1.34404 -0.215728 
327 1 7.01778 8.93662 9.1501 0.00669044 -0.838982 0.580157 
328 1 1.37257 6.32835 4.35379 -0.371621 0.599106 1.00135 
329 1 7.58495 0.306153 1.79149 0.782455 0.439112 -0.956716 
330 1 8.82695 8.80521 6.48854 0.00626216 0.489103 0.281407 
331 1 0.256675 0.92226 8.77657 0.304267 -0.506353 0.410433 
332 1 4.30382 5.54574 0.779513 0.735912 1.07324 1.05836 
333 1 2.5947 8.66447 7.45823 0.644958 0.693363 0.457901 
334 1 5.86981 8.44792 0.637447 -0.288363 0.169192 0.0767364 
335 1 0.897072 2.07127 3.89102 -0.151299 1.26411 -0.161578 
336 1 3.20436 8.17039 0.72334 0.586427 0.499368 1.15421 
337 1 5.80529 9.33385 4.66661 0.418181 0.0324329 0.337545 
338 1 5.32641 2.69258 1.97158 0.122378 1.03516 -1.08167 
339 1 6.4087 5.64728 5.34824 0.219483 0.903818 -0.233053 
340 1 2.75345 5.89461 2.3713 0.0241506 -0.546151 -0.287076 
341 1 4.19611 8.93511 4.34319 0.160073 -0.609817 -0.255311 
342 1 7.82889 1.17908 8.17143 1.05132 -1.24108 1.03074 
343 1 2.99304 6.74877 4.06657 0.1105 -0.651966 0.144487 
344 1 7.62351 8.75748 4.27946 -1.51021 1.37541 0.633478 
345 1 7.23387 3.80475 4.81675 -0.0349762 -1.47546 -0.562255 
346 1 3.89884 1.60257 1.42061 -1.16256 0.215997 -0.301229 
347 1 3.93207 6.99731 9.16392 -0.440053 0.993143 0.597716 
348 1 7.00623 8.72703 3.48404 -0.442467 -0.985016 -0.116298 
349 1 3.23167 7.46527 2.38418 -0.452439 0.613313 0.662531 
350 1 6.34112 4.0812 8.76477 0.362546 -0.0899477 0.118738 
351 1 3.57218 1.09087 3.17512 0.0148269 1.16204 0.0198267 
352 1 8.3641 0.193322 5.94726 0.684305 0.151388 -0.36552 
353 1 4.97779 8.92682 7.8428 0.0240817 -0.11622 -0.0843378 
354 1 1.73927 2.38368 3.52534 -0.86278 0.588097 -0.503758 
355 1 4.09767 3.36735 9.14441 0.584367 1.83081 -0.0652268 
356 1 3.9713 6.22064 5.37953 0.680548 -0.47069 0.808908 
357 1 7.71477 0.73767 2.62122 0.264572 0.208606 -1.33223 
358 1 6.70945 6.45179 8.50167 0.352928 0.471611 1.20925 
359 1 7.3326 7.12773 8.85835 -0.505899 1.11093 0.828089 
360 1 4.63786 0.393986 4.46025 0.0640426 -0.759234 -1.97093 
361 1 5.87777 0.305579 2.63675 0.472865 -0.538649 -0.431905 
362 1 4.43264 5.69433 3.92392 0.359817 0.596363 -0.216723 
363 1 1.28939 3.97466 2.74501 0.632608 -0.0984421 0.522173 
364 1 0.0745154 6.28481 6.63161 0.966951 0.0154577 -0.225172 
365 1 2.41918 8.0914 0.120537 0.434424 1.1171 -1.03756 
366 1 5.24358 6.88584 2.94391 0.748307 -0.694649 -0.627238 
367 1 6.37493 4.44384 6.90469 0.925997 0.707694 -0.485089 
368 1 1.01842 3.02109 2.57255 -0.446441 -0.540062 -0.618519 
369 1 8.07699 2.14654 1.69844 0.0394021 -0.239335 -0.856007 
370 1 4.03778 0.379632 2.76566 0.516088 0.230402 -0.722708 
371 1 4.91751 3.55017 5.00041 -0.718025 1.23965 -0.499902 
372 1 3.38599 6.70208 5.94913 1.06675 -0.383469 0.447773 
373 1 8.69645 1.30424 6.55993 -1.19987 -0.230194 -0.364637 
374 1 0.888853 6.90445 6.65571 -0.157957 -0.337696 -1.07765 
375 1 1.06947 0.236332 7.01314 0.3002 0.245801 -0.900395 
376 1 7.74683 2.70611 2.40653 0.471072 0.768386 -0.695271 
377 1 1.18167 3.86032 3.70337 0.345381 1.51936 -1.18132 
378 1 3.80014 5.37622 7.5315 0.150027 0.661013 -0.130968 
379 1 3.67898 0.903127 2.05116 -0.2161 1.66616 0.479167 
380 1 6.8334 1.11242 1.59061 -0.864865 -0.886086 -0.974361 
381 1 4.10777 9.36895 7.97966 -0.716287 -0.631885 0.522503 
382 1 7.36656 6.22524 1.34365 0.19103 -0.0077627 0.343321 
383 1 8.81391 9.07714 8.57238 0.221985 -0.263883 0.585856 
384 1 4.93016 4.13305 7.66868 0.0327358 -0.244487 -0.226022 
385 1 8.21968 3.09528 4.07876 0.62989 -0.776574 0.0325282 
386 1 5.40188 7.27932 8.91493 0.447355 -0.332478 -0.317524 
387 1 0.844062 7.87291 6.9562 0.597753 -0.537416 0.147621 
388 1 9.19381 0.323678 2.6498 0.0644043 0.710445 1.08059 
389 1 2.96723 8.93856 0.0618188 -0.434857 0.714831 0.668498 
390 1 4.30879 2.44255 9.30611 -0.00997415 -1.02229 -0.758866 
391 1 1.08045 7.18758 7.58403 -0.164663 -0.412465 0.722122 
392 1 5.31826 7.14524 3.87482 0.284358 -1.01444 0.292514 
393 1 5.1724 8.84958 1.10952 0.606169 -0.194323 0.240486 
394 1 2.58809 1.44829 5.49821 0.148145 0.901885 0.0172768 
395 1 8.6337 0.71242 4.27899 0.405033 0.145698 0.640348 
396 1 7.22476 8.20646 2.73295 1.20338 0.194255 0.175365 
397 1 1.51383 7.10588 4.87186 0.978335 0.100577 -0.949098 
398 1 6.68017 1.06993 0.622045 0.399612 -0.0726702 -0.869337 
399 1 1.67058 2.52705 5.9898 -0.166667 0.49465 1.0321 
400 1 5.99289 6.77765 4.41386 -0.983199 -0.22885 0.949543 
401 1 7.95895 6.6252 5.53048 -0.761306 0.450227 0.805843 
402 1 0.547927 0.634681 2.12935 0.183111 -0.147737 0.196305 
403 1 4.8351 4.35532 2.64697 0.103534 -0.432488 0.554563 
404 1 8.3893 4.81712 5.96295 -0.295005 -0.382798 0.214974 
405 1 7.72699 7.37975 2.88138 -1.32848 0.697238 -0.268023 
406 1 1.21737 8.87452 8.40744 1.76429 0.265273 0.187226 
407 1 7.3276 6.47351 3.11054 -0.600632 -0.0954949 0.403135 
408 1 4.13039 2.85376 4.31896 -0.398009 -0.308946 1.13779 
409 1 9.23635 7.67666 4.62429 -0.603978 -0.575856 0.556156 
410 1 9.17132 6.70996 4.385 0.138391 -1.17837 0.246217 
411 1 6.57832 0.485718 4.92128 -0.336067 -0.354677 0.722391 
412 1 2.08972 8.75842 6.66256 -0.284627 0.507834 2.28491 
413 1 1.09742 3.73969 4.68152 0.937665 -0.12235 0.184353 
414 1 5.65222 6.30589 5.1984 -0.955749 0.378028 -0.554112 
415 1 0.625986 3.27095 5.37875 0.112249 -0.855168 -1.4884 
416 1 9.18201 8.831 5.5923 -0.0372776 -1.18015 0.699358 
417 1 3.11386 1.22194 4.045 -0.293527 0.89076 -0.849177 
418 1 1.3877 1.34406 4.37728 0.0216435 -1.84794 0.142996 
419 1 8.17176 0.609803 3.44512 -1.16579 -0.486026 0.464115 
420 1 4.13924 4.19926 7.13733 -0.0828922 -1.03303 -1.56552 
421 1 5.2354 0.392441 1.20997 0.111585 0.14379 -0.324649 
422 1 8.38718 8.60933 7.35841 0.481378 -0.814922 0.505546 
423 1 1.64764 1.62526 7.48315 0.802089 -1.20427 -0.0357715 
424 1 7.84474 1.77581 2.60463 -0.188738 -0.696038 1.72944 
425 1 9.07921 4.53813 6.65662 -1.35271 -0.783256 -0.94492 
426 1 7.45014 1.26385 3.34968 -0.348329 -0.132561 0.879302 
427 1 4.10371 2.37636 5.98025 0.649104 -0.484092 0.233472 
428 1 5.55996 3.1808 6.42598 1.36028 -0.881186 0.00192864 
429 1 3.71518 5.19394 8.70546 -0.320277 -1.24345 -0.990105 
430 1 5.73813 6.14468 1.10041 0.549017 0.891452 1.51999 
431 1 4.16724 4.61726 8.03081 -0.461137 0.573761 -0.797323 
432 1 3.16607 2.20306 1.16251 0.843141 -0.235366 0.309626 
433 1 5.51394 1.08729 2.98994 -0.466759 0.0725205 -1.87298 
434 1 6.31062 0.00298549 3.39432 0.660624 0.974956 2.00797 
435 1 0.636855 4.42856 6.44226 1.34055 -0.168485 0.401433 
436 1 3.54764 9.20535 8.73994 0.198293 1.88249 -1.74399 
437 1 1.49221 1.19632 1.35624 -0.573661 0.100348 -0.0764129 
438 1 6.31353 2.84196 1.3217 -0.686519 0.190907 -0.376954 
439 1 6.76889 7.36797 2.69566 -1.14746 0.702652 -0.99857 
440 1 4.02317 4.84114 2.28814 0.294199 -0.0585869 0.00723544 
441 1 5.85755 0.503462 5.54296 -0.597137 -0.137609 -0.109707 
442 1 0.093295 4.76873 7.54647 -1.05791 0.35784 -0.328402 
443 1 7.93416 0.688749 6.63882 -1.15764 -0.0155348 -0.822082 
444 1 7.91435 1.32379 4.1723 -0.850363 -0.815972 -0.018184 
445 1 8.44887 2.90798 7.53889 0.992306 0.444626 0.388451 
446 1 6.48176 7.82617 1.04302 0.522099 -1.08702 0.920131 
447 1 2.65011 1.88202 8.00927 -0.635067 0.585701 0.173727 
448 1 4.31162 8.9884 1.46826 0.485549 0.765025 0.125494 
449 1 4.56576 1.00589 3.21375 0.33359 -0.408121 -0.937481 
450 1 0.0444174 2.56949 5.5753 -0.547947 -0.736066 0.62612 
451 1 8.61562 6.98301 6.75977 -0.527845 0.649341 0.526111 
452 1 8.3532 1.92602 7.87038 1.83527 1.02847 -0.737968 
453 1 4.59051 1.96501 4.17695 -0.324084 0.0668708 -0.24278 
454 1 4.14023 4.98794 3.22512 -0.726896 -0.75215 -0.219277 
455 1 1.65097 9.09072 7.54912 -0.127478 -0.302936 0.390181 
456 1 7.01671 8.68888 8.24094 0.36809 1.24299 -0.7538 
457 1 5.03707 4.43613 6.74465 0.886403 0.798487 -1.34662 
458 1 8.98716 6.34679 8.43848 0.764607 1.4139 0.092053 
459 1 3.26046 0.682893 7.06795 0.307965 0.157676 -0.545232 
460 1 8.64606 2.40106 3.54246 0.358975 -1.78059 0.586566 
461 1 5.53547 1.11064 7.35567 -0.411779 -0.343044 -0.417366 
462 1 6.5621 9.27043 7.59354 0.384134 -1.22224 -0.205108 
463 1 1.22565 7.97512 8.09433 0.0197023 -1.66384 -0.128488 
464 1 8.46491 7.14682 4.87642 -0.745548 -1.08762 0.323645 
465 1 7.39965 3.16303 7.79524 0.319613 -0.156508 -1.22601 
466 1 4.58796 8.53286 3.37702 0.222859 -2.32311 3.13092 
467 1 1.65124 2.87556 1.53805 -0.131365 0.0962804 -0.39208 
468 1 3.77459 8.42482 9.23438 0.737694 0.97614 -1.40265 
469 1 5.26627 8.91655 8.74085 -1.21284 -0.647587 0.998849 
470 1 5.48358 4.40839 8.37607 -0.333234 -0.146941 0.265433 
471 1 7.25372 4.03806 9.23111 -0.289952 0.448949 1.12379 
472 1 6.72963 5.14208 0.256334 1.13501 0.967001 -1.00367 
473 1 6.5238 8.07977 2.05315 1.11795 0.214203 -0.0927226 
474 1 5.74655 5.05971 6.575 -0.742691 0.55562 -0.76785 
475 1 3.30062 1.2725 8.36172 0.0846806 -0.912565 -0.00132963 
476 1 5.8702 5.52347 0.369176 1.28097 -0.312824 0.181757 
477 1 1.79215 7.1289 3.029 -0.205364 -0.924971 0.553057 
478 1 1.14599 8.74719 6.66337 0.680234 -0.0707616 -0.44549 
479 1 7.63442 3.26577 0.308312 1.07349 -0.724805 0.126509 
480 1 9.27817 3.02391 4.72916 -1.09364 -0.332766 0.634454 
481 1 6.09869 4.81931 5.66769 -0.318324 0.962736 -1.40722 
482 1 4.0711 7.71943 0.38169 -0.823887 -0.175896 -0.978061 
483 1 6.86886 0.889148 8.23115 -1.15767 0.0384067 0.439413 
484 1 9.02042 0.961355 0.522828 0.619175 -0.0948497 -0.710435 
485 1 5.09054 5.93214 3.25196 -0.0864746 -0.171433 -0.202156 
486 1 6.71808 3.2586 9.36028 1.76317 -0.930384 0.248423 
487 1 9.32175 -0.000417039 1.75837 0.890588 0.714224 0.0411797 
488 1 6.94787 5.61297 8.10458 0.102219 1.28467 -0.466141 
489 1 0.0959368 6.0439 5.61912 0.234607 -0.110042 -0.837447 
490 1 0.0596741 2.80603 6.99277 1.06432 0.2632 0.790428 
491 1 1.65141 3.13153 4.16146 0.148009 -0.538309 0.269087 
492 1 0.628503 4.46757 4.21516 -0.598413 0.477289 -0.113448 
493 1 5.12529 9.01238 4.08508 0.391135 0.940345 -1.05257 
494 1 6.77498 7.32206 4.54097 1.14781 0.326668 0.402105 
495 1 2.65285 1.18653 6.43584 -0.0503027 -0.434019 0.00150972 
496 1 5.38767 7.00393 5.87673 1.14257 -0.205118 0.0375628 
497 1 7.66789 5.36513 7.48249 -0.264321 -0.697177 -1.27418 
498 1 0.751374 6.73915 5.73081 -0.00419428 -0.452213 0.495219 
499 1 7.8295 2.00195 5.31927 -0.410019 -0.441784 -1.08112 
500 1 4.47172 0.0787878 3.56159 -1.37439 0.0526049 1.461 
501 1 6.10647 4.83816 4.69059 0.420686 -0.258005 0.497531 
502 1 4.99916 7.80736 6.3041 0.359584 -0.816793 -1.80654 
503 1 6.6116 5.79259 3.64204 -0.753664 -0.476012 -0.32797 
504 1 3.30293 3.62019 4.26685 -0.773543 0.372458 -1.44654 
505 1 1.78967 8.19134 1.8581 0.751825 0.737329 -0.338945 
506 1 2.11113 6.5843 3.77034 0.618586 -0.434172 -0.166309 