ITEM: TIMESTEP
2121
ITEM: NUMBER OF ATOMS
1000
ITEM: BOX BOUNDS pp pp pp
0.0000000000000000e+00 9.4000000000000004e+00
0.0000000000000000e+00 9.4000000000000004e+00
0.0000000000000000e+00 9.4000000000000004e+00
ITEM: ATOMS id type x y z vx vy vz 
1 1 8.50886 4.0711 1.94336 -0.460175 -0.224136 0.476906 
2 1 4.02841 9.35693 4.26852 -1.19362 0.485141 -0.281602 
3 1 0.307434 3.37496 3.92661 0.015261 -1.6154 -1.03742 
4 1 3.85276 3.73833 3.1716 -0.222498 1.07001 0.580467 
5 1 0.33033 4.73381 3.99394 0.218205 -0.513167 -1.06289 
6 1 3.89621 6.28876 0.562391 0.337571 -0.67048 1.24162 
7 1 8.57981 7.33411 2.41588 -0.635567 -0.977263 -0.340404 
8 1 0.211803 3.55441 7.05085 0.328464 -0.334964 -1.89709 
9 1 0.352601 2.63657 7.3277 -1.2793 -0.943992 1.63722 
10 1 5.51457 2.08757 0.479836 -0.214915 0.548772 1.31531 
11 1 1.11902 4.68029 7.81611 0.761762 0.394325 0.541054 
12 1 4.6332 4.58649 1.94554 -0.486039 1.37929 1.01185 
13 1 3.43289 0.361 3.32129 0.670145 -1.1466 -1.13857 
14 1 3.05273 2.13624 0.295715 -0.976887 0.712294 -0.0999832 
15 1 7.8926 1.6432 9.14417 1.71395 0.099538 0.169371 
16 1 0.459633 6.9881 4.0474 0.388238 -0.0282355 0.182402 
17 1 8.83976 0.533333 7.96081 1.27538 1.22639 0.0638676 
18 1 7.18142 1.2615 7.1005 -0.448233 -0.173542 -0.248811 
19 1 6.975 7.33854 4.46882 -1.09203 0.0601136 0.190173 
20 1 7.37691 9.06155 3.14288 -0.684105 0.360987 1.33176 
21 1 3.2346 0.47676 4.25899 -0.417852 -0.742641 -0.362396 
22 1 0.44782 8.17398 3.26171 -0.723561 -0.164029 0.669917 
23 1 1.04759 5.19123 4.42255 -0.525647 0.175933 -0.684498 
24 1 0.505093 7.73203 0.919432 0.165556 -0.157085 -0.994231 
25 1 6.30717 4.65922 1.91095 -0.481803 -0.740259 1.02417 
26 1 0.262581 6.1014 7.42669 0.304463 0.847668 -1.83049 
27 1 0.802298 0.978817 2.20823 0.742796 0.147714 1.34462 
28 1 5.72316 3.41425 3.90528 -0.662424 0.278588 -0.821015 
29 1 5.1057 1.90032 2.05195 -0.954934 -1.24855 -0.722636 
30 1 2.56348 5.16936 2.48223 0.0695473 0.233856 -0.395768 
31 1 9.39829 6.47878 4.7558 0.618773 -0.033641 -0.224688 
32 1 7.51463 3.05611 6.96091 -1.61582 -1.02264 0.770206 
33 1 4.15699 7.0145 8.60344 0.0719078 -0.400359 -0.837774 
34 1 4.8916 0.461967 0.0750818 -1.94141 -0.879986 0.30129 
35 1 2.67333 9.20954 3.05043 0.890885 -0.347791 -0.475202 
36 1 5.63727 3.0256 6.58197 0.574443 1.154 0.364183 
37 1 3.7265 2.87936 8.23969 0.825156 1.46394 -0.456166 
38 1 1.42457 8.07212 3.21665 1.6013 -0.544792 -0.178421 
39 1 8.9395 2.45061 1.73133 0.869715 0.72469 0.500624 
40 1 4.68372 5.50692 5.14468 0.4562 0.48175 -0.451979 
41 1 1.2712 3.07256 5.7373 -0.343679 0.0664363 -0.687054 
42 1 4.12485 3.40098 0.574308 1.06432 -1.19352 0.289353 
43 1 3.6491 4.79287 9.05314 0.235651 -0.986509 -0.278423 
44 1 3.34962 0.357867 7.26746 0.0964807 -1.16629 -1.68892 
45 1 0.759264 1.87111 2.63787 -0.694241 0.00214344 1.04342 
46 1 4.32009 5.3777 4.0622 -0.685186 0.290544 0.958713 
47 1 5.99139 5.44633 4.87543 -1.23075 -0.561277 0.243447 
48 1 3.13634 3.91068 5.19728 0.385874 -1.02568 -0.279835 
49 1 7.82539 6.49294 2.87664 -0.105902 0.720574 -0.796983 
50 1 4.17179 6.91894 4.44161 0.0419825 -0.113793 0.641493 
51 1 8.07109 1.39391 0.758565 0.368347 0.42681 0.505048 
52 1 8.95785 8.97394 7.91233 -0.961627 0.272821 0.0746946 
53 1 2.25346 4.11627 0.0153159 -0.435539 1.55087 0.716424 
54 1 1.87795 3.64353 4.08201 0.579289 -0.0626439 -0.403321 
55 1 0.924464 2.09968 5.90733 -0.323482 1.26979 0.0992275 
56 1 3.037 3.51856 9.06095 0.172527 -0.176862 0.236557 
57 1 6.91993 7.82259 5.32093 0.0742958 0.0406566 0.187866 
58 1 6.90646 9.24052 6.32813 -0.30778 0.286881 -0.0496021 
59 1 3.4096 1.22551 4.86136 -1.02678 0.660258 -1.40852 
60 1 5.96371 1.94296 2.47264 0.561142 -0.278464 0.408539 
61 1 1.88087 7.2321 1.63741 1.83017 0.119165 -0.559139 
62 1 2.48996 1.38355 1.97017 1.08684 -0.861424 0.684313 
63 1 0.51754 2.55541 4.48526 -1.0107 0.556602 1.07682 
64 1 7.14883 3.67019 0.634854 -0.436071 0.464845 -0.222611 
65 1 8.22359 4.27872 8.80806 0.629215 0.145297 0.63306 
66 1 7.03757 1.10936 3.52528 -1.66913 0.893973 -0.575748 
67 1 5.26842 1.37401 9.21636 -0.591644 0.508222 -1.81359 
68 1 6.6152 8.63023 8.28704 -0.928238 -0.180849 -0.450208 
69 1 2.40307 9.29689 4.30272 -0.671928 0.0717739 1.10292 
70 1 8.88298 3.04031 7.48541 0.921879 0.800853 -0.450481 
71 1 3.41831 2.76061 4.30538 -0.489785 -1.23755 0.154671 
72 1 7.74298 5.21135 1.22329 1.08619 1.53787 0.100898 
73 1 1.27289 2.41823 5.05441 -0.545683 -0.306303 0.224437 
74 1 1.62828 0.141 3.76455 1.34672 0.334532 0.190397 
75 1 0.17422 0.0215087 8.48191 0.746176 0.58095 1.45716 
76 1 3.18643 8.98663 3.83509 0.181065 0.231099 -0.0733397 
77 1 1.33582 4.11381 8.83233 0.356911 0.329472 1.09783 
78 1 3.4406 6.22316 5.45201 1.41145 -0.239397 0.391118 
79 1 4.32974 6.05191 7.67772 -0.518635 -0.314273 -1.18562 
80 1 6.80583 3.79986 2.2763 0.467787 0.457412 -0.0331212 
81 1 0.220029 4.03944 4.64811 0.561399 -0.634624 1.24002 
82 1 7.31395 2.94489 5.58849 0.871495 1.54402 0.00397331 
83 1 0.492368 4.58368 9.3535 -0.165138 -0.805403 -1.50934 
84 1 8.76289 0.3646 8.89135 -1.18519 0.772558 -0.893749 
85 1 2.18886 2.05635 0.807292 0.6832 0.0454018 -0.00308267 
86 1 9.07691 2.22497 4.85552 0.684106 0.343402 -0.423515 
87 1 1.84137 7.15808 3.28323 -0.145063 0.142248 -1.31963 
88 1 5.23284 8.37307 7.02892 0.128679 -1.17232 0.343133 
89 1 1.36621 2.16197 8.80141 -0.746634 1.06942 -0.365056 
90 1 1.99108 4.79885 8.77614 -0.141503 0.0822023 0.0235153 
91 1 9.28557 8.56397 0.944554 0.541888 1.1317 -1.22546 
92 1 8.82523 4.99193 9.30355 -0.951834 -0.0246584 -0.0887407 
93 1 6.38133 6.38012 4.8237 -1.95801 1.00124 0.474817 
94 1 2.5449 3.90393 3.42546 -0.33437 0.018162 -0.906186 
95 1 8.62959 2.21122 8.82781 -0.758688 -0.150595 -0.736266 
96 1 6.21311 2.78119 4.99309 0.190184 -1.8415 0.56384 
97 1 3.85097 0.361852 6.13094 -0.0111571 -0.227755 -0.663765 
98 1 5.01862 5.43356 7.98474 -0.00123501 -0.123595 -0.350856 
99 1 2.9271 2.30344 5.65566 -0.3924 -0.103677 1.5651 
100 1 0.304558 6.43792 1.7459 0.0869311 -0.634617 -0.159861 
101 1 0.402487 0.0319301 0.779349 0.00314505 -0.247433 1.06701 
102 1 1.94365 0.384879 2.825 -0.802877 0.39143 -0.294591 
103 1 5.67824 0.494523 8.91598 -0.337127 -0.896134 0.163206 
104 1 2.5936 5.13355 7.98535 -0.404927 -0.186805 -0.261042 
105 1 6.16829 1.39904 3.95647 1.05586 -1.33389 -0.395514 
106 1 0.268323 0.584988 3.67184 -1.18124 -0.231605 -0.607212 
107 1 0.0831075 8.93644 6.63027 -0.108992 0.245594 0.199258 
108 1 4.23937 6.44556 1.84121 1.25183 -0.0342932 -0.940366 
109 1 0.13169 5.25843 1.53269 0.291591 -0.236802 0.407381 
110 1 1.49602 2.58583 6.50684 0.32234 -1.18165 -0.353143 
111 1 6.5903 3.32437 4.31262 -0.20733 1.82368 0.7287 
112 1 2.69236 6.16443 7.98382 -0.534081 -0.288248 0.886849 
113 1 1.32453 6.92079 6.28224 2.16993 0.488492 -0.491491 
114 1 0.924752 0.838266 0.40736 -0.100243 -0.319402 -0.226281 
115 1 1.11614 4.82783 3.40124 2.08995 -0.00211358 -1.30885 
116 1 8.48603 5.52104 0.703843 0.369372 0.500584 -0.779328 
117 1 6.82343 5.50898 0.949556 0.529013 -0.862703 -0.0770367 
118 1 2.17885 5.93485 5.43454 -0.920046 0.314394 0.712859 
119 1 4.67772 6.65466 0.974248 0.326799 -0.8958 -1.02714 
120 1 4.20973 8.60452 8.49429 -0.0406055 0.139487 1.08399 
121 1 7.37167 2.61236 1.91585 0.548516 0.338384 0.472561 
122 1 8.16055 2.41151 2.39954 0.0387149 -0.00571978 -0.096154 
123 1 8.4111 7.76165 5.02343 0.314673 0.221099 -0.544111 
124 1 3.55757 0.686437 0.977719 0.266129 0.0950699 -1.82022 
125 1 4.18369 9.29945 0.815966 -0.435565 1.15238 0.628584 
126 1 7.29272 0.292669 5.47112 -1.81799 -0.60578 0.0797259 
127 1 8.18973 3.45848 5.71081 1.19347 0.38168 -0.103429 
128 1 3.22854 6.71177 4.63268 0.715187 -0.561537 -0.21046 
129 1 4.42871 8.99969 9.34511 0.887144 0.625851 0.288024 
130 1 3.8172 7.81975 8.10485 -0.682921 0.202932 -1.26526 
131 1 1.50312 4.04272 7.19087 -0.837598 -0.196166 -0.687835 
132 1 8.74353 0.0575756 7.10172 -0.611124 0.550889 0.262669 
133 1 8.05214 3.81236 3.40672 -0.429004 -1.29862 1.56463 
134 1 0.87799 7.53731 7.24755 -1.09504 0.180608 -0.739554 
135 1 1.16269 3.30171 3.46138 0.528721 1.07963 -1.09698 
136 1 3.85462 4.7872 6.59698 -1.44139 -1.0203 0.0155683 
137 1 8.43567 3.33442 6.6561 1.60542 -0.714353 0.95076 
138 1 6.46435 3.02659 1.6791 1.04765 -1.50469 0.0418904 
139 1 2.38004 7.09838 7.88903 -1.34877 0.685239 0.305226 
140 1 0.906006 8.13984 9.04579 0.346083 0.17363 0.299024 
141 1 0.420705 4.89904 5.04566 0.966833 -0.167019 0.161961 
142 1 4.50989 1.89368 5.59661 -1.29261 -0.763546 0.842698 
143 1 0.94986 1.59201 0.944996 -0.719821 -0.0925004 0.805987 
144 1 8.99327 2.66374 2.76843 -1.00776 0.365551 0.671479 
145 1 4.33218 8.26509 6.58909 0.419073 1.81713 0.122215 
146 1 1.02102 4.73127 1.78784 1.04221 0.517827 -0.481417 
147 1 4.29702 7.02516 3.0592 0.564559 0.923481 0.42668 
148 1 4.828 1.85061 1.13339 -0.595931 -0.551036 0.55945 
149 1 8.77934 6.41229 2.06045 1.08068 -1.89211 0.802061 
150 1 9.23166 3.16546 4.75323 -1.33462 1.63646 -0.124845 
151 1 5.59025 2.15914 4.07173 -0.158376 1.02933 -0.204859 
152 1 4.56292 2.12327 0.181472 0.567489 -0.105229 0.262835 
153 1 6.67393 2.58021 7.80728 -0.163772 0.700082 0.21118 
154 1 5.32376 2.81709 4.65199 0.0843353 -0.645988 -2.11712 
155 1 1.77443 0.746215 1.95761 0.0758569 1.1406 1.01113 
156 1 7.957 3.21731 0.781314 0.504592 0.113107 0.773967 
157 1 3.99473 3.73011 5.91402 0.270362 0.914453 -1.99077 
158 1 7.47982 8.65923 4.00842 1.38139 -0.342354 0.451769 
159 1 3.57852 6.35095 2.90998 1.48462 1.52015 0.810953 
160 1 6.37228 1.21118 0.752924 -0.847956 -0.572659 -0.49684 
161 1 3.35773 7.70877 0.725786 0.673841 0.324065 0.696236 
162 1 0.571475 6.32162 0.105704 -0.722278 0.497995 -0.0726869 
163 1 6.12558 0.26152 6.74316 -1.09276 -1.37515 1.2272 
164 1 6.39736 2.15912 0.836151 0.189588 1.00046 0.513251 
165 1 6.86928 6.93359 3.02785 1.07681 -1.3565 -0.505335 
166 1 7.24844 4.44471 1.71837 -1.05877 0.394597 0.934539 
167 1 3.03718 5.57175 3.17923 1.99815 -0.317518 -0.251799 
168 1 0.141189 1.11371 2.88705 1.61087 0.338518 -1.33143 
169 1 3.02673 2.20024 3.58338 -0.621589 -1.46692 -0.205109 
170 1 3.60925 3.82713 8.26111 -0.588522 -0.246502 -0.655598 
171 1 9.3194 2.54406 0.0373022 -0.976561 0.141313 0.158336 
172 1 6.37032 0.185555 5.12496 0.497298 -0.5282 -0.0350404 
173 1 6.91207 3.12277 8.58842 -0.824147 -0.211554 -0.730382 
174 1 1.81592 6.19311 6.5974 0.516947 0.725711 0.324227 
175 1 5.30202 9.27293 6.42261 1.43474 0.410851 -0.813319 
176 1 5.59229 3.35529 1.31348 -0.52082 0.0723768 -0.141314 
177 1 8.78481 6.56618 2.99033 -0.946196 0.104486 -0.0931783 
178 1 3.28764 5.57972 6.57009 -0.766326 0.561917 -0.811094 
179 1 2.21553 4.76142 5.57491 1.18484 -0.125726 -0.607769 
180 1 8.95269 4.79006 4.60087 -0.146807 1.3411 0.311848 
181 1 8.10563 0.968959 8.42096 -1.09883 -1.07602 1.77085 
182 1 7.97916 0.592473 3.21815 0.758244 -0.364765 0.0914647 
183 1 2.53683 5.6782 7.15595 -0.185956 -0.649372 -0.148197 
184 1 4.94871 8.6773 7.89154 1.343 0.097319 -1.68132 
185 1 6.038 5.01993 3.98947 -0.572047 -0.412415 0.275303 
186 1 7.88951 7.78891 4.18787 -0.982727 -0.950219 0.95386 
187 1 4.59272 4.97592 9.21963 -1.03757 0.391925 0.162986 
188 1 9.26392 4.33569 5.55554 1.46092 -0.433062 0.739259 
189 1 7.36701 3.49568 1.57116 0.29601 0.233299 -0.300515 
190 1 0.670369 5.82601 5.04098 -0.0313996 0.902252 0.872749 
191 1 3.70462 9.02171 6.73674 1.54836 -0.684485 -1.24643 
192 1 7.90199 0.770139 2.22801 -0.0516603 0.0849177 0.150896 
193 1 5.04322 2.36912 6.18263 0.181291 -0.121596 0.154896 
194 1 6.7506 0.368917 0.993024 -0.353155 -0.711724 -0.517988 
195 1 5.93519 3.98381 0.613694 -0.275536 0.969307 -0.971641 
196 1 8.13533 6.206 3.7002 1.36367 -0.23223 1.03913 
197 1 8.61513 1.14845 2.73411 0.100471 -0.17963 0.887086 
198 1 0.619276 3.87357 0.714026 0.174265 -1.25403 0.371884 
199 1 2.24103 2.9609 5.82151 0.086418 -0.858992 -0.315394 
200 1 3.66724 0.306935 5.1462 -1.15469 0.776443 0.918179 
201 1 8.06089 7.81781 0.934141 -0.538724 -0.0641688 -0.854367 
202 1 8.70136 1.92651 0.335424 -0.455744 0.73704 0.319085 
203 1 8.84519 1.53581 8.13235 1.38685 0.800318 0.608938 
204 1 2.13703 3.69354 8.5575 0.726797 -0.470207 0.863888 
205 1 8.38599 7.32882 3.46536 0.303022 1.34662 -0.123407 
206 1 7.10027 2.37477 4.84104 -0.782352 -0.743897 0.433763 
207 1 6.57764 8.61885 3.5279 -0.694521 -1.26754 -1.49902 
208 1 3.89776 6.13705 9.03252 1.5396 0.102304 0.168868 
209 1 9.07453 8.89279 2.89874 -0.814198 0.154118 -0.597738 
210 1 2.0858 4.83296 1.69491 0.154521 -0.47204 -1.02263 
211 1 4.82933 5.6283 6.10431 0.0385437 0.38039 0.598615 
212 1 3.40306 1.97646 8.07106 -0.955277 -0.778167 0.024084 
213 1 7.73038 4.04365 2.45413 -0.190462 0.135122 -0.45886 
214 1 5.07029 0.224075 1.02898 -0.884694 0.599064 -0.249411 
215 1 4.32413 3.96946 1.31919 0.163707 -0.376708 1.00433 
216 1 6.79112 5.19249 3.39073 -0.866089 0.9883 0.354956 
217 1 1.872 4.9871 7.18391 -0.0852946 0.79767 -0.564738 
218 1 7.58336 4.6552 3.53609 -0.482989 -0.667929 0.0188656 
219 1 2.20032 7.90274 9.3453 -1.02415 0.636735 -0.362083 
220 1 4.75504 3.24481 6.2328 -0.889433 -0.112947 -0.646298 
221 1 3.18164 4.71934 1.89808 -0.21566 0.824845 0.420843 
222 1 3.57262 0.932667 8.7203 0.610195 -0.491058 0.559742 
223 1 8.80711 1.27659 9.06271 0.636182 0.00988114 0.481178 
224 1 7.2268 1.73128 1.07639 -0.404505 -0.870994 0.581765 
225 1 1.82503 3.48608 6.50275 0.207554 -0.963431 0.0374112 
226 1 3.94448 1.53926 7.32778 0.985398 0.125277 -1.18473 
227 1 1.3709 8.49539 2.15854 -0.435988 0.530483 -1.75087 
228 1 2.84711 7.29868 1.41532 -1.18236 0.810251 1.52185 
229 1 4.49966 4.64016 5.85163 -1.71748 -1.24247 -0.222473 
230 1 6.16196 0.987813 3.11484 -0.921054 0.409591 -0.81297 
231 1 2.65434 7.1985 4.00168 0.945055 -0.344319 0.140917 
232 1 8.08273 8.35593 8.85428 1.57356 -1.15314 -1.361 
233 1 4.877 7.51034 6.72628 0.615803 -0.70139 -0.314482 
234 1 7.52632 8.35159 8.06977 1.01259 0.953863 -0.259901 
235 1 2.66445 0.435341 1.72746 1.58396 -0.291767 -0.454361 
236 1 3.84888 1.88248 4.1625 1.13911 1.78669 0.384601 
237 1 4.25824 7.68396 3.81313 -0.0370413 -0.929885 0.446172 
238 1 8.40026 3.27468 4.23164 -0.172772 0.699342 0.194456 
239 1 7.13272 8.74904 7.15315 -1.103 -0.685352 -0.29107 
240 1 0.130635 5.84244 2.53008 -0.85999 0.347982 -0.253633 
241 1 0.760451 2.08309 0.120283 0.810481 -0.375309 -0.920265 
242 1 7.20885 6.21341 1.50993 0.562135 -0.215271 0.299858 
243 1 5.82871 7.74395 6.63478 0.162328 0.130948 -1.24137 
244 1 2.17827 4.87611 3.2964 -0.742159 -0.399063 0.353882 
245 1 3.61123 5.85888 1.37545 0.159675 0.373029 0.0998346 
246 1 2.24255 3.0861 9.2958 0.00211867 -0.116681 0.865941 
247 1 0.688528 2.9686 0.427155 -1.15978 -0.536457 1.91099 
248 1 4.31314 1.12711 4.57838 0.472928 0.162486 -0.822955 
249 1 0.292254 1.89756 6.66689 -1.06884 -0.98949 0.457402 
250 1 1.83682 7.12282 7.07492 -0.227352 -0.695846 0.117921 
251 1 8.10666 9.19563 9.32184 -1.1189 0.0793207 1.12072 
252 1 3.37323 3.38735 7.40923 -0.290533 -0.126896 -0.748643 
253 1 6.14127 5.64362 1.62336 -1.03774 0.00372938 0.071609 
254 1 0.569132 1.75297 5.04993 0.094194 0.219749 -1.22506 
255 1 4.77756 4.32697 7.62753 0.72552 0.0913807 0.144059 
256 1 2.97217 5.41952 5.66173 -1.15333 -0.696759 0.539638 
257 1 4.42684 8.11813 5.66302 -0.0792994 0.784042 -0.997424 
258 1 3.05314 8.11419 2.47848 0.697294 -0.081998 -0.712843 
259 1 1.4504 3.61034 0.287783 0.0909757 0.688677 0.783797 
260 1 7.11056 9.22333 4.66762 -0.48575 -0.338911 -1.67574 
261 1 5.5142 6.804 6.81305 0.394282 -0.947366 -0.871668 
262 1 1.00623 6.15378 8.06001 -0.64088 0.244497 0.18619 
263 1 4.39465 3.13029 2.65626 -1.10626 0.0604718 0.189486 
264 1 1.85109 6.24884 7.53772 -0.604336 -2.03978 -0.310848 
265 1 4.33187 7.81521 4.78397 1.14592 0.842672 -1.09259 
266 1 7.34081 6.37778 4.41272 0.91427 -0.732236 -0.0065009 
267 1 6.93048 3.50422 7.62398 -0.386237 0.0528739 1.78988 
268 1 8.36143 3.35386 2.61236 -1.37301 -1.02799 0.901927 
269 1 1.74159 4.61058 4.09504 2.65138 -0.833345 -0.302487 
270 1 5.0704 1.18428 5.17829 2.04147 0.329363 -0.0958211 
271 1 2.47087 5.51011 3.94182 -1.48755 0.916946 -0.382048 
272 1 2.95051 8.9144 7.38688 -0.0730907 -0.477143 0.346978 
273 1 3.11415 8.27107 1.47081 1.01105 -0.466752 0.394188 
274 1 2.92746 1.44359 1.09606 1.04102 -0.390355 0.550798 
275 1 6.19011 1.83441 4.79427 -0.613935 0.502308 0.395388 
276 1 5.42719 5.56149 0.843579 -0.935806 -1.37163 0.954105 
277 1 7.10068 2.39305 6.4024 -1.00462 -0.321562 0.37149 
278 1 9.27003 2.49494 8.16352 -0.0701425 -0.992448 -0.601384 
279 1 7.1718 5.24566 0.0809014 -1.42863 -0.609025 0.832762 
280 1 2.4384 1.89378 7.9986 -0.946495 -0.898063 -0.172227 
281 1 5.00599 3.83623 0.681401 -0.561088 -1.57496 -0.233337 
282 1 2.0934 7.94482 6.65115 -0.210748 0.957956 0.207967 
283 1 6.83173 1.49254 6.22092 1.07786 -0.569768 1.34927 
284 1 7.92331 8.22218 3.29421 0.183939 0.0712233 1.32229 
285 1 8.08746 0.232113 0.774118 0.0526226 -0.145892 -0.671473 
286 1 5.2595 7.49538 5.86509 -0.327815 1.20094 -0.165679 
287 1 2.7494 7.77182 5.78175 0.975924 0.131663 -1.28758 
288 1 2.76351 8.42926 0.518377 1.31462 0.602437 0.223083 
289 1 1.67387 5.44572 8.0744 -2.06642 -0.00969767 0.550774 
290 1 3.25796 1.25885 3.65792 0.445094 2.49799 -0.840795 
291 1 8.66672 1.42312 4.55231 0.465592 0.00482776 0.866619 
292 1 0.19841 0.913196 1.08697 -0.0173946 -0.680842 -0.585239 
293 1 6.96169 4.77609 4.26403 0.233531 0.20394 0.708726 
294 1 0.417173 8.98618 9.29115 1.01827 -1.27626 -0.543809 
295 1 1.75005 4.50172 6.36059 -0.235554 0.987088 -0.302548 
296 1 0.817019 6.13147 4.12712 0.706161 -0.227313 -0.315372 
297 1 6.70312 1.63946 7.91108 -0.634405 0.421127 0.345729 
298 1 8.33023 8.73774 1.07689 -2.09479 1.24199 -0.123006 
299 1 5.97121 8.69874 5.01479 -1.14797 1.12422 0.136874 
300 1 0.61747 3.73918 5.49114 -1.26267 0.00719281 -0.615457 
301 1 9.27061 8.00167 2.481 0.492242 -0.528596 -0.0768665 
302 1 0.537043 8.75515 2.49893 0.884886 -0.46072 1.00536 
303 1 4.5131 4.50164 4.35696 0.979874 0.653738 0.312159 
304 1 8.05313 2.23039 1.32935 -0.558816 -0.040815 -0.96039 
305 1 9.03978 6.05708 0.0753564 -0.278383 0.751428 0.166002 
306 1 3.7832 2.51533 7.37936 -0.0134954 0.911555 -0.00532852 
307 1 3.12525 4.62321 3.1369 -1.57973 0.138703 0.984337 
308 1 6.35701 3.11705 0.743777 0.49987 -0.293601 0.47421 
309 1 2.95075 1.98417 4.5298 0.878857 0.489702 -0.338077 
310 1 2.22212 2.13821 9.17748 -0.1341 0.14389 -0.00864927 
311 1 4.80002 4.91085 6.79625 -0.930342 1.02529 0.174354 
312 1 3.92307 3.54869 4.12927 -0.424618 -1.50601 -0.00123591 
313 1 8.82895 0.812902 0.534861 -0.773311 1.05573 -0.084035 
314 1 8.28841 0.85189 6.6229 -0.8524 1.02947 0.448512 
315 1 9.29427 8.99778 5.67364 -0.154124 0.621453 0.166856 
316 1 1.06351 0.653634 1.33521 -0.556177 0.0561724 -0.582597 
317 1 4.50215 5.69781 1.06837 0.291901 -0.478587 0.389774 
318 1 8.42744 1.92097 5.51571 0.160842 -1.26272 -1.12948 
319 1 8.54604 6.70713 0.571074 -0.0918847 0.439255 -0.0554453 
320 1 2.90553 3.66148 4.30227 1.15613 1.23741 0.947286 
321 1 7.09403 3.92351 3.16436 1.28963 -0.535617 0.849574 
322 1 2.63791 0.586535 0.777936 -0.213772 0.309424 0.849567 
323 1 6.08357 8.09596 5.75414 -1.0581 -1.51741 0.410889 
324 1 3.70525 7.20549 5.28897 -0.729781 -0.559942 -0.445528 
325 1 0.947329 4.69486 6.86348 -0.126909 -0.418281 -1.52939 
326 1 8.8608 2.80069 5.59899 -0.95524 -0.404101 -0.340734 
327 1 2.99921 6.4227 8.88054 1.39552 0.11268 -0.589979 
328 1 1.56017 1.5905 0.219306 -0.496 0.490657 -0.646281 
329 1 3.40563 0.98588 1.88294 1.29733 -0.199884 -0.144257 
330 1 8.95046 0.0640239 1.23551 -0.185548 0.276482 -0.0922487 
331 1 0.143158 4.37071 6.48139 0.733727 -0.649984 0.755513 
332 1 6.21364 5.97038 3.2826 -0.666368 1.42308 -0.105573 
333 1 7.24562 0.045961 0.256532 -0.211062 -1.45597 -0.928536 
334 1 2.20346 7.74563 0.892707 -0.401328 0.808146 -0.690291 
335 1 3.54079 4.58334 5.70292 0.132509 -0.428967 0.804308 
336 1 8.96307 9.26055 0.32339 -0.683009 1.06371 -0.111139 
337 1 8.85284 8.0899 5.95437 -1.00153 -0.889208 -0.120621 
338 1 1.60817 4.83567 2.53812 -0.214567 0.212303 -1.06323 
339 1 3.92993 5.44178 5.81945 0.271437 0.193471 0.313324 
340 1 1.03343 0.331773 8.99181 0.014336 -1.26596 -0.971785 
341 1 1.0644 5.02839 8.72761 0.175853 -0.259709 -0.345766 
342 1 2.5288 3.90495 5.97088 -1.07657 -0.489512 -0.135004 
343 1 5.74508 0.132688 2.9472 -0.234068 -0.252703 1.14425 
344 1 5.14288 6.12147 1.6556 0.666158 -0.944336 0.352241 
345 1 8.45017 5.08875 3.78962 -1.44186 -0.408887 0.596068 
346 1 3.77828 2.88132 9.20625 -0.215087 -0.311045 -0.0991211 
347 1 0.930852 6.73164 4.89883 -0.232091 0.774275 0.804293 
348 1 4.80476 1.96511 4.68198 -0.654622 -0.309435 -0.145926 
349 1 1.12686 1.8717 4.2277 -0.253818 1.25551 1.16434 
350 1 9.24205 3.43611 0.340521 -0.918247 -0.110113 2.03625 
351 1 9.02996 4.82646 2.23816 -1.01159 -0.281757 2.23069 
352 1 3.30024 7.19461 7.56884 -0.238592 -0.546768 -0.753106 
353 1 0.90524 4.56795 5.86363 0.612489 1.1322 -0.841948 
354 1 0.379714 8.60183 7.51039 0.847826 -0.660046 -1.24871 
355 1 5.32357 0.161873 2.04124 0.53676 0.162328 -1.05784 
356 1 9.03313 4.02178 2.78217 0.209478 -0.296179 1.39917 
357 1 4.81481 0.81723 8.54475 -0.825125 -0.175443 0.963973 
358 1 0.918878 6.47839 2.47671 -0.0693511 -0.528951 0.605397 
359 1 8.07296 2.66876 5.01889 1.33387 0.30717 0.0726653 
360 1 7.05282 5.35048 1.87486 -0.714846 -0.589021 2.03309 
361 1 1.79491 8.62202 0.885729 -1.28586 -0.0489727 -0.199961 
362 1 4.46539 2.41531 8.62513 1.26285 0.239218 0.633658 
363 1 5.44391 4.74427 0.22801 -0.236114 -0.952846 0.65264 
364 1 5.4744 2.11115 5.36729 -0.626338 -0.776037 1.52472 
365 1 8.34379 2.3513 7.94533 1.28621 -0.107976 0.207131 
366 1 8.48787 0.606148 5.02025 -1.1394 1.08601 0.656232 
367 1 3.48543 8.1478 5.19891 -0.191773 -0.606839 0.419857 
368 1 6.13698 8.68551 6.77014 -0.61342 -0.405461 -1.42174 
369 1 4.9356 2.81585 0.81061 -0.792575 0.191424 -0.174537 
370 1 0.0284217 7.39061 1.65703 -1.1932 0.894614 0.712639 
371 1 2.51104 0.572785 3.59392 1.05956 -0.198927 -1.26735 
372 1 3.44069 7.59295 4.4273 -0.339501 -0.141711 0.661991 
373 1 6.72405 1.1118 1.63787 -0.231445 -0.0864997 -0.748771 
374 1 8.39654 6.59485 8.98508 0.985554 -0.567026 0.563481 
375 1 2.53354 7.91095 8.427 -0.806917 0.727061 0.748513 
376 1 8.83065 1.10785 5.75934 -0.757117 -1.11139 0.115209 
377 1 1.38383 7.85398 0.424725 0.875027 1.34207 -0.952064 
378 1 5.49063 1.08299 2.4362 0.203616 -0.518403 -0.361706 
379 1 0.16281 1.66542 4.18949 -0.167524 -0.701709 -0.907143 
380 1 8.49901 8.15587 8.00374 -1.15523 -0.186043 1.29623 
381 1 8.98509 7.58494 4.25201 -1.14783 0.889877 -0.277551 
382 1 1.86346 5.70408 2.07671 0.175925 -1.26372 -1.17537 
383 1 8.30043 3.22488 8.44175 0.0123064 -1.31628 -1.37705 
384 1 2.59091 0.885873 7.00125 -0.0208442 -0.419852 -0.349359 
385 1 0.874123 0.94359 4.347 0.855966 1.48664 -0.233815 
386 1 7.85493 2.33877 0.407469 0.598394 -0.0500044 1.27154 
387 1 3.8081 3.20855 5.07789 -0.226928 0.672841 -0.749037 
388 1 9.15094 3.36354 2.06352 0.854913 -0.602733 1.62973 
389 1 5.60325 0.488985 5.60921 0.750941 0.685803 1.02759 
390 1 1.43698 6.34736 1.50418 -1.42949 0.837526 -0.365069 
391 1 5.43705 9.03891 0.0294374 -1.07028 -0.407876 0.816952 
392 1 6.50645 3.92304 1.34648 0.157782 -0.674661 0.618614 
393 1 4.59519 2.13347 7.70205 0.616411 0.0521442 1.80451 
394 1 3.62699 1.73995 5.96491 -1.09118 0.98577 0.685078 
395 1 7.46764 0.247504 3.9032 0.802271 -0.930244 -0.673912 
396 1 9.13534 9.14642 3.84911 0.0713694 -0.444097 0.502797 
397 1 7.56602 2.86417 7.93974 -0.598666 -0.506378 -0.164879 
398 1 8.13506 4.30117 4.26651 -0.4404 -0.935849 -0.118508 
399 1 3.2313 8.55029 8.23923 -0.321167 0.560628 0.659662 
400 1 5.04479 6.56324 5.96829 -0.390139 -0.621645 -0.000110309 
401 1 1.92097 1.29112 8.77133 0.454885 -0.442462 1.47861 
402 1 8.82314 0.303521 2.21965 0.0934881 -1.31002 -2.04442 
403 1 4.25454 1.40694 1.89629 0.755247 -0.0439601 0.417508 
404 1 5.81867 9.16894 8.28026 0.221837 -0.333118 -0.636515 
405 1 5.22946 9.13632 3.66521 -0.148943 2.4941 0.252799 
406 1 3.54775 7.03327 3.67654 0.679655 -0.325235 0.14324 
407 1 2.08659 5.20219 4.74184 0.775405 0.43328 -0.886806 
408 1 2.68274 4.58859 4.06019 -0.813829 1.03447 -0.226612 
409 1 0.89807 5.66927 1.9155 -1.41488 -0.322311 -0.496417 
410 1 7.2102 4.80227 2.63151 -1.32099 0.725882 -0.879781 
411 1 2.46076 2.82931 4.15025 1.04553 0.712025 -1.08697 
412 1 5.01171 2.41145 2.87446 -1.02426 -0.518425 0.669905 
413 1 4.16311 8.86322 5.11823 -0.720713 -0.834776 0.217117 
414 1 6.51703 2.39246 4.09179 0.432499 0.142013 -0.16016 
415 1 3.87772 1.89825 3.20281 -0.586689 0.902995 -0.598377 
416 1 2.38826 2.38227 6.6124 -0.315693 0.131486 0.378925 
417 1 2.22482 5.40418 6.28666 -0.704519 0.424015 0.754065 
418 1 7.60985 5.95662 0.593605 -0.0192358 -0.466144 0.16868 
419 1 8.41463 1.61243 1.95574 -0.909561 0.890302 0.141923 
420 1 2.72544 6.2226 6.17895 0.676655 0.0456154 -0.242115 
421 1 6.03575 1.36515 5.62609 0.208423 0.420457 0.619518 
422 1 1.49525 2.74001 4.17078 0.340583 1.13273 0.00148377 
423 1 2.84168 0.734819 2.6563 0.568638 -0.522154 1.60399 
424 1 4.00291 4.59722 3.53795 0.239761 -0.236297 0.605376 
425 1 6.38199 0.832409 7.48891 -0.0590599 -0.237802 -1.0387 
426 1 3.44776 2.64301 2.7491 -0.121647 -1.3097 1.1376 
427 1 6.82129 2.19819 8.68815 0.344219 1.04857 -0.745056 
428 1 0.331664 3.2272 2.9392 -0.7566 -0.231772 -0.443183 
429 1 5.04258 0.997055 1.60613 0.777093 0.243596 0.456788 
430 1 8.04255 7.45039 8.50097 -0.733075 -0.0897746 -0.981615 
431 1 1.55756 6.00168 4.69773 0.421226 -0.392513 1.42456 
432 1 0.57143 9.11235 3.40425 -0.449131 1.6908 0.223699 
433 1 3.86883 1.67748 0.956928 1.64853 0.463114 -0.220017 
434 1 6.95068 8.27891 6.25902 -1.08078 -0.363211 0.927995 
435 1 5.3187 5.1964 1.74988 0.49786 -0.807298 1.19932 
436 1 5.27165 3.37229 2.93416 0.143031 -1.199 -0.304489 
437 1 3.17349 8.97917 4.80584 0.527886 0.303609 0.378796 
438 1 2.72955 6.12819 2.4628 -1.12503 0.328783 1.36983 
439 1 3.57152 8.83511 2.98114 0.0171054 1.02143 0.0879 
440 1 7.30722 4.29841 9.2615 0.718601 -0.047594 -0.185436 
441 1 7.25946 0.877105 7.95954 -0.412747 -0.854272 0.0775063 
442 1 5.55757 0.627364 7.93262 1.7559 0.198176 -1.34694 
443 1 4.6994 5.86799 0.155752 0.0404348 1.75524 0.588454 
444 1 3.10567 1.69218 2.68106 0.299101 0.225711 -0.307159 
445 1 5.58836 3.20177 0.195458 1.40859 0.0522765 -0.840554 
446 1 2.75369 5.56784 1.6577 -0.0637842 -0.310646 0.856452 
447 1 0.920671 5.41099 0.254943 -0.304342 0.739442 0.359635 
448 1 0.133883 1.851 8.81935 0.765873 -0.49876 0.139106 
449 1 9.2044 1.85136 2.39737 -0.00225133 0.394327 -0.104676 
450 1 3.88743 0.413996 0.0779684 1.20658 1.19805 -0.522957 
451 1 1.69146 1.50397 4.88786 1.04424 1.00316 1.16193 
452 1 9.01124 5.80519 3.52613 1.30932 1.02672 1.06143 
453 1 3.59361 6.43167 8.12023 -0.819774 0.855033 -0.0438781 
454 1 5.22029 1.28399 4.14821 -0.200664 -0.906592 -0.286852 
455 1 8.64577 4.72712 1.25169 0.0650781 -0.447014 -0.932653 
456 1 8.05529 8.90317 7.49582 -1.56932 0.292907 0.377202 
457 1 0.934184 7.9854 8.07973 -1.38828 0.845569 -0.104935 
458 1 2.13606 8.65206 3.62791 0.769856 -0.516036 0.82716 
459 1 1.36741 5.23452 5.36267 1.03442 -0.473595 -0.278768 
460 1 4.37259 6.42289 5.26439 -1.41803 -0.147676 -2.25294 
461 1 0.0780809 4.25039 1.53764 -0.483847 -1.02175 -0.120322 
462 1 8.0895 3.58494 7.56456 0.0838096 -0.666638 0.379365 
463 1 3.00688 6.47347 0.926646 -1.41956 -0.480264 0.118697 
464 1 8.97021 3.87547 8.07887 -1.42412 0.278493 0.213714 
465 1 5.3729 5.518 8.97198 -0.803024 0.197825 0.445551 
466 1 4.12726 1.04775 5.51559 0.165655 0.0103829 0.525684 
467 1 6.51329 6.67629 3.91357 -1.16692 0.389366 0.356789 
468 1 6.03964 1.25735 8.46407 0.0243614 0.601596 0.532779 
469 1 8.20391 0.267982 5.84894 0.0560287 -0.198259 1.36693 
470 1 8.02189 4.9036 2.08091 0.0990932 -0.1212 -1.66653 
471 1 0.547487 4.94531 2.59414 0.923762 -0.242016 0.872944 
472 1 4.04552 8.27527 1.22132 -0.013813 1.19161 -0.632111 
473 1 1.71939 7.62842 2.45359 1.08862 0.4002 0.346016 
474 1 9.32766 0.730344 4.53747 -0.288157 -0.787602 -0.0212 
475 1 4.14031 6.27133 3.69615 0.964943 -0.39292 0.595325 
476 1 4.82118 2.75792 7.05256 1.0688 0.345861 -0.84699 
477 1 8.71448 1.74004 6.482 -0.127746 0.0670105 -0.194992 
478 1 8.26251 2.25717 4.15313 0.426475 0.282128 0.104108 
479 1 8.64226 5.53299 1.72085 -0.864607 0.736598 -0.489752 
480 1 3.10311 5.13123 0.878035 0.902258 1.11795 0.651533 
481 1 0.0850265 5.57169 4.32947 -1.32931 -0.054893 1.97618 
482 1 7.54058 8.73046 2.11803 -0.127875 1.41119 0.709323 
483 1 1.89166 3.24273 4.95885 -0.224852 -0.0960722 -0.352086 
484 1 2.7234 6.76688 3.15084 -0.0159784 -0.218344 0.393963 
485 1 2.58371 7.24857 2.32628 -1.30088 -0.95774 -0.276328 
486 1 0.782766 7.80707 2.44244 -0.715531 -0.303849 -0.655968 
487 1 8.23777 9.08256 3.60203 0.412899 0.715337 -1.20713 
488 1 3.81788 4.22593 7.40813 -1.87976 -0.218832 0.429159 
489 1 8.82471 5.75064 8.57417 0.00697393 -0.665297 -0.468524 
490 1 7.83426 9.35993 6.69371 0.877895 -0.56537 0.644962 
491 1 1.04338 0.555286 3.11235 0.64863 -0.165812 -0.145229 
492 1 8.47233 0.489487 4.07356 -0.987939 0.200895 0.75641 
493 1 8.32138 4.64601 2.9366 0.735416 0.0835682 0.275035 
494 1 1.63648 4.08099 3.20399 0.121055 -0.412581 0.324919 
495 1 4.2434 1.09925 3.62938 1.60307 1.7892 0.0445051 
496 1 6.6041 0.199748 3.45452 1.87265 -1.02366 0.469088 
497 1 3.94563 4.91588 1.32032 -0.971874 -0.688297 -0.282392 
498 1 1.5619 1.28318 2.75189 0.719857 -1.7242 0.272821 
499 1 7.27612 9.29976 7.97261 1.07849 0.0585957 -0.341248 
500 1 2.22551 4.15657 4.83508 -0.406055 0.116485 -0.958191 
501 1 5.56782 4.18035 3.29464 -1.14607 0.734951 -0.669066 
502 1 3.80356 8.58877 2.09184 0.0378244 0.380851 -1.29015 
503 1 8.88366 7.85343 8.83174 -0.15775 0.77291 0.51389 
504 1 2.57425 1.48455 5.2843 1.29937 -1.3578 -1.16068 
505 1 1.09383 2.63895 7.99261 -1.25661 0.472522 0.488888 
506 1 5.48669 5.82436 2.5119 1.07085 0.0544008 -0.040312 
507 1 4.92216 6.86378 3.79457 0.931946 0.0740058 -0.61259 