ITEM: TIMESTEP
1438
ITEM: NUMBER OF ATOMS
1000
ITEM: BOX BOUNDS pp pp pp
0.0000000000000000e+00 9.4000000000000004e+00
0.0000000000000000e+00 9.4000000000000004e+00
0.0000000000000000e+00 9.4000000000000004e+00
ITEM: ATOMS id type x y z vx vy vz 
1 1 6.76384 6.25083 2.49874 0.443896 -0.0130287 0.194329 
2 1 4.65051 4.27547 0.999644 0.188233 1.02174 -0.127065 
3 1 3.73498 0.705713 2.67898 -1.16282 1.61344 -0.337887 
4 1 3.54966 5.21427 0.799774 0.387174 -0.368067 1.68943 
5 1 2.11957 7.6623 9.3536 0.840744 -0.154101 1.17567 
6 1 4.51303 4.58958 2.0027 0.700048 -0.513086 -0.849135 
7 1 5.99847 8.66424 8.90615 0.0428425 0.0305821 -0.293118 
8 1 7.29475 2.32509 8.16584 0.19668 0.933242 -0.271028 
9 1 5.52494 6.56867 7.14202 0.33379 -0.302451 0.867102 
10 1 9.21024 8.77285 6.35203 -0.0739098 -0.252018 0.476096 
11 1 2.34695 2.54381 3.80354 0.110594 -0.564538 -1.14531 
12 1 3.24753 7.85082 5.77027 -0.478894 -0.0642322 0.665004 
13 1 7.86378 2.18392 6.03916 -0.25052 0.272055 -1.04631 
14 1 2.52828 1.38954 6.40637 -0.968848 0.00871219 -0.659119 
15 1 0.223028 5.22065 4.42306 -0.0618487 0.69298 -0.333894 
16 1 1.59488 8.23148 6.97825 0.54552 0.992878 -0.731798 
17 1 2.07247 8.60317 7.78769 -0.0228515 1.46002 -1.11603 
18 1 1.29354 3.91314 3.53065 -0.371434 0.0278625 0.286799 
19 1 4.4034 9.39517 5.76721 -0.163231 -0.821021 -0.0897066 
20 1 5.87527 0.276686 2.88081 1.26046 -0.916205 0.0490693 
21 1 8.19489 9.39455 7.78841 0.35783 0.354644 0.18864 
22 1 8.87611 6.32401 6.40601 -0.128487 -0.653663 -0.996679 
23 1 1.40659 3.89274 0.330732 -0.069263 -0.205773 -1.98551 
24 1 1.60891 5.44203 8.812 -0.415659 -1.03171 -0.695761 
25 1 2.81064 0.294249 0.478888 0.00990353 -0.791462 -0.538945 
26 1 6.25733 6.69266 4.14598 0.581783 -1.18932 0.647724 
27 1 2.05951 0.667271 9.33372 -0.447011 0.145784 0.607211 
28 1 4.17336 7.42097 8.97104 -0.987016 0.437328 1.09655 
29 1 5.51 6.24107 8.06908 -0.264095 -1.0194 0.611587 
30 1 6.13445 6.21352 6.00086 -0.751766 0.366745 0.300754 
31 1 7.64408 0.835581 3.61056 -0.320902 -0.59191 -0.931369 
32 1 9.3808 0.178984 6.82915 1.20879 1.22099 0.105375 
33 1 0.773438 8.46523 0.593705 -0.132371 -0.310833 0.101309 
34 1 7.55435 0.862112 5.10404 0.486508 1.40543 -0.756308 
35 1 6.81244 8.23073 8.64517 0.290169 0.0707812 -0.424826 
36 1 9.29324 5.41857 6.03526 -0.158299 0.0425463 0.758684 
37 1 5.02122 9.27675 2.96266 -0.866055 0.329186 -0.499302 
38 1 1.70474 3.49539 5.05452 -0.408955 0.0413997 0.0549467 
39 1 2.3936 6.93069 8.77018 -1.33387 -0.255206 -0.664445 
40 1 3.08427 6.9587 2.65616 -0.0561678 -0.175604 0.219287 
41 1 0.426061 7.14787 1.71309 -0.311367 1.13518 -2.4583 
42 1 7.72982 8.48879 1.38187 -0.237126 -0.963786 3.46432 
43 1 7.77025 6.24575 2.41939 -0.781939 0.62644 -0.371431 
44 1 1.49572 0.287825 3.74614 1.08809 -0.111382 1.27587 
45 1 0.186288 3.76625 5.85607 -1.25916 0.266876 1.11447 
46 1 8.04741 7.99378 3.26988 0.0130369 1.173 1.56399 
47 1 1.68661 2.4925 5.59944 0.0331958 1.84162 -0.239173 
48 1 1.27122 4.79449 0.749044 0.683357 -0.423919 -0.859288 
49 1 4.28397 7.44831 7.60647 0.447645 -0.583546 -0.921589 
50 1 2.31981 1.73429 4.50889 -0.0991594 1.48126 0.131141 
51 1 3.28512 2.51897 1.58376 -0.295488 -0.243147 -0.907714 
52 1 2.72303 3.80822 0.59071 -0.3248 0.576834 1.13357 
53 1 0.28844 6.79832 6.69167 -0.735904 -1.25496 0.0718009 
54 1 6.56509 7.95831 5.50141 1.06082 -0.139836 0.236269 
55 1 6.73787 1.89063 2.96957 -0.37164 -0.0742942 -0.297084 
56 1 3.00794 5.70299 1.4108 -0.334728 0.350619 -0.262671 
57 1 6.15846 2.28692 0.0609887 -0.100241 -0.410363 1.74382 
58 1 2.94454 7.35869 6.51736 0.941354 -0.387154 -0.283915 
59 1 6.51294 6.9764 3.25056 -0.352494 0.254771 0.388248 
60 1 0.663091 1.43628 0.0678868 1.29528 -0.585357 -1.34673 
61 1 8.31465 3.21418 8.75412 1.05418 -0.499135 1.07898 
62 1 5.23067 1.13765 9.19907 0.35531 0.0104875 -0.307959 
63 1 7.20814 6.61611 7.22246 0.00920761 0.495083 -0.264096 
64 1 6.52823 2.78061 4.36336 -1.02925 -0.454082 -0.403537 
65 1 7.55611 8.83586 0.490906 0.521986 0.155124 0.61353 
66 1 9.14595 7.24777 8.95222 1.04924 -0.950012 0.760304 
67 1 1.82027 5.1842 2.50512 0.292795 0.797987 -0.0493486 
68 1 8.43802 9.15703 5.95558 1.01171 -1.02796 -0.630428 
69 1 8.24436 7.11648 6.75028 -1.28531 0.0360272 0.44641 
70 1 6.41886 1.04867 6.98524 0.183584 -1.07135 0.0171376 
71 1 0.99853 6.76517 2.32769 -1.71558 -0.766751 0.874415 
72 1 3.6481 7.47266 1.10158 -0.143411 -1.81141 -0.0102803 
73 1 3.12961 0.984055 5.73375 2.24623 -0.44155 -0.524147 
74 1 1.40545 9.18014 0.692587 -0.440575 0.136424 0.0749873 
75 1 5.79018 8.82932 0.420184 2.01907 0.00599168 0.122853 
76 1 0.26127 1.39617 1.78625 0.825818 -0.561826 0.107318 
77 1 7.45311 5.95967 0.253636 -1.96426 0.750665 0.070332 
78 1 0.474202 7.78297 7.47145 0.488971 1.31634 -0.242692 
79 1 6.92624 8.72355 1.8277 0.835722 -0.471241 -1.00549 
80 1 8.68631 4.58311 4.46369 0.0259609 -0.98908 0.742997 
81 1 7.27584 9.01835 8.92836 1.99616 0.013623 0.721624 
82 1 1.53574 0.0358415 7.81614 0.30085 -0.452342 1.43877 
83 1 0.0955906 3.72668 3.97015 -0.152062 1.34102 -0.419732 
84 1 1.94809 3.24076 0.801577 -0.363283 -1.07582 0.332656 
85 1 3.69262 3.10751 2.97997 -0.554133 -1.21641 -0.241727 
86 1 8.24729 2.08216 4.33543 -0.627162 -0.415432 -0.100661 
87 1 4.22241 2.12803 1.529 0.17544 0.3317 -2.03512 
88 1 1.75618 1.49631 0.357671 1.33994 0.563791 0.714143 
89 1 2.58819 8.5718 5.63913 0.501351 -0.0298786 0.89187 
90 1 9.01633 3.14531 8.1298 -1.31731 -0.574432 0.243824 
91 1 7.23755 0.609141 1.97039 0.25474 0.728043 1.19338 
92 1 0.15745 4.3198 4.73327 0.641163 0.197945 0.704057 
93 1 1.8108 4.60449 8.43802 0.143235 0.698595 -0.336018 
94 1 4.80594 7.54805 5.20062 -0.104191 0.0266062 0.685934 
95 1 6.05376 1.94538 3.74696 -0.518417 0.582056 0.384769 
96 1 8.19873 8.10405 6.57702 0.868221 0.200238 1.47506 
97 1 1.35018 0.213234 1.55278 -1.13516 1.2268 -0.243757 
98 1 8.29948 5.07625 8.45968 -1.07347 1.46417 -0.337019 
99 1 6.80709 1.81312 8.87835 1.36613 -0.991791 -0.455883 
100 1 3.28414 0.137166 7.09255 0.641199 0.106883 0.158228 
101 1 8.38572 1.09323 4.61515 -0.30273 0.872718 -1.90578 
102 1 4.48519 4.00838 0.0869886 -1.36507 0.163199 1.00758 
103 1 5.58247 7.23602 3.52625 -0.478848 0.888186 -1.84845 
104 1 0.272151 6.19948 0.191982 1.2596 -0.196079 1.45518 
105 1 5.37889 4.84144 8.20255 1.35603 0.00699802 1.41504 
106 1 6.03639 0.449406 7.70241 0.112011 -0.225598 -1.18421 
107 1 6.8006 0.67184 3.04519 0.215554 0.499145 0.0839268 
108 1 3.3757 1.39978 8.8023 0.368922 0.0242893 -1.089 
109 1 8.83172 3.30506 5.51043 0.453993 -0.878661 -1.08498 
110 1 0.500715 5.578 5.32816 0.394719 -0.107344 1.43047 
111 1 9.17839 5.92522 3.05337 -1.95262 0.228947 -0.892111 
112 1 0.443022 3.52269 8.44017 0.398607 -0.486204 -0.88905 
113 1 2.87496 0.067881 5.45887 1.58437 -0.00948 -0.642888 
114 1 3.85881 7.63425 3.97775 -0.700776 -0.701262 -1.33181 
115 1 1.14949 6.46656 0.52237 -0.0746213 -0.13383 -0.0323001 
116 1 0.143796 8.33782 3.81405 2.15828 -0.367071 -0.21767 
117 1 5.16595 6.53021 0.526439 -0.217323 -0.302049 0.320023 
118 1 8.46758 0.857653 8.26468 0.014017 -0.877094 0.509748 
119 1 6.97196 8.18259 7.74525 -0.203189 -0.780102 0.436264 
120 1 9.21111 4.78936 0.818995 0.308128 0.459334 0.163023 
121 1 0.0457203 6.42814 5.65522 1.50011 -0.404246 1.0971 
122 1 2.43546 3.8388 2.48546 0.800305 -1.13563 -0.929896 
123 1 0.527956 8.0523 5.53948 0.714258 -1.07852 -1.02116 
124 1 9.01791 3.15565 6.41337 0.838108 0.289143 1.16643 
125 1 5.21011 8.12327 0.250518 0.738869 -0.747162 1.1155 
126 1 0.147409 6.20253 3.93632 0.546882 0.411268 -1.55117 
127 1 7.95082 1.74829 5.18713 -0.600317 0.634309 -1.2754 
128 1 0.676641 4.48483 3.94786 0.587883 -0.702322 0.644348 
129 1 2.34535 7.76932 7.39951 0.0913171 -0.0916292 -0.491422 
130 1 4.90127 2.07635 2.31192 0.206098 -0.81865 -0.257378 
131 1 0.900553 6.04684 8.05834 -0.291619 -0.450056 0.51184 
132 1 5.31661 8.95882 2.09683 1.1826 0.271123 0.0849679 
133 1 5.27649 9.24443 5.3345 0.15723 0.211708 1.39238 
134 1 5.18914 2.19829 9.34818 -0.934848 0.642786 -0.242766 
135 1 0.540458 7.59524 4.29155 0.723023 -0.272098 0.0963458 
136 1 6.89826 8.1812 1.03132 0.623588 -0.0845657 -0.393666 
137 1 2.08816 9.09525 1.9729 0.147334 -1.44791 0.773674 
138 1 5.67162 1.5766 0.535413 -0.449704 0.5772 -0.882415 
139 1 8.12787 2.71834 5.18721 0.184915 1.03912 -0.863448 
140 1 1.95121 9.24264 5.31036 0.739417 0.619754 -0.138023 
141 1 3.34246 8.24623 2.61813 0.572582 1.12343 -0.0515905 
142 1 8.12626 3.06748 6.14131 0.28548 -2.09175 -0.870721 
143 1 9.15196 4.78754 7.19464 1.65769 -0.864473 0.0497395 
144 1 3.13583 8.27564 1.09012 0.119829 0.334029 1.2168 
145 1 7.47298 7.64272 9.01775 -0.44107 -0.762203 0.528985 
146 1 3.1838 1.94307 4.12903 -2.138 0.506004 0.612455 
147 1 4.16834 0.124698 7.54462 -1.59589 0.310459 0.093178 
148 1 0.836145 4.80282 2.32068 -0.372615 0.897875 -0.0295204 
149 1 2.32071 6.26935 1.03417 -0.556008 0.425803 -1.54992 
150 1 3.18669 3.30169 2.17618 -1.55208 -0.44988 -1.27268 
151 1 4.574 3.04573 0.0391512 0.357714 0.00463951 0.472783 
152 1 7.42721 3.34409 8.45724 -1.31698 -0.00479198 -0.00576348 
153 1 3.75822 9.05565 2.28975 -0.645506 1.42226 1.34503 
154 1 5.90754 6.17239 0.0150609 0.028808 -0.590528 1.02696 
155 1 5.08211 8.04043 2.09903 -0.371799 0.14659 -0.411719 
156 1 7.37769 2.37051 4.71719 0.0402853 -0.261887 -1.06524 
157 1 6.67114 0.246749 8.47307 -0.102816 0.581971 -1.03302 
158 1 8.91103 7.04494 1.73625 -0.668809 -0.804027 -0.0884893 
159 1 4.13977 8.39374 0.863843 0.419541 -0.54463 0.743942 
160 1 9.17398 3.40634 3.11425 0.216382 0.0821945 -0.00149647 
161 1 9.27496 8.55408 1.26145 -0.0465722 -0.269536 0.970735 
162 1 2.3876 8.53762 8.81914 1.17716 0.293242 -1.36914 
163 1 8.90539 2.32777 0.835196 1.68344 -0.279061 -0.146585 
164 1 5.54479 9.10432 3.71086 0.402278 -0.555459 0.561856 
165 1 0.750817 1.78734 4.15214 -0.709435 -1.39299 0.220744 
166 1 4.80359 0.377987 8.77889 -0.113752 -0.690569 1.33609 
167 1 0.464056 2.68877 7.95262 -3.22393e-05 0.0399082 1.66366 
168 1 2.2135 8.14927 1.75285 1.08161 0.274443 0.612403 
169 1 6.96231 8.44376 3.69887 -0.00156725 -0.849177 -0.25162 
170 1 5.9385 8.02609 4.7234 0.246646 -1.0223 -0.411158 
171 1 1.15987 4.68425 9.19372 0.410323 -0.329319 1.15239 
172 1 7.35623 4.01449 7.72715 0.695612 1.11201 -0.453979 
173 1 8.56401 3.90259 3.72042 -0.178557 -0.719345 -0.883816 
174 1 9.01908 6.79278 3.42455 0.678312 -0.22448 0.424032 
175 1 7.69266 2.98203 0.0169562 0.157156 0.778365 -0.472304 
176 1 6.3345 2.45873 8.25161 0.0650632 0.0181842 0.00504593 
177 1 8.48089 1.75172 8.60519 -0.728176 0.0432324 -0.768906 
178 1 7.33035 0.881491 6.76719 -0.810873 -0.216244 0.388851 
179 1 9.27998 9.12952 8.81749 0.689105 0.526869 -0.571281 
180 1 4.43706 6.9724 3.59933 -0.179325 0.814816 0.53474 
181 1 0.347472 3.00317 2.47596 -0.381153 0.0771284 -0.742725 
182 1 2.97224 7.70741 8.93908 1.75561 0.124468 -0.0817185 
183 1 4.71732 8.60624 6.1566 -0.0523528 0.481304 0.185167 
184 1 6.58656 8.67396 6.15585 0.108325 -1.59276 0.880397 
185 1 2.71293 5.82749 4.56139 -1.05747 -0.517843 -1.07914 
186 1 4.39892 6.38331 6.81047 -0.635049 -0.660486 0.0374366 
187 1 7.93445 6.78103 8.60648 -1.0552 0.211432 0.264503 
188 1 7.90681 4.70101 5.05324 0.0494481 0.0508651 -1.2117 
189 1 7.0179 6.40337 4.69538 0.298349 -1.17569 -1.37642 
190 1 5.06964 0.143284 7.89016 0.864701 0.747173 -0.666618 
191 1 1.2398 6.64961 6.49399 0.447488 0.880202 0.848165 
192 1 4.71078 8.70236 7.49826 -0.342516 -0.12747 0.773598 
193 1 5.40038 8.31326 5.45946 -1.36369 -0.626278 -0.229263 
194 1 7.70561 1.28014 5.96287 0.736025 -1.38043 -1.51237 
195 1 5.39066 0.645997 3.61247 -0.609671 -0.118984 -0.608759 
196 1 4.50767 8.76616 1.68488 0.190185 0.553559 0.43879 
197 1 7.73781 8.0165 2.25793 -0.261281 0.939627 0.577954 
198 1 4.69079 1.12341 1.93828 -0.865826 -0.91446 -1.09889 
199 1 5.95074 4.27268 9.01489 0.203771 -0.0507495 -0.297627 
200 1 1.0213 3.06094 0.713232 0.60856 1.26437 0.258207 
201 1 3.76497 7.84653 4.94638 1.63852 1.10453 0.874408 
202 1 1.69276 6.50738 1.74061 0.0252888 1.42144 -0.426141 
203 1 0.658054 2.66282 8.88589 -0.399127 1.01365 -1.00488 
204 1 9.07254 5.11195 5.15938 -0.253087 -0.853857 1.19245 
205 1 0.461902 0.31094 5.17756 0.731912 -0.39273 0.336011 
206 1 3.00612 4.44501 1.25915 1.215 0.33375 0.204998 
207 1 1.05836 6.9443 8.34086 0.77003 -0.508816 0.0745061 
208 1 8.02013 6.47575 5.99706 -1.45491 0.0776191 0.242996 
209 1 4.03193 3.06571 1.72997 1.08817 -0.112386 -0.678938 
210 1 1.797 6.26969 8.44626 -0.384548 -0.294745 0.865773 
211 1 0.5199 0.692482 1.15628 -0.717667 -0.0909879 -0.425387 
212 1 1.79589 6.5269 3.48333 0.916985 0.149327 -0.183492 
213 1 6.59178 1.41418 0.337188 -0.204114 0.00353399 -0.452371 
214 1 0.244888 7.78144 0.175218 1.23285 0.336576 0.476832 
215 1 7.38123 3.6724 6.11109 -1.45783 -1.4698 1.71726 
216 1 6.41675 2.02038 1.06691 0.234233 -0.0368069 0.918115 
217 1 6.59224 7.23328 1.16464 -0.119103 0.0694359 0.368317 
218 1 0.887354 8.41081 4.66749 0.321548 -0.666965 0.346426 
219 1 8.80173 0.693038 7.39861 1.53732 -0.433003 -0.298797 
220 1 9.39835 1.52552 0.875069 -0.371556 0.0811628 -0.0354083 
221 1 8.61174 8.53867 8.12273 0.306322 1.0756 -0.178055 
222 1 2.76333 1.03277 4.04454 -0.727076 0.4907 1.15458 
223 1 0.352853 8.69058 7.11016 0.363444 -0.687158 0.304151 
224 1 3.32483 3.40305 1.19102 -1.54296 0.745647 -0.716372 
225 1 7.32032 6.86941 5.46982 -0.827317 -0.548182 -0.0335583 
226 1 5.96928 7.06096 0.350599 0.544849 -0.181352 -0.763914 
227 1 1.16708 8.11199 3.7699 0.25071 -0.788056 1.45753 
228 1 0.655648 5.70826 2.69522 -1.05886 0.269501 0.41138 
229 1 9.11806 0.756437 2.25328 -0.666543 0.575093 -0.117024 
230 1 8.51411 5.47462 6.54825 -0.859905 0.0866581 0.0471014 
231 1 0.487645 1.10439 2.69985 0.330255 -0.973439 0.0167044 
232 1 9.16534 2.03111 4.12179 0.039476 -0.426179 -0.506839 
233 1 2.96752 0.922122 2.04437 0.677081 0.506343 1.20808 
234 1 1.93477 6.99875 7.88242 0.863752 -0.242952 0.802648 
235 1 0.17412 1.86228 5.91534 -1.09275 -0.519967 -0.449227 
236 1 4.5982 6.92265 6.03443 0.253398 -1.32292 0.993157 
237 1 2.73391 6.51291 1.87368 0.495482 -2.30545 -1.00392 
238 1 0.553668 3.22907 6.53628 -0.100117 -0.366103 -0.288929 
239 1 8.97 8.08889 5.73654 -0.547705 -0.150427 0.399734 
240 1 7.49654 7.61084 7.13962 0.220989 -0.362451 -0.869075 
241 1 6.29077 8.86832 3.16648 0.0713145 -0.55454 0.169159 
242 1 5.6471 8.15422 3.82059 0.511097 -0.934024 -0.918505 
243 1 1.67619 5.97778 5.99523 0.103208 -0.00775746 0.265576 
244 1 6.80267 4.71282 9.35227 0.264184 0.199665 -0.0770573 
245 1 7.55396 1.41287 0.447117 -0.869723 0.294239 -1.71687 
246 1 8.06433 8.33689 5.64485 1.46055 0.841227 -0.00424148 
247 1 0.691521 7.96939 1.37099 -0.280469 0.776234 -0.691774 
248 1 2.53049 1.92686 0.830648 -0.864169 -0.370485 -0.25947 
249 1 0.820053 4.42837 8.11187 -0.414066 -0.361985 -0.624604 
250 1 8.85668 4.22101 5.3659 -0.764077 -0.774092 -0.182121 
251 1 4.3364 6.6376 0.0762543 0.436607 -0.493508 1.01429 
252 1 2.9818 8.9577 6.38544 0.323542 -1.09928 -0.714555 
253 1 1.53975 5.71244 1.04221 -1.37637 2.11961 -1.04728 
254 1 7.19125 8.66676 5.40001 1.63288 -0.0896152 1.05956 
255 1 0.447696 4.15966 3.03113 -0.323022 0.223527 -0.761418 
256 1 5.84776 1.11494 6.17502 0.2589 0.834141 0.944006 
257 1 6.58887 1.02892 5.09128 -0.26397 -0.0814038 -0.301789 
258 1 2.13965 4.24727 9.28262 1.20548 1.06597 -1.273 
259 1 0.490065 7.54883 3.33649 -1.75075 -0.502841 0.0755411 
260 1 9.39269 0.53484 8.21357 -0.55291 0.919112 -0.136774 
261 1 0.629667 9.35342 6.1538 0.0879107 -0.90643 -0.362482 
262 1 7.39124 1.29745 2.65294 -0.166926 0.742906 -0.385939 
263 1 7.77386 1.43519 1.81486 0.377753 0.382594 0.4438 
264 1 1.56002 6.90692 9.15662 0.418738 1.16979 -0.805254 
265 1 1.92395 7.0094 0.609798 -0.626303 -1.02903 -0.460329 
266 1 7.65132 5.87615 7.70947 -0.216701 0.0172565 -1.52072 
267 1 2.98919 7.92811 3.41769 0.201111 -0.460238 -0.684667 
268 1 2.46133 8.65763 2.75161 0.798979 -1.0531 -0.747444 
269 1 4.21591 1.15313 1.14748 -0.0396691 0.0936088 1.1419 
270 1 8.70003 1.58416 0.186283 0.47158 -0.20768 -0.355952 
271 1 7.03935 5.0463 5.36494 -1.11332 -0.317745 -0.809914 
272 1 9.10699 7.72915 8.02748 -0.0107541 -1.04189 -0.270516 
273 1 0.528994 9.33065 0.241411 1.20881 0.240693 0.539322 
274 1 1.49957 2.1517 8.7987 -0.628343 -0.521454 0.971287 
275 1 8.22963 0.613694 1.92673 -0.607966 1.34732 1.36537 
276 1 6.27212 6.93473 2.03886 -0.813332 -0.150638 -0.487282 
277 1 8.4711 0.70427 0.513497 0.0989407 0.633014 -0.333148 
278 1 7.3048 4.99661 8.56725 -0.905084 -0.769289 -0.0612287 
279 1 5.19059 8.65714 4.53052 1.0988 -0.269543 0.153779 
280 1 5.39084 0.246904 0.122577 0.212322 1.20222 0.522458 
281 1 1.63538 3.88701 1.89905 -0.733503 1.32066 0.177083 
282 1 5.37461 8.67917 8.16362 0.772026 -1.14446 -0.922499 
283 1 8.35166 5.50737 4.69582 -0.242958 -0.291617 0.00273613 
284 1 2.28098 8.86927 1.04792 0.320086 0.990441 -1.82751 
285 1 0.213699 3.38792 4.92613 -1.77007 -0.850759 0.558184 
286 1 9.19111 0.26958 5.88065 -0.235125 0.438982 1.28045 
287 1 9.30286 2.3042 1.73786 -0.790613 1.19906 1.23041 
288 1 3.14273 1.65442 2.60558 -0.407607 0.89888 0.501559 
289 1 8.40584 0.768375 5.53469 -1.02731 0.972509 0.997657 
290 1 8.24475 5.60873 9.2358 -0.475981 -0.365653 -0.108768 
291 1 3.53821 8.02777 0.227663 0.114604 -0.510123 0.140182 
292 1 6.82082 5.67239 8.13641 0.887483 0.760469 0.548299 
293 1 8.29986 9.33891 1.19088 0.33234 -0.035474 -0.326636 
294 1 6.43781 5.63838 4.75033 0.52907 -0.496005 -0.526489 
295 1 8.56133 0.0426974 2.59898 0.329811 0.334571 0.54522 
296 1 7.86645 0.848026 7.534 -0.568289 -1.32736 -0.211523 
297 1 1.38204 1.16661 8.88223 0.0877929 0.256308 0.39574 
298 1 3.41294 6.84346 3.57913 1.44676 -0.166584 0.883061 
299 1 4.21397 6.54077 8.51517 0.904558 0.555047 -0.33715 
300 1 7.987 7.0901 2.95099 0.333341 -0.882179 0.0998799 
301 1 0.272396 2.80272 5.68095 -1.10788 -0.670027 0.0318112 
302 1 6.60579 9.20017 7.20475 0.704463 1.38864 -0.951856 
303 1 5.61088 6.98151 6.25766 -0.0161855 1.03447 0.153847 
304 1 5.78348 2.22065 1.79424 0.929613 -0.130858 0.871066 
305 1 5.83824 6.50989 2.81064 -0.36452 1.40119 0.293023 
306 1 0.765866 1.56806 6.60704 0.136405 -1.00182 -0.420995 
307 1 5.32124 7.941 8.72594 -0.128327 0.382812 -1.82534 
308 1 6.10341 8.34697 2.29927 -0.3492 0.894797 1.301 
309 1 5.06375 6.36247 8.923 -0.381177 0.112636 0.139323 
310 1 4.75887 3.67061 1.75707 -0.88024 0.632431 -0.710624 
311 1 7.28243 2.83159 5.61212 0.577152 -0.475693 -0.835981 
312 1 6.0643 7.97266 8.10126 1.52629 0.471351 0.958725 
313 1 5.81802 2.1042 2.80871 -0.0130391 -0.115384 0.747034 
314 1 1.96627 0.864239 8.02761 0.897255 -0.450761 -0.103672 
315 1 0.955375 4.86646 4.91763 0.0199174 -0.416514 -0.0682248 
316 1 6.87009 8.2189 4.62858 -0.50373 -0.235933 -1.34832 
317 1 3.54333 8.8618 4.9592 0.563407 0.326177 0.947096 
318 1 1.3859 0.728931 2.65623 -1.53041 1.39099 0.467164 
319 1 2.52175 0.901517 5.00426 -0.216097 -1.39246 0.377352 
320 1 3.80908 7.53281 3.03554 0.394762 -1.55592 -0.307156 
321 1 8.04193 1.08733 9.09987 -0.531008 0.258894 -0.539943 
322 1 1.80823 8.28884 5.11249 -0.505281 -1.29816 1.61272 
323 1 9.23966 2.28784 8.53903 -0.149633 1.18243 -0.201089 
324 1 2.41878 6.67051 6.10513 0.375648 1.07553 -0.171927 
325 1 0.669434 5.91731 6.23744 -0.179886 0.438967 -0.740597 
326 1 4.79651 7.72641 3.10564 -1.0443 -0.82739 -0.396761 
327 1 6.18233 9.27087 2.0908 -1.06362 0.0367979 -0.28498 
328 1 6.65125 4.33685 6.13634 -0.294006 -0.110788 -1.24144 
329 1 4.27875 1.28932 7.1772 0.613792 -0.583415 -0.068334 
330 1 0.541971 8.6545 2.05198 0.163458 0.193921 1.37038 
331 1 2.64506 8.36643 0.29902 -0.326518 0.282656 0.633583 
332 1 8.32983 1.04553 2.80123 1.61688 -0.287661 0.350962 
333 1 6.76506 7.78728 1.93639 -0.679275 1.38314 0.545161 
334 1 4.23481 5.87022 0.590756 -0.199895 -0.366126 0.502605 
335 1 8.14264 1.96707 2.57766 -0.291316 -0.703842 0.975397 
336 1 1.50934 4.25892 4.4388 -1.02191 -0.87064 -1.63582 
337 1 2.8313 0.146913 1.45089 1.06782 1.26047 0.234557 
338 1 1.5426 6.07951 2.67536 0.376478 1.00198 -0.588764 
339 1 2.06016 5.04056 4.59025 -0.539029 0.117579 0.0456409 
340 1 4.89078 7.22938 6.91961 0.473887 -0.411438 -0.502959 
341 1 0.0558221 9.18449 2.66698 0.70676 0.0547446 0.987053 
342 1 0.126357 8.87952 5.46446 -0.754323 0.310278 -0.557419 
343 1 1.91768 1.38387 1.32569 0.2453 -0.0464466 -0.385572 
344 1 8.29033 6.19081 3.31934 0.141474 0.276254 0.133943 
345 1 4.39442 8.05577 6.87428 1.28221 -0.27061 0.107069 
346 1 8.08912 1.44611 6.80386 1.41553 -1.39756 0.194572 
347 1 9.3701 8.23013 2.7925 -0.0790801 -0.214666 -0.509812 
348 1 2.89596 3.35615 3.91462 0.180748 0.18332 0.53409 
349 1 3.74169 8.70306 5.8613 -0.467652 1.34748 1.04406 
350 1 8.01454 2.26636 0.564363 -0.0369055 -1.21138 0.548404 
351 1 2.54767 0.217177 3.64342 1.36511 0.881623 -0.293984 
352 1 8.50913 5.42986 7.50255 0.0457823 0.675441 -0.381667 
353 1 7.47369 7.45943 8.09034 -0.101462 0.70664 -0.0373707 
354 1 1.09274 7.47996 5.04272 -0.946586 0.240336 0.165614 
355 1 5.20396 6.12631 6.3301 -0.734887 0.844051 -1.25155 
356 1 6.67318 7.64186 6.67934 0.955753 1.77576 0.385406 
357 1 0.41363 2.04659 2.52042 0.00180621 0.769016 0.264129 
358 1 7.73947 6.21638 4.09591 -0.0797903 -0.538029 0.491964 
359 1 8.24188 9.20489 8.70908 0.733158 -0.396927 -0.685035 
360 1 7.71807 8.35338 8.34799 1.26775 0.88698 -0.41895 
361 1 3.40817 1.19756 4.7527 0.541185 0.236825 -0.857126 
362 1 4.17365 2.13687 9.3288 1.58114 1.74995 -0.0512551 
363 1 4.96663 9.2561 6.78187 -0.377787 0.363647 0.253496 
364 1 7.17293 7.00317 4.01232 0.937229 0.498966 -0.431374 
365 1 3.55507 0.860978 7.68577 0.182118 -0.394408 -0.316405 
366 1 2.92796 0.0773087 2.41046 0.0594292 1.17703 -0.206533 
367 1 7.68907 0.372516 6.0356 -0.973981 -1.93688 -0.447276 
368 1 0.939661 0.798966 8.10944 -0.151703 -0.74225 1.37227 
369 1 1.00003 2.8019 5.00033 -1.54584 0.279923 1.11097 
370 1 6.04982 0.670348 0.609268 0.814582 -1.19125 1.72685 
371 1 0.938671 2.09883 1.73817 -0.342745 1.06486 -1.2616 
372 1 0.478037 2.32446 0.96023 0.191924 -0.243096 0.485929 
373 1 7.72666 0.277564 0.0412244 -0.443575 -0.277457 0.116709 
374 1 5.17266 7.84671 7.68217 -0.743763 0.225165 1.1442 
375 1 7.38793 5.49587 4.59891 0.963633 -0.1277 0.0316834 
376 1 0.477873 7.68294 8.5094 0.497789 0.561945 -0.438112 
377 1 4.34413 5.52387 2.18167 -1.53827 -1.33836 1.12992 
378 1 0.645481 8.51436 9.03365 1.03996 0.733034 -0.202201 
379 1 8.45752 7.72419 4.99093 0.636074 -0.107974 0.31774 
380 1 5.06224 7.73138 6.12964 0.826293 -0.516267 0.0141675 
381 1 5.04103 0.810263 2.75779 -0.870957 -0.652257 0.232834 
382 1 9.36458 4.02117 7.78373 -1.84106 0.06136 -0.211256 
383 1 8.10726 8.4028 9.21539 0.167097 -0.210978 -0.208582 
384 1 7.63227 5.35798 6.81747 -0.444652 -0.598811 0.20721 
385 1 4.51675 6.44676 2.00473 -0.839797 -0.109242 -0.289258 
386 1 1.23768 9.12869 6.8915 1.27613 1.13648 -0.774096 
387 1 0.617919 3.51988 9.36358 -1.2244 1.02988 0.506259 
388 1 0.748932 6.11206 7.16052 0.00710662 0.463157 0.390386 
389 1 6.83562 0.150259 6.37598 -0.136558 0.573063 -0.733059 
390 1 5.52215 6.19284 1.96755 0.134279 0.255001 0.328324 
391 1 8.78588 3.88041 7.02363 0.248294 -1.3945 0.478636 
392 1 6.89018 2.75798 8.96614 -1.51199 -1.03748 -0.0777936 
393 1 3.42242 8.9591 0.421726 0.788902 -1.76501 -0.159789 
394 1 7.08769 6.69218 9.15451 -0.702394 0.434313 -0.294823 
395 1 4.79392 9.01106 0.542948 0.80657 -1.41148 0.158573 
396 1 7.93716 0.275716 4.34236 0.710866 0.620972 -0.0156209 
397 1 9.18173 0.0215434 0.834303 -0.573053 0.465018 -0.0897117 
398 1 2.00654 0.506579 0.92257 1.22395 0.700318 0.282232 
399 1 5.17288 0.719695 7.14749 0.860325 0.694259 -0.48299 
400 1 2.36124 6.71244 4.31234 0.0882402 0.0431455 0.0526238 
401 1 4.38634 0.866291 3.46218 0.950836 0.914869 -1.50076 
402 1 7.75265 2.23029 7.22314 -0.547545 -0.411955 -0.105901 
403 1 0.65804 5.28473 8.5785 0.774248 -0.050925 -0.736888 
404 1 9.32172 8.17294 4.75048 1.14724 -0.611265 -0.666839 
405 1 4.49041 0.593612 0.319795 1.5215 -0.48994 0.419499 
406 1 2.13108 0.0332689 8.57489 -0.68388 -0.682321 -0.120667 
407 1 0.572482 0.616752 8.97629 1.1109 0.496934 -0.699972 
408 1 8.80233 2.41546 5.78152 -0.338325 0.609361 -0.0978346 
409 1 7.47482 5.93224 1.20126 -1.15599 -1.49478 0.338988 
410 1 9.38215 3.17082 7.27633 0.290977 0.697923 -0.260193 
411 1 3.44043 1.74502 1.08624 0.378275 -0.182301 0.122249 
412 1 3.91494 7.2425 6.67984 -0.166325 0.0177819 0.0145247 
413 1 7.14197 9.11751 4.51895 -0.992499 0.535521 -0.474074 
414 1 4.10807 9.3387 3.12835 -0.390813 0.0338318 0.492023 
415 1 8.26298 2.32401 1.62745 -0.921888 0.951582 -0.503228 
416 1 1.70084 6.13986 7.47371 -0.636126 -0.174183 -0.66587 
417 1 2.05487 1.59067 5.49749 0.100266 0.000681482 -0.610173 
418 1 2.12902 7.77795 8.37891 -0.840204 1.16985 0.787541 
419 1 1.06337 1.14264 3.48971 -0.721454 1.23022 0.557192 
420 1 5.6614 7.46349 2.57124 -0.579808 -0.25452 0.199946 
421 1 9.35142 7.35979 5.24061 -0.140091 -0.672102 1.15215 
422 1 6.99442 0.551284 0.567175 -1.2379 -0.897176 1.19508 
423 1 7.5527 5.91398 8.68878 0.0446058 1.13693 -0.411561 
424 1 8.21637 2.56078 8.06855 0.391205 -0.045486 -0.154777 
425 1 6.21451 8.8135 5.25284 -1.85863 -0.0658381 0.518167 
426 1 6.26796 7.90337 3.12898 -0.696661 0.878219 -0.160056 
427 1 7.72013 5.56065 5.87339 0.382032 -1.24102 1.12651 
428 1 3.45117 1.00897 6.67804 0.665698 -0.655168 -2.19158 
429 1 3.64805 7.63853 8.25777 0.356156 0.295624 -0.224317 
430 1 9.11847 9.19898 7.66452 0.80984 -1.03702 -0.631245 
431 1 6.9926 8.33603 2.72203 -0.632575 -0.0187909 -1.05011 
432 1 0.433393 3.1078 1.52707 -0.800806 -1.05614 1.16677 
433 1 0.540282 3.94682 2.02846 -0.135798 1.20544 -0.508374 
434 1 5.5764 3.10736 0.0524033 0.575277 -0.179402 -0.591772 
435 1 8.3373 3.98022 6.14154 1.64532 -0.754183 -0.75444 
436 1 0.494154 6.56459 3.08638 0.544942 -0.101235 0.20017 
437 1 1.45164 3.05288 9.24343 1.07745 -1.08231 0.39644 
438 1 8.32732 6.28586 1.59624 0.496066 -0.0209972 -0.455404 
439 1 8.62562 6.42835 4.26385 -0.143422 -0.377665 0.509568 
440 1 2.6489 5.99512 8.91084 0.254468 -0.341821 -0.639947 
441 1 8.3402 7.65161 8.61731 0.493031 -0.604698 -0.129665 
442 1 8.01273 6.78221 7.65936 -0.0243839 0.0135672 0.540661 
443 1 7.95986 4.95385 3.99629 -0.438516 -0.355597 -0.141084 
444 1 5.99476 1.05315 4.27172 0.163509 -0.265326 -0.531176 
445 1 1.00332 4.20553 6.18386 0.204923 -0.625539 0.418554 
446 1 8.5303 3.1708 0.45752 -0.915446 0.287909 0.143538 
447 1 5.50618 2.92175 2.40279 0.0372737 0.80535 -2.22188 
448 1 0.0654017 3.10081 0.612807 0.610056 0.238179 -0.368998 
449 1 4.69785 0.686666 5.15482 -0.804221 -0.532077 1.43064 
450 1 2.50902 0.0691159 7.68781 0.377615 0.687934 -0.205037 
451 1 7.50548 1.46873 4.35087 0.774679 1.22504 0.39003 
452 1 9.00839 6.88444 0.433367 0.352701 0.0853661 1.2168 
453 1 8.59576 7.66455 2.51935 0.646371 0.801153 -0.033457 
454 1 0.0792068 2.19496 0.081664 -1.81746 -1.54508 -0.67239 
455 1 0.177327 9.0815 4.53004 -0.340321 0.580689 -0.454458 
456 1 1.24736 5.20008 4.10023 -0.552531 -0.952817 -0.472167 
457 1 5.12175 5.72816 7.3109 0.182537 0.0567842 1.14645 
458 1 3.61912 6.75553 7.76699 0.412658 0.158877 0.412807 
459 1 4.48577 8.08695 8.31483 1.38348 0.846087 0.307156 
460 1 9.10113 9.32929 1.78381 0.714452 0.781518 -0.821422 
461 1 2.49007 7.13986 3.42809 0.3458 -0.618986 0.860001 
462 1 6.30939 4.99531 8.5569 0.619011 0.32216 0.0921136 
463 1 4.95512 1.11254 4.30335 -0.55204 -0.081879 1.03143 
464 1 9.04414 7.28539 4.3211 -0.574669 1.14978 0.662979 
465 1 1.33655 2.11016 7.85404 0.0962641 0.0242834 -0.297873 
466 1 7.20424 9.37486 3.55734 -1.18253 -0.0483496 0.625641 
467 1 2.47388 7.71568 2.5747 -1.19255 -2.18017 0.0982705 
468 1 6.25487 0.213783 4.74915 -0.623258 0.152502 -0.959656 
469 1 1.88323 4.66801 3.66185 1.07492 -0.426148 0.346993 
470 1 2.37589 3.28895 9.28115 -0.313019 -0.68586 -0.0703631 
471 1 1.91724 3.40771 4.13399 -0.921463 -0.661775 0.0301645 
472 1 4.34674 6.77692 1.07535 1.00939 0.803961 -0.35163 
473 1 4.30825 0.497323 6.66007 -1.07613 0.130072 0.137971 
474 1 0.745665 9.26408 8.41461 -0.0276473 -0.698696 -1.59081 
475 1 1.38935 8.61471 1.50756 0.588742 0.116858 -0.72199 
476 1 0.542233 4.30067 0.474221 0.0951122 0.010237 0.786301 
477 1 1.13276 4.48825 7.18739 0.270181 -0.303887 -0.412924 
478 1 1.37216 7.29575 3.05502 -0.531595 0.228145 0.323911 
479 1 5.80728 6.70239 1.21715 -0.246269 0.362344 0.114005 
480 1 1.65663 4.31264 2.74989 -1.90297 0.587599 -0.192986 
481 1 4.29071 1.1622 8.96167 -0.441405 -2.57657 -0.013562 
482 1 1.83471 0.531911 7.03824 -0.431121 -1.38729 0.525431 
483 1 9.1334 0.620988 3.15439 1.04945 1.80872 -0.0974537 
484 1 0.116902 6.34029 2.15995 -0.106962 0.839965 -0.0511983 
485 1 1.3947 3.57812 6.82235 0.0206953 -0.304327 -0.926295 
486 1 7.06952 2.25412 0.351658 0.0351954 -1.11281 0.0896245 
487 1 2.23659 8.01307 4.24773 -0.664305 -0.439722 0.194291 
488 1 0.424184 6.74728 4.73375 -0.100403 0.0978377 -0.816728 
489 1 2.5887 8.85055 4.69513 -0.375976 -0.518896 0.575977 
490 1 9.2476 4.88043 8.20191 -0.161879 1.42556 0.511093 
491 1 9.21859 5.99908 4.8282 -0.468094 1.15989 0.491088 
492 1 0.764215 7.78048 2.41432 0.0915956 0.190128 0.426302 
493 1 4.28617 1.48875 2.73992 -1.20351 0.203724 0.980273 
494 1 5.61014 2.48811 0.854697 0.604466 -0.172989 -0.110414 
495 1 1.70438 4.48136 5.37762 0.241139 -0.523612 0.276169 
496 1 8.67272 6.59262 2.53154 -0.195574 -1.00996 0.548343 
497 1 1.98196 4.2262 1.02368 1.11855 -0.898349 -0.219553 
498 1 2.64489 3.08771 3.03688 0.195167 1.26471 -0.629469 
499 1 3.49908 5.88796 8.4707 -0.903793 -0.0760554 1.33174 
500 1 1.50715 5.62883 5.10803 -0.805835 -0.167244 0.53026 
501 1 0.549402 0.541041 4.09662 -0.12722 -0.744046 -0.476648 
502 1 8.42624 4.92554 5.81203 0.0206774 0.302482 -1.38169 
503 1 7.83646 6.16146 5.11222 0.196773 0.170784 0.664559 
504 1 3.49621 0.569248 9.28538 -1.33575 1.55559 1.19462 
505 1 4.2914 5.72707 9.05397 -1.13026 0.585428 0.112991 