ITEM: TIMESTEP
1522
ITEM: NUMBER OF ATOMS
1000
ITEM: BOX BOUNDS pp pp pp
0.0000000000000000e+00 9.4000000000000004e+00
0.0000000000000000e+00 9.4000000000000004e+00
0.0000000000000000e+00 9.4000000000000004e+00
ITEM: ATOMS id type x y z vx vy vz 
1 1 6.52271 4.08383 5.44811 0.404011 0.403221 0.192141 
2 1 4.22757 3.68546 0.862909 0.861502 0.0713476 -1.20935 
3 1 0.546739 3.48889 4.73411 -0.576246 -0.480524 0.3995 
4 1 2.26223 5.70716 6.1225 -0.00594012 0.0147137 -0.427205 
5 1 1.3713 4.4261 6.72113 0.0349278 -0.010948 -0.144314 
6 1 6.04962 7.24326 4.93361 -0.907627 0.963082 0.98962 
7 1 5.71268 2.43339 4.83688 0.463866 -0.149849 0.484678 
8 1 1.93053 8.40517 2.42852 0.024894 -0.288039 -0.942175 
9 1 5.97613 0.934647 4.72936 -0.1997 -0.546763 -0.704387 
10 1 8.91936 3.92046 6.66439 -0.0968625 -1.59277 1.05034 
11 1 6.3903 2.52926 5.53912 0.250504 -0.346196 -0.0201622 
12 1 4.52079 7.18793 7.96892 0.308536 0.0375413 -0.00437874 
13 1 6.03272 0.93977 5.66675 -0.76636 0.0268601 0.698852 
14 1 2.88989 2.27606 4.57334 -0.130719 0.155817 0.289617 
15 1 6.17639 4.72884 2.53932 -0.214672 0.992023 -0.487506 
16 1 4.75845 3.83384 8.04135 -0.573987 -1.26306 1.90569 
17 1 4.06753 5.63574 7.73177 0.195311 0.0377183 -0.272536 
18 1 2.86488 4.35727 2.80776 1.04095 -0.0980642 -0.242316 
19 1 7.97524 6.75484 5.43068 -0.453136 -0.0311458 -1.28325 
20 1 4.01605 5.3708 5.52821 0.558915 -0.300219 1.39873 
21 1 8.94054 0.721228 3.17708 0.636927 0.138573 -0.59174 
22 1 1.2195 0.410014 8.85149 -0.610377 -0.708863 0.382562 
23 1 4.04063 6.92989 6.59582 0.319703 -0.231925 0.0765639 
24 1 6.51193 0.144081 6.05064 -0.314075 -0.0135747 0.178449 
25 1 3.88228 3.63231 9.32091 -0.77395 -0.295974 2.44543 
26 1 0.907508 6.26612 5.01435 -0.255848 -0.202897 -0.949879 
27 1 3.36401 6.27633 1.50304 -0.329685 -0.154254 -1.18264 
28 1 1.95085 7.16497 8.12719 -1.15461 -0.220427 0.0519355 
29 1 7.19874 0.860703 4.52634 -0.714618 -0.595671 -0.245197 
30 1 6.55694 0.720994 8.06968 -0.901092 0.453516 -0.707277 
31 1 9.34384 5.52518 7.18366 -0.0855315 -0.0677907 -0.693592 
32 1 6.3807 4.02519 3.19379 -0.281216 0.419266 1.15651 
33 1 1.07805 4.20711 2.73184 0.0850809 1.87478 -0.951675 
34 1 1.86099 2.46166 4.8317 0.457584 0.0449129 -0.242088 
35 1 8.41806 5.54279 2.67294 -0.946344 1.00924 -1.32224 
36 1 7.5226 1.49649 5.17775 0.560748 0.323854 0.0431 
37 1 4.52204 9.02373 2.986 -0.592541 -0.0920467 -0.0569803 
38 1 3.61588 7.15405 1.84777 2.1765 0.967423 -1.01379 
39 1 1.04096 5.28291 1.23152 -0.56525 0.0846394 0.442996 
40 1 0.424293 4.20954 6.57857 0.697014 -1.02262 -0.917328 
41 1 9.4165 4.55732 7.40161 -0.278236 -0.446155 0.14094 
42 1 5.88043 1.10998 9.29082 -0.193633 1.01519 -0.142816 
43 1 2.37746 3.13398 4.40926 -0.042001 1.01727 -0.273942 
44 1 8.05482 3.56646 6.55306 0.291363 -0.135769 -0.574549 
45 1 9.18139 3.98613 1.74866 0.284954 -0.269923 0.329479 
46 1 2.17387 7.0774 9.10283 -0.827307 -0.732627 -0.84841 
47 1 2.12976 3.71283 2.88629 0.244785 -0.0438062 -0.2561 
48 1 2.08696 6.39171 5.46571 -1.30889 0.426967 -1.58231 
49 1 5.92318 5.59297 2.87463 -0.000885837 0.323159 -0.761051 
50 1 3.02377 2.84858 3.75586 -0.192238 -0.339291 -0.330174 
51 1 7.28192 4.9247 2.10469 -0.00334785 0.288496 -0.232207 
52 1 2.79659 5.47796 4.28546 1.19964 -0.840201 -0.521235 
53 1 9.31874 9.12156 1.59159 0.706457 -0.192451 0.411113 
54 1 6.88493 4.92958 7.05074 1.52383 -0.811133 -0.271975 
55 1 5.51277 0.163494 4.41865 -0.467088 -0.502965 -0.849973 
56 1 1.80298 4.74746 5.38639 -0.980686 -0.675609 0.77102 
57 1 7.64744 7.70488 3.18304 0.171766 0.631121 -0.81354 
58 1 1.70116 1.43077 3.63659 -0.666632 -0.244212 -0.189424 
59 1 6.06341 3.9504 0.158151 -0.155923 -1.14831 -1.07531 
60 1 1.80047 5.36621 2.98684 1.36686 0.195306 -0.932718 
61 1 4.58715 5.14402 0.796111 -0.234878 0.459673 0.802237 
62 1 8.40876 5.44319 6.88031 0.36318 -0.699264 1.31948 
63 1 4.32576 5.62473 2.64102 -0.844771 -2.02749 -1.99296 
64 1 4.87996 5.29872 8.20209 0.493637 1.54241 -0.571504 
65 1 7.83269 2.21709 0.490518 -1.57931 -2.03483 -1.03979 
66 1 3.28125 3.59104 6.80326 0.205305 0.238842 -0.00112541 
67 1 5.61606 3.68524 7.58944 -0.443729 -0.540444 1.93367 
68 1 2.6714 7.84949 0.124358 -1.69078 -1.0162 -0.729489 
69 1 6.98459 0.9432 6.40166 0.059182 -1.21298 0.447986 
70 1 5.6471 3.06551 0.0100028 -0.909171 0.454711 0.124808 
71 1 0.0695195 8.60932 2.9384 -1.22043 -0.15846 0.63154 
72 1 4.26105 7.81534 1.5489 0.765935 -1.0394 0.619176 
73 1 7.38841 4.29863 1.35535 0.477946 0.37764 0.244189 
74 1 4.27108 2.73905 1.17002 -0.981635 1.72628 -1.21197 
75 1 1.0499 3.52472 6.60719 -0.0421597 -0.101152 -1.15358 
76 1 8.08027 5.3091 1.74297 0.297676 1.08822 -0.593028 
77 1 8.53536 5.97679 4.3132 0.0719797 -1.06367 0.158788 
78 1 3.22807 1.9301 2.26118 2.17855 0.679826 0.13672 
79 1 2.67842 8.33976 1.85516 -0.78701 -0.706397 0.501959 
80 1 0.447275 1.00335 0.889393 0.214701 0.605018 1.59301 
81 1 1.77462 5.37532 2.01477 0.100193 0.67569 0.626676 
82 1 6.2774 4.09536 8.39944 1.06484 0.340217 -0.600122 
83 1 7.95125 1.38124 7.38819 -0.71016 -0.996818 0.874301 
84 1 4.39383 3.45516 1.80766 1.19275 -1.3258 1.03343 
85 1 1.52151 2.22032 5.69605 0.00192488 0.536861 -0.142834 
86 1 8.90573 1.14423 4.27321 -0.0264852 -0.0564015 0.17646 
87 1 6.07117 9.07334 6.7882 0.737948 -0.551976 -1.24723 
88 1 0.196901 3.0402 2.04614 -0.638047 -1.59572 -0.00692958 
89 1 1.42728 6.28144 6.15929 0.0371032 -0.296287 -0.0886886 
90 1 1.52791 7.56826 1.04853 -1.02899 -0.155471 0.35099 
91 1 4.8886 9.10654 5.97857 -0.238631 -0.62782 0.620439 
92 1 5.88046 7.84195 6.09261 -0.161156 0.134585 0.839245 
93 1 8.93251 6.75707 3.88587 -0.419389 0.376289 -1.51642 
94 1 1.94737 6.29001 0.240056 0.782063 0.30022 -0.169214 
95 1 2.41169 7.93735 1.04431 0.16582 0.151238 0.740204 
96 1 1.52044 6.47718 8.72734 0.228189 -0.531466 0.030919 
97 1 5.83266 4.27928 6.14745 0.25943 -1.05221 -0.0973868 
98 1 8.12907 2.58242 9.02784 1.60556 -1.32347 0.840877 
99 1 6.05197 3.29672 5.08477 0.609648 0.464007 0.195767 
100 1 1.68773 8.67689 9.03244 -0.0971191 -0.942721 -0.06292 
101 1 7.69941 3.41188 1.56252 -0.0900258 -0.582757 0.0015833 
102 1 0.603244 4.25215 0.757363 -1.84248 0.401278 0.0839251 
103 1 6.74651 6.84858 3.31282 0.706946 0.401783 -0.00101324 
104 1 1.89646 1.15112 0.817442 0.355326 -0.340522 0.6219 
105 1 4.82444 1.19342 3.64911 -0.194357 0.570755 -1.28804 
106 1 5.18195 8.61976 1.9972 -0.185075 0.541521 0.466505 
107 1 1.93081 4.56252 2.55292 -0.404715 -0.399851 0.344215 
108 1 1.32882 3.10894 4.25595 0.817948 2.12805 -0.30462 
109 1 3.53094 3.68294 3.92139 0.519586 0.939676 -0.877747 
110 1 4.99746 2.68161 1.79772 1.64025 0.043513 -0.83521 
111 1 0.995671 1.68699 5.04943 -1.50149 -0.278315 -1.6802 
112 1 0.133119 3.26326 6.37407 -0.0390062 -1.27785 0.197068 
113 1 1.58676 4.89709 8.9539 0.425499 0.500298 1.44861 
114 1 3.62482 7.82082 5.35682 -0.254538 -0.390188 0.104164 
115 1 1.9202 0.140767 0.0958267 -0.0281848 1.36985 -0.11152 
116 1 8.45963 5.2208 5.87283 -0.425716 -1.42429 1.17668 
117 1 0.891494 4.13878 4.15505 -0.263439 1.11545 0.732514 
118 1 6.4414 2.69669 3.26607 -0.451277 0.917418 -1.37131 
119 1 5.26754 8.93749 5.10166 -0.0741201 -0.574554 -0.13063 
120 1 9.04144 6.57834 9.18584 -2.41474 0.931046 0.197619 
121 1 6.89638 0.98718 8.93161 0.572727 0.763984 -1.04255 
122 1 4.79014 8.18722 3.43781 -0.346204 -0.49685 -0.6056 
123 1 7.44829 8.69899 5.62351 0.0184371 0.111752 0.452521 
124 1 7.50174 4.18417 6.9648 0.604953 0.958344 -0.173418 
125 1 4.15185 5.78955 4.67269 -0.629193 2.5489 -0.648288 
126 1 2.85026 0.494066 2.96222 0.873351 0.257588 0.155283 
127 1 4.68371 7.48628 4.09368 -1.0138 -0.501593 1.39343 
128 1 3.93049 3.75208 6.11487 0.1865 1.32699 -0.087451 
129 1 1.25872 4.07349 5.02116 0.467848 0.769221 -0.25847 
130 1 9.15815 1.24385 0.27123 -0.793224 -0.214104 0.363778 
131 1 2.58987 4.26825 7.00502 0.552111 -0.776559 -0.323092 
132 1 4.86495 6.56578 6.1474 -1.7592 0.724564 0.233661 
133 1 4.06683 0.805959 4.55425 -1.19346 2.33549 -0.601134 
134 1 4.65458 5.08394 1.76128 -0.655555 0.693756 0.960898 
135 1 7.17184 5.29151 1.21094 0.182014 0.522934 0.345517 
136 1 4.6522 2.5918 2.68962 -0.555594 -0.683677 -0.806785 
137 1 7.0976 9.13978 6.71262 0.945267 0.762378 -0.236637 
138 1 6.65045 3.68844 1.48708 -1.07142 1.20592 0.634965 
139 1 2.67699 0.0239796 3.80367 1.03391 -0.225459 -1.4069 
140 1 4.56868 2.15601 3.52863 0.0632103 1.04783 -0.676656 
141 1 3.02369 5.15019 9.36614 0.721019 -0.427343 0.0979369 
142 1 9.25298 2.59839 7.5114 0.490665 -0.0200547 -1.54664 
143 1 5.22671 0.489974 5.35481 -0.0373724 0.905482 0.270681 
144 1 5.94496 9.34825 3.56169 0.338178 1.02606 -0.533129 
145 1 0.345372 5.26891 8.01736 0.00931633 -0.89762 -0.460012 
146 1 8.63132 2.96849 0.675728 -0.00431439 -0.433362 -0.0649965 
147 1 1.05912 9.16451 0.149067 -0.290453 -0.679264 0.765612 
148 1 6.84306 3.53124 0.498435 -0.721793 1.10611 -0.58815 
149 1 4.76114 3.48671 7.13072 -0.626132 1.5085 -0.110697 
150 1 6.62138 6.41079 1.65265 -2.05945 -0.708327 -0.924867 
151 1 3.46583 0.640971 2.2235 0.274236 -0.0971215 -0.833 
152 1 6.22067 6.14886 6.24694 1.15734 -0.963448 0.980675 
153 1 2.59046 2.89837 6.59263 0.538997 -0.373946 -0.585714 
154 1 3.15661 4.14877 1.36389 0.661257 -1.13644 -1.03896 
155 1 3.04806 6.59753 2.34442 0.97474 0.384121 0.271777 
156 1 8.42599 8.30279 3.29703 2.04901 0.455716 0.709229 
157 1 6.61396 5.63698 5.50418 -0.0386394 0.27208 -1.41357 
158 1 1.55337 9.29709 0.997566 -1.01319 0.628958 0.122427 
159 1 7.27254 0.408238 2.76141 -0.0179886 -0.412676 -1.7339 
160 1 5.93162 1.25603 7.55487 0.732284 -0.596665 0.705209 
161 1 4.70106 5.60158 6.11247 0.197451 0.751455 -0.63037 
162 1 2.86778 7.55764 2.35513 -1.57941 -0.750687 -0.295121 
163 1 1.466 8.29833 4.22577 0.176657 1.15094 0.520375 
164 1 7.47284 3.30645 7.47384 -0.734888 2.52879 0.258903 
165 1 6.84964 1.6863 5.83836 -0.318202 1.41272 -1.24462 
166 1 5.28766 3.33705 2.42854 0.380722 0.658091 0.46411 
167 1 3.39445 2.32066 1.39393 1.31225 2.00664 -0.48351 
168 1 8.42887 2.23627 2.93754 -0.0172146 -0.147849 0.542473 
169 1 2.36848 4.47076 0.0773586 -0.0985378 -0.0952997 -1.04682 
170 1 1.27008 4.72593 3.52411 0.0344825 1.2781 -1.03763 
171 1 4.29038 0.299579 5.40708 0.684488 -1.14858 0.212171 
172 1 5.20326 1.18528 6.05023 0.377845 -1.71086 -0.397915 
173 1 0.973974 4.61578 8.26586 0.0909515 0.302049 -0.0754537 
174 1 6.24468 5.11086 6.34129 -0.237192 0.550987 0.102073 
175 1 4.94964 3.16613 5.01191 -2.00556 -0.174678 0.134596 
176 1 7.71529 5.04423 7.52164 0.667206 -0.124742 1.42739 
177 1 2.1969 2.1909 3.95911 0.621867 -0.491607 -0.299553 
178 1 0.262094 5.21085 0.684366 -1.51741 -0.304545 -0.715398 
179 1 0.452732 3.39449 3.70529 1.65751 0.196504 -0.61745 
180 1 0.295937 0.123614 3.26681 -0.914815 0.622338 1.58891 
181 1 3.14915 4.02577 0.415553 -0.407075 1.7756 -0.794879 
182 1 8.5094 0.490885 0.202784 -0.524454 1.1437 0.43446 
183 1 3.68202 9.34129 0.708612 -0.0944324 -0.313936 0.447093 
184 1 6.07197 5.14825 0.99987 -1.39694 -1.21898 1.03721 
185 1 5.43911 0.809022 0.697091 0.926272 -0.77198 0.381727 
186 1 5.59705 8.67629 7.54452 -0.206665 -0.323098 -0.731852 
187 1 5.09717 9.02802 3.76417 0.473104 -0.516641 0.839355 
188 1 6.28344 6.99341 5.81832 0.868377 0.598395 0.420773 
189 1 5.07633 6.04106 4.43586 1.60492 -0.951843 0.716553 
190 1 4.42113 8.4866 6.59717 0.784832 0.418754 -0.484053 
191 1 8.9778 0.696324 1.03597 -1.15254 0.042818 0.461851 
192 1 1.1113 4.94414 0.348461 0.577764 0.020869 -1.33531 
193 1 0.476736 7.43832 2.38607 -0.476038 -1.67207 -1.38286 
194 1 1.14077 2.3018 2.46455 0.16287 -0.01721 -1.35401 
195 1 0.639249 5.38971 3.37746 0.365976 1.02631 -0.693728 
196 1 1.49862 5.63362 5.38653 -0.125756 -0.811181 -0.284194 
197 1 6.26227 3.40505 6.03263 0.841329 0.204991 -0.442526 
198 1 3.94752 6.56696 7.4813 -0.0314843 0.166042 0.0142937 
199 1 3.5045 7.34249 7.75334 -0.492923 -0.357274 1.43125 
200 1 6.98198 4.83107 5.81186 -0.199797 0.181978 1.51115 
201 1 0.845022 4.02348 7.42733 -0.500323 0.459573 0.529329 
202 1 8.24399 2.60477 7.61728 -1.03623 -0.173343 -0.187541 
203 1 5.49497 9.03906 2.78742 0.610153 -0.919671 0.479542 
204 1 0.8452 1.77324 3.32635 -0.549305 -1.35424 0.501144 
205 1 7.6032 0.493168 1.80366 0.894277 1.93287 -0.631939 
206 1 3.90476 3.07218 3.32841 -1.66216 -0.758894 0.621048 
207 1 1.29118 4.58075 1.81203 -0.63428 -0.48435 0.544145 
208 1 7.04562 2.51833 6.21226 -1.08259 0.335893 0.756828 
209 1 5.66828 8.48128 0.464999 0.446039 -0.291758 -0.424058 
210 1 4.21849 3.05712 8.44304 2.04461 0.479116 -1.35964 
211 1 4.69389 3.12578 6.03626 -0.673801 -0.177698 0.30501 
212 1 5.4927 1.7083 4.19805 0.0721907 0.410766 -0.606496 
213 1 1.3745 7.64737 2.65838 -0.231123 -0.446747 -0.405775 
214 1 7.21529 2.78348 3.87902 3.00564 0.561123 1.23333 
215 1 0.410047 9.28608 2.37532 -0.306275 1.13197 0.780366 
216 1 5.1516 5.77478 2.13742 -0.261795 -0.784274 -0.664307 
217 1 5.57798 6.42686 5.41706 1.07885 0.657852 0.767211 
218 1 5.5746 0.305766 6.25275 -0.131445 -0.980529 -0.623031 
219 1 6.08726 2.60476 6.46727 -1.49773 0.0369489 -0.646579 
220 1 8.36036 5.00515 8.77986 0.24706 -0.62542 -0.134814 
221 1 3.49853 3.27691 1.48166 -1.01602 -1.06105 0.929121 
222 1 8.8062 9.09356 4.71941 0.334011 0.104594 0.761571 
223 1 2.67334 7.05372 1.54505 0.39415 -1.56378 -0.45901 
224 1 7.93802 5.34625 4.67294 0.17024 -1.28204 -0.57107 
225 1 5.52229 2.44906 3.577 -0.536895 -0.0292113 0.905194 
226 1 0.752837 6.0115 7.63385 0.214713 -0.0987317 0.736325 
227 1 0.305701 0.652428 4.59895 -0.160922 0.576728 0.0877979 
228 1 6.23425 7.60346 3.05473 -0.269613 0.0313811 0.03738 
229 1 4.27266 3.20416 4.30258 -0.0399996 0.100868 0.0649741 
230 1 1.71372 9.22881 2.01892 0.5471 0.589573 -0.206854 
231 1 2.70943 6.71572 7.5856 1.38263 -0.340301 -0.05378 
232 1 2.80724 5.47363 1.55849 0.752008 0.889336 0.664291 
233 1 4.02436 0.249695 1.57386 -1.61393 -0.125909 -0.362564 
234 1 8.28376 9.25939 5.5345 -1.90199 0.792814 -0.562225 
235 1 4.75169 2.25496 5.2339 0.641464 -0.410718 0.641422 
236 1 2.6729 2.87919 5.30636 0.19137 -1.19589 1.07603 
237 1 2.30252 3.90893 0.950114 0.341069 0.277194 1.6562 
238 1 4.81093 7.55847 6.41902 0.149655 0.245065 0.340236 
239 1 3.73114 9.14237 2.37871 -0.873508 -1.28086 0.929085 
240 1 7.47207 0.217124 5.96019 -0.125399 0.666705 -1.82238 
241 1 6.44964 3.36875 3.95728 0.189105 0.142381 0.437121 
242 1 4.45657 8.73857 8.65876 0.349764 -0.399509 1.13327 
243 1 6.4799 6.43486 5.05869 0.977448 -0.269408 -1.16255 
244 1 4.94901 8.35022 1.11479 -0.127732 -1.29256 0.00528652 
245 1 4.17966 4.61944 2.43401 0.186638 0.829638 1.95445 
246 1 4.62687 5.30449 4.06397 1.9878 1.63635 0.435566 
247 1 2.30423 6.19068 1.89925 -0.127323 -0.111434 -0.25684 
248 1 9.23824 4.73633 8.56687 -0.0905256 -1.09629 -1.00796 
249 1 1.07323 3.25722 2.62702 0.748656 0.945878 0.13669 
250 1 8.73054 2.92242 6.76245 -0.0142214 0.10822 0.248821 
251 1 4.53001 4.36144 0.239267 -1.35737 0.919061 0.512753 
252 1 3.157 5.82424 7.53689 0.0254036 -2.19984 0.845745 
253 1 0.153412 2.76408 0.415526 1.35047 -0.144622 0.325382 
254 1 1.37247 6.06044 3.43778 -0.159322 0.778681 -0.192288 
255 1 0.368127 6.57168 1.95018 0.276054 -0.911999 -1.22251 
256 1 0.759231 8.76791 3.63946 2.0317 -0.0855425 0.0212695 
257 1 5.28878 4.95463 6.50109 -0.171404 -0.397349 -0.106055 
258 1 0.591779 7.89148 3.21744 -0.280157 -0.481897 -0.0963359 
259 1 3.93125 7.87744 3.74315 0.155246 -0.436474 0.0859421 
260 1 8.49175 7.07455 3.0834 0.449104 0.0660784 -0.0285209 
261 1 0.276645 3.99015 8.18527 -0.995359 0.225886 0.965892 
262 1 0.295106 2.51148 8.49803 0.404407 -0.0627186 0.39252 
263 1 6.4702 0.851075 2.0561 -1.13125 0.957432 0.208126 
264 1 0.646523 6.05114 2.6779 0.020032 0.184096 1.77272 
265 1 4.25325 2.4873 7.56342 0.493071 -0.281209 -0.154921 
266 1 3.3272 7.9988 8.83814 0.252901 0.241633 0.863072 
267 1 6.84035 9.11064 0.1248 0.916806 -0.320624 0.574016 
268 1 7.28892 2.37997 5.30655 0.0551462 1.16479 0.00293617 
269 1 0.932642 2.56747 9.28929 -0.0864095 -0.743144 0.443709 
270 1 1.63532 2.26402 1.62206 -1.12146 -0.806285 -1.12016 
271 1 1.11816 1.63199 1.14158 -0.159458 0.937251 0.043383 
272 1 3.32222 7.86096 1.2819 0.288374 2.17033 -0.395143 
273 1 4.91728 6.06282 7.61026 -0.638756 -0.487381 0.765138 
274 1 9.05491 0.696705 8.83887 0.345044 0.974844 0.386817 
275 1 8.23272 4.24182 1.79272 -0.345043 0.447335 -1.25339 
276 1 1.27279 7.50645 3.69929 -0.264285 0.234606 0.0242416 
277 1 1.31515 5.5624 8.27836 0.063079 -1.47802 -0.192996 
278 1 0.578483 0.0230823 0.952792 0.14216 1.79026 0.340358 
279 1 5.39617 3.66975 5.6433 -0.378362 0.483701 1.00773 
280 1 0.211673 7.44432 1.49497 -0.922225 0.939614 0.34198 
281 1 0.679093 3.72031 5.70039 0.186165 -0.277023 1.08408 
282 1 8.53233 2.95001 5.08935 -0.168431 0.242384 -0.451677 
283 1 5.22968 1.64991 8.62649 0.31554 0.45077 -0.206283 
284 1 5.48219 4.15596 2.91027 -0.0811625 0.423939 -0.982371 
285 1 4.64577 8.53161 7.57298 -1.2651 -0.430278 0.307639 
286 1 6.99282 1.95539 0.883538 -0.00566513 -0.283455 0.826517 
287 1 7.1825 0.104454 0.944675 -0.545738 -0.650184 -0.000465331 
288 1 1.30556 3.14155 5.21343 0.595266 -0.171867 -0.0792373 
289 1 1.23566 2.11644 4.1615 -1.16437 0.0965113 -0.6134 
290 1 3.44039 1.34407 1.5058 -0.989302 0.971188 0.272445 
291 1 9.1113 5.37623 4.75296 0.0104291 -1.39019 1.36697 
292 1 2.41825 6.10172 2.87979 0.700172 0.269658 0.685988 
293 1 8.06016 9.34077 2.42314 0.19152 -0.363007 0.443154 
294 1 5.17863 7.68484 1.80791 1.23877 0.662113 1.18567 
295 1 6.47075 3.28375 8.94805 -0.674068 -0.598349 0.0471355 
296 1 2.61748 6.28713 0.936167 1.56028 0.012239 1.12605 
297 1 0.384358 9.2885 8.84228 -0.229366 -0.366423 0.838708 
298 1 8.527 8.26036 4.34818 -0.424483 0.776597 -1.09893 
299 1 4.89222 4.03574 6.35001 0.270333 0.399738 -0.449023 
300 1 6.02895 2.91655 1.75669 -0.69235 0.661229 -0.285158 
301 1 5.02112 4.38024 7.23206 -0.525893 0.401125 0.185674 
302 1 7.01745 3.26915 5.50477 0.164537 0.897256 -0.142082 
303 1 2.0765 5.3328 0.310269 0.705245 0.601965 -0.698376 
304 1 8.66478 4.79983 4.13828 -0.310672 -0.581185 1.20066 
305 1 3.26151 8.63759 3.83663 0.799713 0.532182 -0.37548 
306 1 8.42571 5.92358 5.26495 -0.339544 0.356126 1.05457 
307 1 8.76637 8.72139 2.24147 0.373655 1.01318 -0.770245 
308 1 1.11531 0.522827 2.29925 -0.129126 -0.083747 0.534574 
309 1 7.58277 5.53992 5.61223 -0.865225 -0.803908 -0.508732 
310 1 7.67708 8.33347 3.93997 -1.27843 -1.96996 0.268473 
311 1 1.7758 4.70966 0.989532 0.0262636 -1.26197 -0.864041 
312 1 7.07512 3.08557 2.19061 0.943758 -1.02705 0.0527597 
313 1 8.99106 7.82698 2.68477 0.463579 0.303396 -0.513131 
314 1 2.31295 8.77247 4.49601 -0.854264 0.711769 -1.1646 
315 1 8.96021 2.31051 2.13654 -0.225452 -0.742169 -0.630068 
316 1 6.40811 8.9292 0.991081 1.27475 0.985703 0.0650102 
317 1 0.18287 1.9576 9.22966 0.417011 -0.501205 -0.752987 
318 1 0.598002 5.13588 6.61991 0.7869 -0.177168 0.668182 
319 1 6.66379 2.37686 8.68298 -0.65127 -0.310678 0.889149 
320 1 1.724 7.85287 0.178355 -0.802925 -0.466529 1.41939 
321 1 4.91019 5.51792 5.19362 0.444912 -0.0770697 0.356964 
322 1 8.31753 9.0595 3.89519 0.383712 0.707356 -1.3352 
323 1 8.94532 3.6933 3.46172 0.0936009 0.0938394 2.24229 
324 1 2.03816 0.607821 2.45627 -0.845713 0.29246 0.220272 
325 1 7.13409 4.63906 8.30507 -0.639725 -0.187867 -1.47696 
326 1 2.81373 6.0889 9.37697 -1.4694 0.244999 0.489106 
327 1 6.60852 5.9244 3.5405 0.249466 -0.00541161 0.372646 
328 1 0.231204 4.53497 2.45977 0.626819 0.0963448 -0.890718 
329 1 8.19041 6.43317 2.42544 -0.0679186 -2.24544 0.896755 
330 1 8.44547 1.03209 1.72116 0.0995825 -0.962308 1.21445 
331 1 3.72568 6.94856 3.61678 -0.116755 0.127954 0.0434856 
332 1 5.84994 6.51827 3.2344 1.30769 -0.99121 -0.20966 
333 1 9.28837 8.30423 4.96456 0.218475 0.362569 0.480788 
334 1 6.41981 2.07464 7.70897 -0.0727524 0.32432 0.0903959 
335 1 1.27198 2.70067 8.37024 0.420205 0.0925851 -1.34167 
336 1 6.73623 4.48767 0.674883 -0.0834543 -0.59836 -0.676859 
337 1 5.7724 5.59762 3.92619 -0.0803483 0.842283 0.871943 
338 1 7.54747 3.64682 3.97166 -0.612004 -1.72644 0.783369 
339 1 9.06524 7.50306 4.50187 0.83734 -0.240611 -1.19663 
340 1 5.0884 9.28068 8.11659 -0.274083 -0.666937 0.977109 
341 1 2.06472 7.89478 4.90247 -0.269901 -0.654278 -0.315138 
342 1 5.6259 6.99214 6.52125 -0.135087 -0.0904223 0.159323 
343 1 8.72192 5.13464 7.83137 -0.923716 0.948249 0.160484 
344 1 1.0846 8.45783 0.782444 -0.175856 -0.84345 -0.65051 
345 1 5.69476 2.5005 2.61235 0.164148 -0.620072 0.791143 
346 1 4.18273 8.82001 3.83755 -0.442704 -0.149178 -0.19248 
347 1 2.13795 6.93713 2.47957 -0.734742 -0.473067 -0.805556 
348 1 9.20311 8.7083 3.83771 0.469857 -1.56021 -0.762819 
349 1 6.91737 0.82914 5.44163 -1.23349 1.44993 0.627236 
350 1 1.48409 3.31825 9.08168 -0.712442 0.924348 0.0358513 
351 1 7.62234 4.06754 0.414323 1.41577 1.66664 -0.686422 
352 1 2.72412 4.487 5.36043 -1.77822 0.26757 -1.27552 
353 1 2.87402 8.48481 2.77666 1.22371 -1.3793 -0.543717 
354 1 4.99417 7.98224 8.34878 -0.270248 -0.477574 -0.976085 
355 1 8.87437 4.90199 2.06196 -0.570787 0.00538868 -1.1216 
356 1 8.28037 5.92205 9.26209 0.728453 -0.329984 -0.733611 
357 1 9.27716 4.19951 5.81755 -0.920038 0.0814002 0.629512 
358 1 4.33893 1.55197 2.77929 -0.191506 -0.319284 1.48321 
359 1 5.54617 7.82142 4.34803 0.263523 -0.290783 -0.898319 
360 1 2.06208 3.00279 3.49846 -0.714414 0.595724 0.166361 
361 1 5.52781 3.23747 4.2583 0.0451316 -0.0392074 -0.476451 
362 1 2.37385 4.6035 1.73001 0.278182 0.590309 0.459232 
363 1 6.69743 4.21486 6.46011 0.819826 0.672358 1.01821 
364 1 7.86873 2.98854 5.8169 0.222986 -0.0153707 0.6047 
365 1 8.78233 5.21842 0.286155 -0.50489 -1.77322 0.0945392 
366 1 5.02085 6.61657 3.70098 -0.561611 -0.262581 0.617405 
367 1 6.52633 4.62249 1.6393 0.346636 -0.482363 0.867387 
368 1 0.862347 1.3652 1.99338 0.665986 -1.2807 -0.189229 
369 1 5.10702 0.394248 3.20023 1.24289 1.73668 0.642446 
370 1 8.96465 9.1943 0.733165 0.836802 2.45638 -0.496544 
371 1 8.47266 1.03243 8.1516 0.520477 0.817816 1.17609 
372 1 4.61861 6.41962 5.23406 0.859046 -0.519428 -0.758 
373 1 8.06791 0.418753 3.36788 -0.782886 0.827027 -0.69045 
374 1 2.54377 4.85524 8.61929 0.530805 1.42207 0.217155 
375 1 7.30363 8.53319 0.819191 -0.987972 -0.639401 0.123282 
376 1 6.17894 0.451016 1.21167 0.965635 0.151846 -0.120412 
377 1 2.64275 3.73088 2.06423 -0.869617 -0.587109 1.42736 
378 1 5.21908 7.82397 9.31615 -1.74322 0.65001 1.12056 
379 1 0.301146 0.906992 2.64901 0.431011 -0.187954 0.204937 
380 1 8.84148 3.1112 2.64308 -0.471551 -0.382673 0.977666 
381 1 1.8418 2.17769 3.09158 0.366994 -1.45994 -0.715295 
382 1 1.72041 9.13636 3.79905 0.219494 -0.282658 1.24241 
383 1 2.84058 2.79071 2.05139 0.48771 -0.088742 0.44189 
384 1 9.07568 4.84797 6.52272 0.30648 -0.0210986 -0.232013 
385 1 1.22053 6.65525 4.15667 1.31982 0.470134 -0.73129 
386 1 4.29907 8.74322 1.73743 0.97684 -0.527756 1.33344 
387 1 1.81625 6.02871 4.58822 1.70128 -0.675873 -0.584767 
388 1 5.67149 2.08674 1.43952 -0.52711 -0.876157 -1.06602 
389 1 5.3034 4.83816 3.58131 -0.629733 -0.0765129 -0.741162 
390 1 0.625861 6.8555 9.08989 -0.441606 -0.248897 0.310969 
391 1 6.20145 1.38597 0.834327 -0.182411 1.07739 -0.245851 
392 1 5.35062 8.43732 6.61759 0.38653 1.24592 0.392374 
393 1 7.97537 1.39423 4.32718 0.282155 -0.539325 -0.0923642 
394 1 5.66906 0.305153 2.05946 0.234254 -0.373612 -0.268854 
395 1 6.25965 7.30423 3.9647 0.865907 0.605684 -0.741253 
396 1 6.30637 4.93511 7.84253 -0.565567 0.494656 0.917551 
397 1 8.79993 1.76945 7.61157 0.742994 1.63081 -0.680351 
398 1 7.42659 3.27716 9.13265 0.187008 0.876396 -0.64159 
399 1 1.85092 3.93893 4.24818 0.58511 -1.32486 0.00648857 
400 1 3.86596 3.93393 4.76709 -0.165831 1.03613 -0.135876 
401 1 6.7082 6.16304 2.62488 0.367352 0.623858 -1.53743 
402 1 0.560623 6.06864 8.57349 -0.567538 -0.574068 -0.0848516 
403 1 6.63776 8.48642 6.18107 0.167107 -1.57587 -0.573594 
404 1 7.92709 8.34291 2.44525 1.05124 2.54533 0.312169 
405 1 0.166827 6.82541 0.544391 0.777123 1.01702 -0.697295 
406 1 0.473712 8.07257 4.21547 1.02802 -1.05736 -0.661823 
407 1 1.16146 6.08345 1.68723 -1.20262 0.74295 -0.196373 
408 1 4.89017 6.46762 2.73644 -1.18025 -0.927518 -0.0198221 
409 1 3.79762 2.37455 4.05132 -0.157225 0.820171 -0.796172 
410 1 0.11979 0.361831 0.219194 0.215606 1.12289 -0.148349 
411 1 2.71265 6.33485 4.7717 -0.531192 0.160585 -1.36109 
412 1 0.345482 4.4271 4.99818 0.277478 -0.0865891 0.354609 
413 1 6.40856 5.51198 1.97087 0.189535 -0.244444 -0.783288 
414 1 7.81818 4.14077 7.85692 -0.0270317 1.3384 1.80758 
415 1 1.46424 3.16543 7.47458 0.513299 -1.01039 -0.945809 
416 1 8.01551 5.18633 3.50839 -0.652002 0.521613 1.1492 
417 1 5.81535 8.83625 5.86964 0.951889 0.0675329 -0.0110229 
418 1 1.94108 4.0782 8.73684 -0.0367632 -0.0865628 -1.07839 
419 1 8.12201 3.78915 5.24998 1.97494 -1.15638 -0.562557 
420 1 2.28759 5.66285 7.93251 0.122053 -0.173074 0.855924 
421 1 7.77938 1.57452 1.23175 -2.11755 -0.0899357 1.24203 
422 1 4.22273 6.26057 1.92382 0.208971 0.857506 0.217502 
423 1 0.417557 7.14376 4.01948 0.537138 -0.856863 0.130994 
424 1 8.24006 7.20803 1.34588 -0.255078 0.603867 1.05719 
425 1 0.0647278 7.07856 3.12827 -1.11198 -0.743918 0.931935 
426 1 2.86235 5.29466 6.75256 1.12671 -0.415088 0.0727626 
427 1 7.17638 7.1164 5.00604 0.240328 -0.915651 0.595394 
428 1 7.86318 0.6227 5.17337 0.0875414 0.0107496 0.493987 
429 1 6.73348 2.81315 4.69103 -0.402142 0.0482099 0.53913 
430 1 7.42777 1.08899 3.6044 -0.810952 -0.309423 0.101995 
431 1 5.49896 2.73785 5.71853 0.417663 -0.016876 0.685702 
432 1 5.50701 7.17215 2.54696 -1.22946 -0.562365 -0.169695 
433 1 0.530145 6.12495 6.70484 -0.087536 -0.807904 0.648204 
434 1 0.643426 7.64223 0.64396 -0.108668 1.12085 0.00184501 
435 1 5.06209 0.940923 2.43128 0.842362 -0.99651 1.05926 
436 1 1.88915 5.37729 3.92285 -1.60907 -0.585069 0.00474827 
437 1 4.22142 6.07311 3.56269 0.116536 0.0454337 0.62362 
438 1 8.23913 1.38233 0.347931 0.100233 -0.912644 0.558026 
439 1 6.24695 5.66528 7.11091 0.549133 0.672925 0.90002 
440 1 3.98405 6.18249 0.753646 -1.63012 -0.107838 -1.06968 
441 1 8.37037 3.81252 0.952406 0.459601 0.382957 0.409567 
442 1 4.78035 5.94677 1.23825 -0.372297 -0.511608 -0.501468 
443 1 8.92105 6.09204 0.597093 -0.264132 -0.672512 0.37393 
444 1 6.0926 0.0925722 5.19239 -0.646287 -0.73281 -1.19068 
445 1 6.46459 6.93516 0.83673 -0.765731 -1.37876 0.308852 
446 1 1.95834 3.60741 6.71646 0.0734939 0.219109 1.04605 
447 1 7.88308 1.10211 6.01061 1.31007 -0.495094 -0.973484 
448 1 6.58065 0.436419 7.11766 -0.389258 0.228318 0.327548 
449 1 7.04553 4.95627 4.85801 0.398571 0.237697 -0.582098 
450 1 6.52319 7.96589 4.55846 0.328307 1.08087 -0.228136 
451 1 4.53127 3.97344 5.42842 0.369189 -0.245852 -0.822102 
452 1 7.54336 5.94536 2.99974 0.514354 0.33657 -0.343196 
453 1 7.26025 4.42363 3.19266 0.672836 0.00462258 -1.46981 
454 1 0.352562 4.70311 1.53862 0.155864 0.18016 -0.30914 
455 1 1.99596 5.06208 7.08517 -0.289917 -0.839988 -0.120874 
456 1 4.61661 6.15307 9.39499 -0.396189 0.362754 -1.37713 
457 1 6.55744 1.85118 6.75453 0.201121 -0.584692 -1.03187 
458 1 2.21503 7.95082 8.69392 -0.263684 0.0321469 -0.870237 
459 1 3.82829 7.16443 8.67042 0.906218 -0.574417 0.341221 
460 1 7.43262 2.58334 2.95547 0.386827 0.133209 -0.526953 
461 1 8.4266 1.998 6.74489 -0.35089 0.221617 -0.836411 
462 1 3.23365 5.62739 0.735183 1.12813 -1.01752 -0.339413 
463 1 9.39569 6.86675 8.35536 1.22039 0.215798 1.20843 
464 1 7.6622 7.67786 5.6736 -0.0978045 0.522955 -0.151428 
465 1 4.74445 0.058524 2.20721 2.00298 0.0688505 0.0544061 
466 1 3.50094 5.07937 2.96868 -0.640481 0.27207 0.410285 
467 1 2.45716 6.66488 6.35736 1.02019 0.204192 0.56447 
468 1 8.21804 0.479905 4.32554 -0.543505 0.207612 0.151487 
469 1 4.34882 6.31256 8.38804 -0.0866381 -0.195571 0.429328 
470 1 3.69584 7.49616 2.80349 -0.349567 -0.340689 0.262609 
471 1 5.00314 8.20018 5.74179 2.09913 -0.0928584 -1.03886 
472 1 4.33541 6.92859 1.21575 1.57334 -0.418346 -0.339361 
473 1 3.60282 9.37285 4.35265 -0.896347 -1.05741 0.141742 
474 1 3.7639 2.92073 2.36502 1.23981 0.657768 -1.79074 
475 1 1.02652 1.65881 0.219726 -0.0844011 0.414232 0.0528711 
476 1 6.53177 1.32791 4.0741 -0.532403 1.24366 0.603719 
477 1 2.32134 6.01912 7.04689 -1.0337 0.470283 -0.90975 
478 1 6.54102 7.93744 0.764443 0.962471 -1.06097 -0.146707 
479 1 7.48934 1.74859 6.61925 0.204881 1.36669 0.84716 
480 1 6.63595 0.590413 3.47065 -0.442505 -0.93889 0.848477 
481 1 8.14221 4.17692 3.43462 -0.331121 1.17402 -0.705054 
482 1 7.43772 1.94656 9.06619 -0.175158 -0.16947 -0.111455 
483 1 5.78339 8.12526 5.19882 1.71213 0.702946 -0.87098 
484 1 8.09449 7.42244 2.29252 0.12322 0.390808 0.169787 
485 1 6.16486 8.09694 6.98171 -0.525906 0.149107 0.472286 
486 1 5.19062 6.95748 4.67213 0.41076 -0.38727 0.435935 
487 1 3.73581 4.57609 9.17068 -0.991983 -0.198736 0.761926 
488 1 8.47216 7.3702 0.0131331 0.0931872 1.21619 -0.734605 
489 1 2.26318 1.98684 2.27188 -0.870016 -0.447595 -0.262634 
490 1 8.29703 3.47188 9.3736 1.12358 -0.43637 -1.61971 
491 1 6.14744 2.36413 0.657525 0.697459 0.0870934 -0.748592 
492 1 9.1032 2.1993 5.00193 -0.803699 0.0474591 -0.571069 
493 1 3.09307 0.416001 1.36392 -0.481703 -0.122473 0.283968 
494 1 0.309328 0.580377 1.72677 0.382207 -1.06171 -0.749904 
495 1 0.189798 6.73287 7.40231 -0.325333 -1.4348 0.240087 
496 1 8.14156 1.85052 2.08061 1.06463 1.28906 0.150026 
497 1 1.07371 5.02049 7.4301 -0.0709447 0.347762 0.784557 
498 1 0.0404927 1.32071 5.22816 -0.211985 0.313945 1.30271 
499 1 7.93686 6.70866 4.43161 -0.593837 0.178609 -0.374494 
500 1 4.20305 0.590014 2.82224 -0.706683 0.927232 -0.448398 
501 1 8.79697 6.70174 4.88621 1.25235 0.24702 0.0770474 
502 1 0.368754 5.98212 0.125572 -0.822699 0.188207 0.496132 
503 1 3.84293 5.43048 1.44154 0.441268 -1.62095 0.000438581 
504 1 3.31717 7.03952 5.92284 0.249843 -0.467123 0.371527 
505 1 3.69796 6.22823 9.09893 -0.00619387 0.0464755 -0.682277 
506 1 8.78295 2.1671 0.258979 -0.0348908 0.157942 -1.83228 