ITEM: TIMESTEP
1437
ITEM: NUMBER OF ATOMS
1000
ITEM: BOX BOUNDS pp pp pp
0.0000000000000000e+00 9.4000000000000004e+00
0.0000000000000000e+00 9.4000000000000004e+00
0.0000000000000000e+00 9.4000000000000004e+00
ITEM: ATOMS id type x y z vx vy vz 
1 1 6.61947 2.41645 8.53536 1.6064 -0.704518 -1.52519 
2 1 3.11434 5.20996 1.40913 0.0863063 0.0996589 0.969928 
3 1 6.97528 8.04882 8.71069 -0.593486 1.55956 0.279688 
4 1 3.36296 8.66823 1.47879 -0.912934 -0.36505 0.285232 
5 1 2.80682 6.1578 7.37033 -0.269584 0.422437 1.23229 
6 1 7.27056 3.52761 1.40334 -0.682656 0.388578 0.89132 
7 1 5.60213 3.08703 2.27509 0.219095 -0.704083 -0.515897 
8 1 2.02533 8.07372 2.06029 0.458901 -0.930348 1.06308 
9 1 3.58375 5.25921 8.20994 -0.335263 -0.0510907 0.408399 
10 1 2.48802 4.69929 2.00456 0.566392 -0.0800358 -0.166303 
11 1 0.265994 6.58443 1.17133 0.307859 -0.118373 0.0041952 
12 1 1.22612 8.66737 5.69856 -0.387727 0.98901 -0.192873 
13 1 4.74999 7.24013 8.0315 -1.09849 -0.301464 -0.115284 
14 1 7.52863 7.59456 3.48146 0.128055 -0.00640275 1.53268 
15 1 4.09981 0.605157 4.41862 0.265488 1.34888 0.414803 
16 1 0.817189 1.512 6.77473 0.449871 -0.789186 0.578406 
17 1 4.30693 1.41586 3.48166 0.650281 -2.83305 -0.410112 
18 1 5.06829 2.24084 0.21446 -0.432232 0.560955 0.906288 
19 1 6.35187 3.36265 8.40575 0.343823 0.68811 -0.735379 
20 1 2.67173 5.51342 8.08754 0.475711 -0.60733 0.57534 
21 1 1.29879 2.42339 5.79343 0.415827 1.20066 -0.00525924 
22 1 8.88363 5.90133 1.6313 -1.02099 -1.36172 0.378151 
23 1 1.56181 8.50785 8.19085 -0.405889 0.399676 0.0981404 
24 1 2.87715 0.454951 7.43422 0.200956 -1.64206 0.8263 
25 1 0.28239 2.90927 8.34643 -0.756515 -0.365843 -0.285731 
26 1 8.73831 4.63142 2.52953 0.26118 0.528145 0.983978 
27 1 1.22922 4.8346 4.85555 0.651389 -0.971244 0.867279 
28 1 0.999636 4.08829 0.966506 0.15182 -0.369857 0.552907 
29 1 0.315374 5.91396 6.85984 1.24653 -0.29815 0.564559 
30 1 6.47593 3.04502 9.30228 -0.712008 1.26257 -0.0663325 
31 1 5.41458 0.731312 1.04449 -0.68863 -0.205547 0.320839 
32 1 5.7338 8.98785 2.35525 1.08233 -0.0144237 0.564866 
33 1 2.67867 1.75161 6.54813 -0.143915 0.684935 0.373313 
34 1 2.56723 7.30816 5.29065 -1.21558 -0.0364474 0.963163 
35 1 1.92534 8.61934 2.8417 0.643865 0.303377 -0.119657 
36 1 4.14101 7.29611 3.34608 0.569824 0.222516 0.202522 
37 1 7.38457 3.04656 8.42902 1.56883 0.0570791 -0.0251731 
38 1 4.30015 8.96997 1.53543 0.135348 1.03205 -0.437045 
39 1 7.88193 1.03558 5.73107 0.971454 -1.35593 0.114601 
40 1 7.82933 7.5932 8.54185 -1.3044 -0.101272 -0.192477 
41 1 3.85588 9.00845 6.39816 0.718965 -0.193639 -0.796344 
42 1 2.07446 7.00552 8.22956 0.0469698 0.064437 -0.312346 
43 1 8.05066 3.75566 8.04525 -1.18092 0.261245 -1.04469 
44 1 7.868 5.91038 1.72021 -0.899293 -0.769745 -0.135631 
45 1 1.90641 3.56951 5.63548 1.26827 -0.859156 -0.372354 
46 1 0.306861 7.11568 5.5995 -0.221451 1.66808 1.58412 
47 1 4.80203 3.1212 1.7016 -1.10297 -0.0419083 -0.669066 
48 1 2.02055 6.53588 4.97889 -0.533553 -0.936544 -0.801192 
49 1 2.56903 9.2357 6.705 -0.58804 0.111862 -1.02018 
50 1 8.42956 2.89035 0.302323 0.0358835 0.35266 -0.37068 
51 1 5.67284 7.36122 1.80359 0.312763 -1.13724 0.579514 
52 1 0.550565 4.85569 0.358712 -1.22873 0.375538 0.659944 
53 1 5.65954 9.24591 0.721047 0.142575 0.815238 0.804212 
54 1 6.19936 1.56478 5.53068 0.867642 1.01416 0.344151 
55 1 4.9964 4.96428 0.0968361 1.29148 -1.36587 -0.404107 
56 1 6.01709 2.42282 5.97562 -0.0892394 0.152125 1.08139 
57 1 7.73645 4.42001 8.71487 -1.32977 -0.591794 0.66767 
58 1 5.38271 4.05753 3.2516 0.323498 0.170097 0.955247 
59 1 4.07684 2.05508 8.43968 -0.707219 -0.5778 -0.349972 
60 1 7.1732 6.53856 1.94177 -1.46249 0.170138 -0.0731516 
61 1 5.51689 1.72854 0.920661 0.702397 -0.650809 -0.867395 
62 1 6.03975 5.00486 9.13714 -1.02048 0.289858 -0.0507805 
63 1 0.998316 7.21567 1.10998 -0.913417 -1.01572 -0.190476 
64 1 6.96504 7.27686 1.30948 -0.642545 -0.376931 0.602316 
65 1 8.0392 3.84722 5.73106 -0.298758 -0.858407 -0.266633 
66 1 5.88678 5.52643 1.99298 -0.243221 0.557435 0.593601 
67 1 5.26314 8.98096 7.13504 1.31379 -0.572363 -0.903944 
68 1 0.89179 8.04359 1.6037 -0.953008 0.0839596 -0.98946 
69 1 0.626816 7.56716 9.27155 0.963363 -0.328236 -1.70908 
70 1 3.71312 9.16853 0.713572 -0.72929 0.322722 -0.402699 
71 1 1.18598 2.42381 4.45795 -1.70083 -0.500643 1.49326 
72 1 6.53786 2.4152 4.226 0.46139 0.0404463 1.17481 
73 1 4.7703 5.38922 6.33256 1.15588 1.44813 -0.328908 
74 1 7.03317 5.09021 2.90592 -0.466188 0.256277 -0.0671345 
75 1 2.06321 6.16183 6.75276 0.639029 -0.272331 -1.0613 
76 1 2.4251 0.153445 2.74178 -0.00667238 -0.905651 1.22976 
77 1 2.18513 1.26489 5.85153 0.0756627 1.8297 -0.0262854 
78 1 5.36938 8.63791 0.0193756 -0.142039 0.251946 0.42873 
79 1 1.86775 2.76189 5.10762 0.602353 0.518701 -0.310524 
80 1 2.78606 2.51338 5.00641 1.24462 -0.855163 0.291451 
81 1 4.4835 5.72735 9.182 0.35549 -0.789622 0.407047 
82 1 0.862575 7.30077 3.38858 0.410979 -0.654047 0.0194331 
83 1 7.62215 3.49276 3.89596 0.405665 0.673448 -0.103112 
84 1 1.85353 1.80409 2.02748 -0.868097 -0.224753 -0.935428 
85 1 4.9602 1.73293 8.76219 0.0921646 -1.67666 0.44455 
86 1 3.99193 0.427811 3.42618 -0.724714 -0.267737 0.397007 
87 1 7.65012 0.486354 6.53164 0.718156 -2.04546 0.700702 
88 1 1.89477 4.14695 2.57865 -1.98898 -0.420062 -0.772426 
89 1 1.27768 8.29923 6.95658 -0.872853 0.0397316 -0.966129 
90 1 0.590147 1.23359 0.660474 1.4655 0.536885 -0.557149 
91 1 6.64159 2.8406 7.66273 -0.361093 0.379208 -0.449821 
92 1 8.82746 1.37969 5.85863 -0.949372 1.00774 -1.46738 
93 1 5.49757 6.81201 7.4981 0.563491 0.69305 -0.191447 
94 1 6.19103 7.52113 8.82622 0.27767 0.038773 0.691024 
95 1 8.71741 1.21968 7.47663 -0.661467 -0.00897195 -0.436659 
96 1 4.53221 6.44602 7.56991 -0.47591 -0.251459 -1.30482 
97 1 1.91121 4.51631 8.93687 0.199426 1.70363 0.453923 
98 1 6.81852 6.11197 8.15607 -1.41984 -0.298653 0.0706592 
99 1 8.0263 6.17805 7.00171 -0.0903565 -0.745381 0.202302 
100 1 5.92449 0.14422 8.27662 -0.033658 -0.780493 0.937451 
101 1 0.308606 7.41099 8.0495 0.641109 -0.661222 -1.21488 
102 1 6.36493 4.42587 0.521009 0.210762 -0.151875 1.74315 
103 1 8.52106 5.00554 0.649114 0.880736 -0.511095 -0.69596 
104 1 5.85722 0.535412 1.95676 -0.380768 -0.848915 0.457081 
105 1 8.93705 2.79783 3.02093 -0.729417 -0.642119 -1.02525 
106 1 1.26963 2.23386 2.68075 1.82537 1.19479 0.0642985 
107 1 2.15237 2.37023 7.14303 -0.934675 -1.03753 -0.360046 
108 1 2.50082 7.77003 2.95704 -0.555337 0.539141 -0.580135 
109 1 0.669389 1.17671 8.2544 -0.0405315 1.03713 0.344052 
110 1 6.12743 5.90302 0.194281 0.612603 0.809119 1.9069 
111 1 8.89608 4.25566 5.46021 -1.47552 0.88634 -0.666537 
112 1 2.11383 6.74461 5.96323 -0.0219934 1.48607 -0.971395 
113 1 2.47109 5.67051 1.96996 -1.28506 -0.637114 0.231163 
114 1 8.32808 4.75912 6.07869 -0.428697 0.316408 -1.33699 
115 1 6.10725 3.46161 3.0284 0.178988 0.128576 0.587139 
116 1 9.26067 7.7922 6.18382 -0.0654444 -0.132168 0.578576 
117 1 0.602983 2.27438 3.41646 1.77583 -0.372026 -0.828023 
118 1 3.0506 8.70918 4.0097 -0.535099 0.351322 0.773366 
119 1 0.551854 6.76332 8.72845 -0.81136 1.5483 0.678362 
120 1 0.328958 8.10885 3.04546 -1.44706 1.66571 -0.491796 
121 1 6.87965 3.62627 0.531576 1.14799 -0.468462 0.310503 
122 1 0.680754 6.05094 4.34706 -1.7846 0.583331 0.807485 
123 1 9.32662 5.32764 1.01846 -0.0132276 -0.0574765 0.737534 
124 1 6.83357 5.63034 2.10141 1.79042 -0.530511 0.461793 
125 1 8.3527 3.50524 7.15997 -0.772964 -0.687941 -1.05218 
126 1 3.3563 7.85447 4.87878 0.567308 -0.904291 -1.32432 
127 1 3.6306 8.48491 5.61491 -0.685009 0.731852 -0.224624 
128 1 1.50007 5.49976 1.66319 0.468061 1.40489 -0.113953 
129 1 2.23812 6.87714 3.28337 0.629405 0.484276 -0.496257 
130 1 5.77822 0.918796 2.85661 0.398896 0.375212 0.0354209 
131 1 4.74243 8.13341 7.10167 0.639175 -0.13747 0.430604 
132 1 6.08224 7.36027 0.918879 1.68083 -0.332277 -0.794415 
133 1 0.727454 0.57524 3.40613 -0.578529 0.416663 0.821663 
134 1 4.05389 0.734296 7.61452 -0.677907 -0.0303731 0.553103 
135 1 8.45439 5.59156 2.44545 -0.924891 -0.716287 -0.487752 
136 1 2.13594 6.94741 7.27721 -0.227022 0.589078 -0.00596383 
137 1 1.40029 3.55871 1.64349 1.09833 0.864689 -0.207791 
138 1 6.77088 5.42413 7.37695 0.180052 0.726089 0.224601 
139 1 6.6985 6.52571 9.08448 -0.757278 0.383504 0.99327 
140 1 6.29482 8.68055 3.11842 -0.298743 -1.21497 -0.710444 
141 1 2.9253 4.69125 3.76237 0.234871 0.392892 -0.296108 
142 1 7.40245 6.10408 0.242041 -1.2739 0.239027 0.576284 
143 1 5.00847 1.50014 2.67028 0.553219 -0.138669 -0.0786016 
144 1 4.14016 5.3627 2.53943 0.178484 -0.493448 -0.585744 
145 1 0.053069 1.22167 9.23135 0.2014 0.140031 1.01807 
146 1 1.02038 2.08563 0.971464 1.47797 1.73237 -0.190776 
147 1 8.21279 0.168196 3.45981 -0.535223 0.550679 -1.24287 
148 1 2.58308 0.789497 6.59257 0.52175 1.39301 -0.498744 
149 1 8.52948 5.00335 9.02728 -0.646298 -0.213626 -0.380574 
150 1 3.79214 6.78807 1.73796 -0.897796 0.472125 0.126124 
151 1 1.95197 0.295018 7.27919 0.886214 -1.98755 -0.914797 
152 1 0.827695 6.63736 1.94199 0.194067 -0.766809 -0.374517 
153 1 6.46842 7.92938 7.94471 0.751079 0.0131416 0.264505 
154 1 9.1819 6.25063 6.1404 -0.772352 0.701858 -2.18299 
155 1 5.58814 7.73063 0.128301 -0.0320709 0.621869 -0.642533 
156 1 5.83524 6.89017 3.70335 0.0504067 1.40471 -0.144413 
157 1 7.28763 2.62813 3.70047 -0.0847418 0.266312 -0.759243 
158 1 2.38441 1.24402 4.77087 -1.56978 0.928527 0.149643 
159 1 8.38441 6.79888 8.82047 -1.0413 -0.279423 0.85447 
160 1 6.25545 3.26568 5.60401 0.946345 1.2679 1.04511 
161 1 6.20122 1.60118 3.85169 -1.45452 -0.176897 -1.12692 
162 1 1.74001 3.87395 6.54911 -0.612989 0.0927632 0.227358 
163 1 3.0488 0.776761 5.75511 -1.09728 0.537583 1.60479 
164 1 1.21968 6.29625 1.14929 0.48422 0.19551 -0.559979 
165 1 8.94037 6.38321 7.20868 -1.38473 -0.0106845 -0.549955 
166 1 6.14219 1.23129 7.13903 -0.793393 -0.011384 -0.953432 
167 1 2.93774 4.84304 6.59805 0.169292 0.141757 0.529424 
168 1 2.51877 5.78389 4.60895 1.03701 -0.828604 -0.186886 
169 1 4.38579 2.53931 4.18133 -0.0595267 -1.07467 0.32383 
170 1 8.77364 8.02282 3.28619 -0.283583 1.28866 -0.705267 
171 1 8.32566 1.14495 6.62291 -0.251114 0.109377 -0.289959 
172 1 1.10666 5.09881 9.02964 0.31878 -0.928206 -1.69817 
173 1 9.40069 2.91682 0.574699 -0.749958 -1.15949 1.05947 
174 1 7.07019 1.32861 7.07061 0.430888 1.94073 -0.228024 
175 1 5.08915 3.13439 3.0972 -0.622883 0.81723 -0.668885 
176 1 5.76722 3.22998 6.49476 0.028793 0.829979 0.723285 
177 1 9.19756 7.32748 7.26095 2.01965 -0.00461445 0.510313 
178 1 4.24027 0.926744 2.63624 -0.746931 -0.268653 1.37584 
179 1 4.48898 0.61238 1.73124 1.73399 0.44729 -0.350458 
180 1 9.13216 2.60367 9.10029 1.0029 -0.33275 0.233551 
181 1 8.02844 9.40896 9.06727 -0.207748 -0.000596372 1.12761 
182 1 7.80254 5.14052 6.96537 -1.0164 -0.814837 -0.662631 
183 1 3.75633 7.50352 0.229487 -0.622107 -0.14264 -1.86698 
184 1 3.33035 7.8942 7.76787 0.348675 0.989171 -0.0556077 
185 1 4.95525 8.61077 0.92345 -0.366148 -0.118965 -0.371612 
186 1 0.440986 5.72401 3.3467 -0.292608 -0.205064 -0.25346 
187 1 6.89242 8.1301 0.823108 -0.125924 -0.263287 -1.05001 
188 1 2.86243 4.88291 4.72264 -1.18212 1.14811 0.0127464 
189 1 4.43959 6.19321 2.10619 -0.0023836 0.0457099 1.009 
190 1 6.59301 4.50531 7.5077 -0.462474 0.798081 -0.266904 
191 1 7.6112 0.933667 8.82525 1.3836 -0.258272 0.605322 
192 1 7.98664 8.53775 3.58009 0.245655 1.03194 -0.188523 
193 1 9.17312 6.40015 9.16863 1.16303 -0.684044 -0.234142 
194 1 1.45319 7.33575 1.92877 -0.581575 0.223674 0.395425 
195 1 8.09382 4.28444 1.16179 -0.560952 -1.47068 -0.23307 
196 1 5.74021 2.66891 8.016 -0.511743 -0.153964 0.994577 
197 1 8.97783 3.95924 7.7677 0.405013 0.221693 -0.444035 
198 1 7.47261 5.29884 3.76711 0.342412 -0.64256 0.128876 
199 1 3.55759 3.33341 6.22063 -0.703494 0.106286 -0.696524 
200 1 7.07329 3.7439 9.00606 -0.199827 0.414393 -1.2702 
201 1 0.644571 0.266125 7.94144 0.845557 -0.394782 -0.64419 
202 1 6.73025 7.42559 0.196008 1.3047 0.00703244 -0.327387 
203 1 4.86205 4.03742 9.26205 -0.315397 -0.698958 1.63965 
204 1 5.09198 5.61463 3.56324 -2.01274 0.98241 0.506777 
205 1 6.11413 3.11944 4.68724 -0.414026 -0.560747 -1.33405 
206 1 3.15727 7.99205 0.795914 -0.578116 -0.975632 0.236484 
207 1 6.54314 1.85696 7.73384 -0.507194 -0.322184 -0.172053 
208 1 7.48285 0.826122 3.76874 -1.46746 0.329916 0.92695 
209 1 1.69542 7.74434 7.62721 -0.817734 1.60995 -0.769556 
210 1 1.56333 8.73861 1.53089 -1.04931 -0.119408 -0.860536 
211 1 1.2607 1.42099 4.51322 -0.208016 0.057396 1.75599 
212 1 2.15825 4.99594 1.12662 0.312836 0.438744 0.910875 
213 1 5.09337 3.75521 5.16735 0.104693 -0.700314 -0.288045 
214 1 5.87891 0.316217 7.33817 -0.125402 0.780488 -1.23226 
215 1 0.406906 3.24542 6.79515 0.520972 -0.83696 1.43326 
216 1 5.44721 0.25482 6.46081 1.33462 -0.123475 1.19928 
217 1 2.52502 9.173 8.08719 -0.753467 -0.724777 0.627413 
218 1 5.27385 6.15244 8.14292 -0.969364 1.19906 -0.918704 
219 1 3.40007 2.41744 5.77983 -2.57697 -0.928864 0.68378 
220 1 6.67831 2.46689 5.23332 0.786397 0.977722 0.637691 
221 1 4.97965 7.01823 0.326826 -0.851558 -1.08799 -0.0338618 
222 1 8.78172 3.69166 0.807002 0.808762 0.241719 -0.328511 
223 1 1.09673 5.88458 2.52643 0.208153 0.241728 0.582798 
224 1 2.98769 8.60605 8.77246 -0.245639 0.59933 -0.430117 
225 1 1.28818 5.67883 6.53948 -0.101731 -1.28015 -0.191347 
226 1 1.56737 7.70266 2.8143 -0.0393817 0.293506 0.0865816 
227 1 8.99463 3.5255 9.28847 0.0198297 0.291358 -0.493754 
228 1 0.306338 2.37806 2.47236 -0.514373 0.804263 -1.51365 
229 1 4.07679 4.71723 7.56395 0.17933 1.5091 -0.253006 
230 1 1.91454 2.92644 6.37269 0.381942 -1.10287 0.294976 
231 1 7.34694 0.367348 2.93595 0.925156 -0.171283 0.01673 
232 1 0.79447 1.94437 5.16208 2.03702 -0.718344 0.0766416 
233 1 4.04327 2.57234 1.83132 0.405743 -0.142546 -0.24283 
234 1 4.17763 6.09237 5.48284 1.59372 0.546209 0.0548055 
235 1 3.45183 4.76711 0.571081 -1.22024 -0.104084 0.478774 
236 1 6.18121 9.0337 6.7576 0.284136 0.15228 0.862797 
237 1 4.80219 4.46817 5.96969 0.637432 1.02608 -2.29731 
238 1 9.25687 5.0412 7.20719 1.25404 -0.571757 -0.0670623 
239 1 2.8535 8.79615 0.329411 -0.226633 -0.225909 -0.892107 
240 1 4.75569 7.05287 1.7665 1.02777 -1.05399 -0.645876 
241 1 8.08951 4.62674 5.04137 -0.427794 0.749121 0.878752 
242 1 2.81869 6.35173 2.6905 -0.457542 0.957769 0.645507 
243 1 1.06869 1.20509 2.65642 -1.14163 0.162893 0.443072 
244 1 9.29861 7.09891 0.411442 -0.71042 -0.677904 0.461593 
245 1 1.31777 2.60658 1.7546 -0.7355 -0.412903 0.122592 
246 1 4.26706 7.29934 0.989522 0.304509 -0.101856 1.00304 
247 1 9.11827 4.4482 0.126106 0.653029 0.128928 -0.112063 
248 1 0.799938 6.7382 0.306805 1.22927 0.0245675 -0.520232 
249 1 5.97382 3.44863 0.660817 1.5112 -1.42567 -0.378052 
250 1 7.08454 4.86799 4.55684 -0.644088 0.952613 -0.600153 
251 1 7.58186 4.16733 7.24484 -0.363286 0.745818 -0.359595 
252 1 1.78518 5.15108 2.50487 1.71489 0.60084 -0.0394627 
253 1 5.74394 8.73945 3.9189 1.20277 0.305113 0.342383 
254 1 0.975932 3.12658 5.20093 -0.800109 -1.30418 -0.557186 
255 1 0.925457 4.16333 9.1448 0.0111926 -1.01663 -0.743638 
256 1 8.79773 5.77029 8.49863 -0.388861 1.16005 0.15714 
257 1 0.18767 3.85562 8.58232 0.336197 0.366748 -1.17336 
258 1 3.98427 1.72541 7.52984 -1.18722 0.423031 -0.747386 
259 1 0.32897 1.97588 8.6553 1.85201 -0.361037 -0.73693 
260 1 0.407583 7.87616 0.759869 1.61555 -0.419334 1.12506 
261 1 0.924704 3.09012 0.881773 -0.294978 1.05097 -0.0928731 
262 1 8.53735 0.385946 6.08025 -0.0574073 0.876654 -0.268682 
263 1 3.67054 6.47579 6.94758 2.1169 -0.868899 0.101645 
264 1 3.06664 4.73902 7.61713 -0.463212 0.158171 -0.218684 
265 1 7.60662 5.16647 1.14279 0.781772 0.197461 -0.904153 
266 1 8.74027 3.87555 6.36897 0.146525 0.468703 -1.02409 
267 1 4.69845 3.48788 3.98474 -0.446224 0.734155 -1.32646 
268 1 2.78198 5.47579 0.558931 -0.182804 -0.453277 0.43247 
269 1 4.92773 3.48024 6.1011 0.781438 -1.58027 -0.0704051 
270 1 5.65608 3.38074 3.8717 0.228716 0.0568091 -0.0398814 
271 1 5.4015 3.50578 8.53968 0.546315 1.07487 0.694743 
272 1 1.92621 1.56967 2.96464 -0.949959 -0.0473928 -1.89143 
273 1 4.4831 8.97188 0.15788 1.05881 -0.399263 0.287424 
274 1 2.46629 8.19559 8.06722 -0.593247 -0.95247 -0.49557 
275 1 2.43802 7.37188 0.614991 0.0809596 -1.61313 -0.596959 
276 1 7.29009 2.4654 5.98092 -0.759687 0.0257108 -0.0607067 
277 1 0.517071 3.58562 7.68907 0.457078 -0.223283 -0.813117 
278 1 5.4531 8.3214 1.70528 0.681962 0.714398 1.4181 
279 1 0.500897 9.38078 4.13751 -0.272004 -1.30119 -1.5217 
280 1 4.86362 6.65823 3.66965 0.219803 -0.238554 -0.0669305 
281 1 6.59753 0.771008 7.85957 0.264633 -0.374391 -0.791752 
282 1 6.35457 2.47445 2.2913 0.207609 -0.102807 0.641906 
283 1 3.70842 2.42125 4.8445 -1.07919 0.101145 1.28918 
284 1 3.4832 7.13257 4.22598 -1.28474 0.389118 -0.583423 
285 1 5.62718 4.86636 3.64 0.548275 -0.210659 -0.900103 
286 1 0.139661 1.38879 3.41905 0.852082 1.17657 -0.950762 
287 1 2.88965 3.56645 3.58528 -0.989722 1.135 1.21822 
288 1 9.04653 9.00262 9.03066 0.812539 -0.632471 -1.86487 
289 1 1.38356 9.32292 4.96948 -1.3426 0.936819 -1.22228 
290 1 1.05103 6.54149 5.12596 -0.306754 1.12826 -0.00772248 
291 1 2.38575 8.97337 1.98191 -0.86072 -0.0842804 0.164404 
292 1 8.88777 4.06653 1.75467 -1.65303 -0.132063 -0.0906298 
293 1 2.12089 8.90681 5.44939 -0.247633 0.22158 0.194797 
294 1 1.78825 6.33172 1.99657 0.566017 -0.00881746 0.136317 
295 1 6.02583 0.976428 6.25828 0.239029 -0.734858 0.58124 
296 1 1.18525 6.14471 8.35781 0.955407 0.277116 0.78266 
297 1 5.01088 1.07138 6.11857 -1.25862 -0.734761 -1.314 
298 1 9.22004 5.44564 0.0595171 -0.594296 0.364987 0.634691 
299 1 2.45428 8.4408 1.2117 0.546068 0.297881 -1.83727 
300 1 6.61931 0.877861 3.33332 0.179528 0.329924 0.0408852 
301 1 8.21864 3.41287 1.58033 0.323554 1.24122 -0.235974 
302 1 0.505547 5.32377 6.15776 -0.435208 -0.869812 -0.315821 
303 1 6.05571 6.00989 7.63097 0.232518 1.49327 0.350862 
304 1 2.57472 0.318086 5.07017 -0.598235 0.832824 -0.544425 
305 1 3.9745 2.30371 2.77879 0.242766 0.903557 1.12262 
306 1 9.08671 8.77436 6.44113 -1.82182 -0.356778 1.22301 
307 1 0.219872 3.79987 5.98341 -0.0666303 0.765195 0.332411 
308 1 2.10881 9.26935 3.56962 1.17443 -0.903382 1.44356 
309 1 0.273516 8.18815 8.64833 -0.047832 0.485393 0.23509 
310 1 1.41299 6.79498 2.72252 0.392987 -0.741753 0.0340062 
311 1 5.57261 1.75976 6.54195 -1.38316 -1.06467 -0.438397 
312 1 4.7566 2.269 3.34676 0.1903 -0.0765601 0.317773 
313 1 4.74857 3.56993 0.787888 0.00837227 -1.01294 0.395866 
314 1 6.71342 8.33072 7.12635 -0.31044 -0.461732 -0.566002 
315 1 2.10749 8.42406 6.40131 0.560301 -0.879169 0.887002 
316 1 3.82669 8.38804 7.14947 0.71317 -0.922321 0.0316864 
317 1 2.96274 8.69562 7.38043 0.714349 -0.0504916 -0.380438 
318 1 8.15628 5.86141 0.828473 -0.78576 0.528463 -0.0198365 
319 1 7.07684 4.26531 3.55453 -0.590642 -0.88953 -0.65499 
320 1 1.97265 6.90079 1.27236 -0.475513 0.627854 0.11702 
321 1 0.41585 0.0310137 5.10238 -0.976651 1.25062 0.0302092 
322 1 7.93138 2.07237 0.219117 0.174853 1.52065 -0.424869 
323 1 1.23056 6.85617 4.24641 -0.416964 0.348286 -0.0598103 
324 1 1.78255 5.36359 8.4365 0.404265 -0.631938 1.04833 
325 1 6.28425 6.64342 1.58392 0.727986 -0.940413 -1.3121 
326 1 0.777804 0.385851 6.76566 -0.86551 0.732473 -0.360217 
327 1 8.71538 7.6619 0.902333 -0.589723 -0.154968 1.08533 
328 1 0.21661 4.81605 8.78553 -0.69713 -0.425509 1.10529 
329 1 7.36757 9.26065 3.7871 -0.752762 0.312594 0.275067 
330 1 7.97929 3.00418 3.13243 0.398977 -1.21437 -0.986631 
331 1 7.49802 1.16332 4.74974 -0.0373634 -0.345347 -0.950044 
332 1 5.92627 0.25316 4.61535 -0.963503 -0.33857 0.382582 
333 1 5.48292 4.68551 5.24827 -0.104218 0.376182 -0.789345 
334 1 5.65521 4.63578 1.57807 0.900097 0.557646 -1.21228 
335 1 4.73863 4.83944 3.05278 0.164256 -0.953649 -1.0196 
336 1 3.36297 7.54632 6.79444 -0.179021 0.648872 -0.920003 
337 1 1.59687 0.0719821 8.17813 -0.0552572 -0.534612 0.6276 
338 1 5.31403 1.84827 5.61791 -0.00427316 -0.765575 -1.54866 
339 1 2.06902 8.81829 8.94216 0.240441 0.360375 1.4514 
340 1 3.56223 1.10418 1.93207 -0.0639116 -1.05504 -0.740793 
341 1 8.6649 1.76129 9.01573 0.641781 -1.08711 0.421434 
342 1 7.89596 3.70105 4.7955 -0.647472 -0.027853 -0.19178 
343 1 7.60523 6.59613 1.05173 0.606674 -1.0106 0.388253 
344 1 8.2207 2.77576 7.83325 -1.33231 0.340802 1.17135 
345 1 3.09022 8.39658 6.45773 0.478689 -0.41586 -0.60312 
346 1 9.06594 4.95902 4.79969 0.159073 0.00541039 0.182872 
347 1 2.87683 6.44088 8.33182 1.06332 0.0471655 0.171392 
348 1 7.00258 1.78344 2.10732 -0.780336 -0.878948 0.09727 
349 1 7.58072 6.33119 8.65637 -1.53184 -0.883909 1.12192 
350 1 8.00443 4.77398 7.87081 -1.13319 -0.478152 0.180998 
351 1 8.23921 0.696922 4.2707 0.263677 0.815954 -0.337918 
352 1 2.88127 4.7973 8.76347 0.417425 -1.64775 1.69234 
353 1 4.81283 7.18838 6.93661 -0.640875 0.536512 0.516606 
354 1 2.31341 2.26419 5.82852 0.257416 0.387768 -0.802814 
355 1 9.39266 8.95918 8.14268 0.824467 0.0379159 1.58043 
356 1 7.47025 1.95099 8.77099 -1.07735 -0.0288003 -1.87159 
357 1 4.12642 0.00372049 2.41952 0.861871 0.069642 -0.174015 
358 1 7.15144 2.66086 1.76154 -0.0271089 -0.893053 0.768716 
359 1 8.90651 2.06713 0.504379 -0.622332 0.791618 -0.0912442 
360 1 4.06851 5.10688 5.6947 -1.05048 0.111333 0.856614 
361 1 3.35869 5.66575 5.14596 -0.0355333 0.25293 0.136943 
362 1 0.176817 3.69121 5.02128 0.143211 0.200779 1.38923 
363 1 0.838466 4.38763 6.37475 -1.3129 0.671635 -0.108253 
364 1 7.14174 1.7001 3.84418 -0.497825 0.997819 -0.932904 
365 1 3.39496 4.10861 6.99476 -0.574045 1.81064 0.0799601 
366 1 0.0792158 5.76397 7.80007 0.303826 1.26307 -0.522481 
367 1 4.30028 0.130122 8.40065 0.851244 -0.939675 -0.603676 
368 1 8.17705 5.8539 3.36458 -0.649469 1.27352 0.675791 
369 1 2.89288 7.82047 9.3 0.339239 0.456127 0.480761 
370 1 2.81592 8.66376 3.08815 -0.322503 -0.864811 1.60056 
371 1 5.91499 6.84155 0.125654 -0.628827 0.221436 0.0167445 
372 1 7.54581 5.94751 2.64953 -0.968908 0.354489 0.0675795 
373 1 4.26212 3.27584 0.0303033 -0.382576 -0.782697 -0.847868 
374 1 5.88071 8.31103 0.829682 0.83206 -0.271225 -1.08726 
375 1 6.77069 5.76276 4.33192 -0.282981 0.857986 0.0961485 
376 1 1.65048 0.80931 5.18053 1.08619 -1.41797 -0.62332 
377 1 6.36429 8.00092 1.60301 -0.27159 0.539746 -0.797915 
378 1 4.84235 3.21469 7.84205 0.275502 -0.00483841 0.761708 
379 1 7.10854 2.31043 6.98139 0.556315 -0.289736 -1.0499 
380 1 5.14166 9.09535 8.58162 1.73172 -0.0488254 0.0355729 
381 1 8.94591 6.32005 2.99876 -0.377075 -1.16215 -1.26448 
382 1 2.37069 3.33049 7.11833 0.64017 0.356748 1.14155 
383 1 1.90031 0.843951 2.29086 -0.445087 -2.10153 -0.188454 
384 1 9.12061 3.08426 2.06029 -0.383312 1.41271 0.400217 
385 1 4.16478 5.37362 4.74527 0.343724 0.195056 0.268951 
386 1 5.98276 8.03482 2.47089 -0.472424 0.938777 0.494918 
387 1 1.57179 5.08137 7.57362 -1.64214 -1.00906 -0.912561 
388 1 0.372538 8.4718 3.92653 0.722218 0.299888 -0.338778 
389 1 2.1333 8.35742 3.76521 0.45504 -0.857954 0.0545338 
390 1 4.45598 6.05868 3.05984 0.414401 -0.164395 0.0746928 
391 1 3.38838 1.05658 3.86755 -1.11883 -0.702483 -0.614071 
392 1 1.84038 3.7795 7.80996 -0.251212 0.0346624 0.912827 
393 1 4.43009 1.84662 6.05537 0.374387 0.93888 -1.87003 
394 1 6.05705 5.13241 8.09028 0.247818 0.596942 0.274561 
395 1 0.856434 1.76633 1.89213 2.41969 -0.616332 -0.563203 
396 1 9.17933 7.34144 8.86372 -1.13941 -0.505111 -0.296564 
397 1 0.731609 8.61233 4.79402 -0.20043 -0.304494 0.35691 
398 1 0.712456 8.32688 7.78846 -1.08647 -0.0405252 1.49563 
399 1 1.06376 9.37839 0.968588 -0.365 -1.18923 -0.280326 
400 1 9.22765 1.46299 6.72484 0.908418 -0.190446 -0.603645 
401 1 3.826 7.01465 5.17989 -0.0654125 -0.161392 0.104038 
402 1 3.51912 0.495487 6.53799 -0.719258 -0.472513 0.932036 
403 1 5.71015 3.99913 5.87836 -0.0701684 -0.601616 -1.7332 
404 1 3.8092 4.52083 1.4373 -0.973012 -0.819711 -0.457383 
405 1 3.79244 1.81958 1.26182 -0.307195 0.084771 0.336768 
406 1 3.26571 0.15806 4.38605 -0.222353 0.509804 0.0513189 
407 1 8.39564 1.14643 3.41089 1.99021 -0.656831 0.521339 
408 1 0.182758 1.84553 7.65616 0.259063 -0.886732 -1.11962 
409 1 9.15116 3.00874 7.50668 -0.963798 -0.0316957 0.979763 
410 1 3.04811 3.33135 1.33503 0.445795 -0.404609 1.14201 
411 1 5.03604 0.0381277 4.02667 0.386228 0.327212 -0.449981 
412 1 7.41049 2.2831 7.87826 0.612557 0.457504 0.556692 
413 1 1.34228 3.26328 7.15549 -0.928475 -0.0789882 0.242014 
414 1 7.22311 4.25965 5.37113 -1.53627 0.00266861 -0.72436 
415 1 9.16414 0.497114 3.5943 -0.348917 0.0603024 -0.409503 
416 1 3.65712 9.33472 7.29791 -0.786816 -0.125256 -0.478418 
417 1 4.84279 2.4351 2.3796 1.81848 -0.232038 -0.0182733 
418 1 4.38243 7.35985 8.9428 0.824694 -0.274596 0.887912 
419 1 1.42312 5.50701 0.69905 -0.162548 0.427932 0.697633 
420 1 2.01699 4.27158 4.97794 1.12416 0.1355 -1.49614 
421 1 2.14709 4.47568 5.92361 0.231223 0.0212085 -0.408159 
422 1 3.98008 4.87272 6.63339 -0.647896 0.574198 1.13954 
423 1 8.17777 0.695684 8.08126 0.0058688 -0.140929 0.881037 
424 1 1.51371 4.63914 0.390282 0.903658 1.513 1.04893 
425 1 9.28094 7.24518 2.96859 -0.052163 -0.146239 -1.49206 
426 1 1.96355 9.08497 0.686925 -0.553148 0.330122 0.1741 
427 1 5.35487 4.18335 4.36371 -0.468059 0.107664 0.291766 
428 1 4.46157 3.90547 3.13105 -0.438087 0.260992 0.730303 
429 1 2.94135 5.01537 5.67971 -0.0292 0.455447 1.14605 
430 1 7.2538 8.4848 7.90097 1.27693 -0.835503 -0.323473 
431 1 6.80768 9.26345 7.55646 -0.533332 -1.78826 -0.789859 
432 1 0.467492 0.928381 4.25322 -0.693499 0.483295 0.149361 
433 1 3.46904 7.93738 2.98108 -0.295118 0.145289 -0.0734168 
434 1 0.334202 3.79094 0.401453 0.00523593 -0.250361 1.62778 
435 1 0.294293 9.10588 3.19051 -1.57413 0.179269 1.23717 
436 1 5.54127 6.27302 3.05084 0.648679 -1.00646 1.10679 
437 1 4.75146 1.23693 5.12861 0.0765247 0.870175 0.455655 
438 1 1.61149 2.22142 3.60889 -0.218756 -0.301073 -0.827286 
439 1 6.40468 3.98291 1.37864 0.0951998 2.14347 1.11182 
440 1 8.35245 0.369732 7.16987 1.3605 0.00712157 -0.457505 
441 1 0.661118 7.45557 2.42749 0.24227 -0.954071 -0.477358 
442 1 6.94966 8.36417 3.74134 0.344833 -0.224782 -0.0128649 
443 1 3.20486 3.99377 2.03893 0.676568 -0.224325 -0.179243 
444 1 4.56233 1.22463 0.974057 -0.258307 0.471049 -0.147565 
445 1 1.6415 4.79965 6.69337 -0.131377 0.322193 0.294588 
446 1 4.10765 1.07949 8.5275 -0.305673 -0.291196 -0.284403 
447 1 1.53654 5.75847 4.67288 -0.114947 -0.390561 0.751399 
448 1 8.95094 2.29624 8.21798 1.94401 1.11801 1.43256 
449 1 7.45708 0.559115 7.46035 0.382921 0.801838 0.839976 
450 1 3.62025 4.50949 5.14267 -0.611032 0.192225 -1.34649 
451 1 0.377366 7.01038 4.62062 -0.975283 -0.266942 0.227881 
452 1 5.271 3.2056 0.0762203 -0.480288 1.64106 0.3962 
453 1 3.3209 0.983919 4.85068 0.360337 -1.59806 -0.434449 
454 1 1.15088 6.33749 3.4812 0.452225 -0.476362 0.250046 
455 1 5.84272 1.80697 8.41285 -0.31496 -0.344581 -0.324445 
456 1 1.68336 0.66199 3.21946 0.733316 -0.71723 0.194581 
457 1 2.52871 7.57025 6.25429 0.611186 0.207996 -0.216012 
458 1 3.4273 5.46871 7.17861 0.859395 -0.71287 1.04137 
459 1 0.349814 0.96047 6.09711 0.320257 0.907037 -0.559775 
460 1 0.171186 0.0568411 6.00934 1.68994 0.545502 0.29049 
461 1 0.768831 5.06415 7.07736 0.0577789 1.1979 0.401912 
462 1 0.696707 2.64667 7.54351 -0.587121 -0.318221 0.394831 
463 1 3.46556 3.32857 5.17253 -0.44145 -0.513241 0.767429 
464 1 1.88277 3.04966 4.16973 -0.566009 0.373412 0.65167 
465 1 3.00488 6.55847 4.89294 -0.975921 1.59501 -0.641064 
466 1 7.47138 9.41656 8.28099 -0.281601 0.00186978 -0.426066 
467 1 8.98952 1.27721 4.21609 1.9515 -1.13168 1.15937 
468 1 6.09434 5.43748 2.92928 0.0331768 -1.46364 -1.0952 
469 1 5.10241 5.1035 7.79048 0.577361 -0.294104 0.622878 
470 1 5.9476 3.90996 9.22662 -1.03119 0.0176334 1.73119 
471 1 4.43577 5.6561 8.1858 0.313776 -0.19447 -1.16727 
472 1 8.73114 8.89221 7.34926 0.17379 -0.223264 -0.405456 
473 1 1.2396 0.896299 7.47483 -0.631835 0.549692 -1.0262 
474 1 5.59444 -0.00544005 3.21142 0.513229 -0.301647 0.317594 
475 1 6.07683 4.92765 4.53832 -0.904591 -0.754751 -0.0455024 
476 1 0.0744507 0.408318 8.68291 -0.921522 0.686396 0.428686 
477 1 5.1071 7.55941 3.37654 0.323881 0.113952 -0.259944 
478 1 5.98819 5.8998 1.12712 0.343649 -0.645972 1.77742 
479 1 5.67436 1.00814 7.96527 -0.238449 -0.503637 -0.0810468 
480 1 2.70556 1.34159 2.39824 1.51447 -0.234558 1.10504 
481 1 9.0681 0.321945 4.5154 0.217846 -0.083342 0.0439287 
482 1 5.10327 1.1646 0.158618 -0.575023 0.333282 0.491598 
483 1 4.78121 1.32104 7.86603 -0.605965 0.0433485 -1.12981 
484 1 3.65131 2.15088 3.71402 -0.460986 0.781602 0.737506 
485 1 5.30316 7.09377 8.81354 -1.23876 0.148502 -0.107505 
486 1 7.94576 2.05703 3.28426 -0.857916 1.09487 -0.538589 
487 1 3.30496 2.99974 2.20757 -1.35638 -0.364324 -0.832285 
488 1 2.33992 2.82229 1.85749 0.830796 1.06654 -0.0349671 
489 1 3.32133 2.02493 2.13479 0.480219 -0.465793 -0.0753156 
490 1 6.35232 6.34472 2.51876 -0.0492963 -0.497668 -0.297613 
491 1 8.15614 9.02209 6.55255 1.10809 0.0751842 0.210486 
492 1 6.68257 2.99194 6.43935 -0.0974571 -0.588902 0.23491 
493 1 7.26217 7.93318 1.97354 0.515203 -0.221479 -1.05363 
494 1 4.53803 6.50328 8.60716 -0.375016 -0.45093 -0.672796 
495 1 8.4335 1.29901 4.98938 1.46414 0.448288 -0.763482 
496 1 1.67777 3.14012 2.50057 1.17586 0.713239 0.25111 
497 1 7.79896 9.07443 7.45024 -0.92435 -1.38883 -0.154812 
498 1 2.8623 5.73237 9.01922 0.194192 1.05759 -0.683409 
499 1 0.532345 5.78255 1.63204 0.342873 -0.646698 0.219596 
500 1 8.71428 5.52286 6.59832 -0.330773 0.927511 -0.343712 
501 1 6.36062 4.31936 8.46903 -0.15075 -0.685645 -1.03227 
502 1 7.75642 7.48892 0.774994 0.142195 -1.2419 1.16744 
503 1 3.28956 1.24882 8.02424 0.451647 1.1936 0.935016 
504 1 5.17156 8.40814 7.91267 -0.146617 -1.29256 -0.314558 
505 1 4.29781 1.68809 2.06996 -0.488242 0.0591282 0.585031 
506 1 4.81574 8.72607 2.3126 0.0353774 0.460211 -0.114689 