ITEM: TIMESTEP
2247
ITEM: NUMBER OF ATOMS
1000
ITEM: BOX BOUNDS pp pp pp
0.0000000000000000e+00 9.4000000000000004e+00
0.0000000000000000e+00 9.4000000000000004e+00
0.0000000000000000e+00 9.4000000000000004e+00
ITEM: ATOMS id type x y z vx vy vz 
1 1 2.88003 1.18635 0.157334 -0.752289 0.102824 -0.253779 
2 1 0.743722 3.63434 4.08856 1.20882 0.681615 -0.416232 
3 1 7.71995 8.61213 4.45227 -0.167683 1.89224 0.127643 
4 1 3.59644 6.55468 3.64057 0.110784 -0.319805 -0.910228 
5 1 3.50975 8.40976 7.00866 1.54299 0.508477 -1.88789 
6 1 4.71375 1.08261 2.42859 0.517039 0.323203 -0.480875 
7 1 3.32896 8.98173 2.45926 0.51199 -1.38634 1.59005 
8 1 1.35542 8.37426 3.18791 0.620122 0.192105 -0.434168 
9 1 6.21061 3.40687 6.43053 0.330844 0.124157 0.976701 
10 1 1.83824 5.40283 1.66818 0.350354 -0.794556 -0.0446217 
11 1 1.38292 3.05119 3.64683 -0.783236 -0.546913 0.221681 
12 1 6.99115 8.72402 8.85666 -1.5105 -0.133961 -0.353748 
13 1 1.0664 5.39439 5.51882 0.073866 0.685747 0.407155 
14 1 0.919036 1.80257 7.84771 -0.409118 1.41813 -0.433881 
15 1 2.13632 4.11882 5.83952 0.106277 -0.520385 -0.442644 
16 1 7.19582 8.34201 6.85305 0.136647 0.423511 -0.00340632 
17 1 8.13027 0.920761 4.43963 -0.417965 -0.642032 0.483208 
18 1 8.22893 5.86246 1.11074 0.926306 0.815778 -0.643703 
19 1 4.23153 2.39882 7.46668 -0.15901 1.05282 -1.36422 
20 1 3.24907 4.95249 2.80205 0.159094 -0.985534 0.804974 
21 1 7.41634 1.1815 6.32136 -0.0315927 -0.114476 -0.781554 
22 1 5.91158 7.13181 7.12052 -0.420352 0.319073 0.0272667 
23 1 4.72151 1.70487 1.66548 -1.40246 -0.36253 -0.140195 
24 1 1.74833 1.60499 4.91827 0.515867 -0.763262 -0.904497 
25 1 8.33878 2.74883 5.81641 0.936917 -0.660048 -0.0166412 
26 1 5.5889 7.40333 3.0648 -0.888517 0.28527 0.306943 
27 1 5.87318 4.02488 8.09959 -0.541772 -1.01293 0.471918 
28 1 7.75168 3.82972 3.10472 0.376821 -0.381036 -0.228487 
29 1 7.43266 2.6292 6.13574 -0.794758 0.82626 -0.781487 
30 1 3.17356 4.9751 6.74944 0.537937 0.328811 -0.51336 
31 1 6.64399 7.09398 4.56881 0.379755 0.885819 0.0919361 
32 1 8.57477 6.31964 3.99069 -0.662519 -0.989312 0.52419 
33 1 0.409268 6.7936 5.37563 0.771479 -1.0123 0.770326 
34 1 1.90215 5.04432 2.56072 1.02322 0.924331 -0.381696 
35 1 8.88043 3.69761 1.80691 0.275502 -1.0857 -0.789766 
36 1 4.66886 1.74283 6.90955 0.226172 -0.141004 0.127934 
37 1 4.17471 7.80162 5.54266 0.838994 0.230574 -0.137625 
38 1 7.82868 2.1709 5.23667 -0.973111 0.522936 0.363405 
39 1 8.0319 8.88633 6.81936 0.637375 0.900874 0.953756 
40 1 4.93749 3.1763 2.73142 -1.22631 0.260007 0.215073 
41 1 3.04108 2.75767 4.50783 0.117438 -1.02557 -1.04807 
42 1 1.79463 7.68982 4.67086 -0.380791 1.09712 -0.517834 
43 1 5.43194 3.3712 7.08121 -1.01994 0.660113 0.000879598 
44 1 3.90645 2.13779 1.44869 0.234098 0.732555 0.67484 
45 1 7.27637 6.0402 2.19161 1.09032 0.847822 -0.0943178 
46 1 0.961505 3.4244 2.39048 1.11972 0.558074 -0.663979 
47 1 1.23848 4.38042 2.36151 -0.847945 0.31517 -0.261593 
48 1 3.39404 4.00218 4.40184 -0.559934 0.950144 -0.379224 
49 1 1.47305 6.21485 0.620179 0.371261 -0.246052 2.1764 
50 1 3.85051 8.74842 5.51494 -0.966769 0.00603472 -0.677559 
51 1 9.10563 6.05038 3.05323 -0.468588 0.737188 -0.149562 
52 1 4.3301 6.38008 6.27552 1.4045 -0.263224 0.565407 
53 1 3.90486 1.7115 3.382 0.352656 0.349396 -1.14186 
54 1 0.657024 1.55734 4.2197 0.605443 -1.17934 0.871946 
55 1 2.92915 2.74421 6.6232 -0.804281 0.943055 1.18086 
56 1 8.53623 5.44354 3.54501 -1.41814 -0.564029 -0.726347 
57 1 5.18789 0.2375 2.06531 0.195041 0.685342 0.452973 
58 1 2.03041 5.74306 5.50509 -0.120484 -1.19596 -0.457112 
59 1 1.01358 8.52885 2.29576 0.157515 -0.835785 -0.0216537 
60 1 2.12409 8.4998 4.95697 -0.63263 0.331534 -0.352872 
61 1 5.75298 4.2001 6.66317 0.267016 -0.56644 0.231999 
62 1 6.45929 7.35166 1.45693 0.0728411 0.841716 -0.311 
63 1 7.78048 8.21794 6.10382 -0.940826 -1.27939 -0.719635 
64 1 5.86237 7.87558 5.82992 -0.678787 0.733918 0.441349 
65 1 1.72979 8.36035 6.44929 0.267935 0.198656 0.323944 
66 1 8.24605 9.27659 3.09298 0.821736 -0.0746311 -1.57311 
67 1 4.73437 0.131747 6.50504 -0.502539 0.36522 -0.422427 
68 1 5.96897 6.10402 5.74383 0.397636 0.833132 0.707435 
69 1 2.62994 2.70672 3.11983 0.849354 -0.703952 0.889933 
70 1 0.95739 5.65996 1.27512 -0.430162 0.525221 -0.6701 
71 1 1.10973 4.54031 0.383448 -0.485599 -2.27756 0.947095 
72 1 6.13882 3.54371 0.337517 0.315108 -0.0597663 -0.636744 
73 1 5.60791 9.04286 0.399406 -0.965231 1.24917 -0.63482 
74 1 7.42251 6.24614 0.583744 0.830519 1.53516 -0.842815 
75 1 3.41507 5.96305 8.31169 -0.331377 -1.6964 -0.99279 
76 1 3.86213 1.18312 1.88012 -0.266092 -0.265038 0.265594 
77 1 5.07244 8.67389 6.78796 -1.06522 0.905321 1.08986 
78 1 1.06784 2.27007 0.373115 0.0401314 -1.09113 0.264328 
79 1 0.142383 1.32465 7.57301 -0.12947 -2.07796 -0.226232 
80 1 8.6944 1.63728 7.99428 -1.1735 -0.22666 -1.55284 
81 1 9.05144 3.06629 6.89592 -1.18245 -0.0982394 0.811392 
82 1 3.99512 6.58869 0.121218 0.526959 -1.33132 0.264901 
83 1 7.16846 7.21612 7.96396 -1.17153 -0.566089 -0.57741 
84 1 5.78596 4.86204 1.88319 -0.782117 -1.39965 0.0627275 
85 1 3.70665 0.158382 3.16894 -0.257457 -0.657521 0.160159 
86 1 4.8134 3.49998 1.78116 0.244196 -1.2096 0.455403 
87 1 5.99697 6.46454 4.23401 -0.0811315 0.00527586 1.11134 
88 1 6.38328 5.44913 6.95615 0.447128 -0.157552 0.33368 
89 1 9.2017 3.94786 6.45662 1.61273 0.114035 0.173373 
90 1 8.01203 0.16737 0.824807 0.57796 -1.10829 -0.188889 
91 1 7.82502 2.06132 7.65654 0.0365608 -0.0981401 1.12159 
92 1 3.10728 7.23025 9.40159 -0.57415 0.470286 1.48851 
93 1 6.96071 3.92649 6.00901 0.837625 0.561907 0.495903 
94 1 2.94472 5.75737 5.08604 0.778686 0.606483 0.589479 
95 1 6.55594 2.41407 2.01563 -0.402307 -1.53357 -0.474251 
96 1 0.492538 7.22994 4.53753 -0.367604 -0.565172 -0.843751 
97 1 0.0796097 9.24222 6.22072 -1.58088 0.405181 1.08607 
98 1 4.06717 4.11723 1.51939 -0.946572 -0.598704 0.951391 
99 1 3.76059 1.57625 5.32448 0.246777 -0.425947 0.053982 
100 1 7.75626 0.404776 2.50222 -0.37274 1.15891 -0.65527 
101 1 7.43949 0.471928 5.67422 -0.82966 0.0638172 -0.0469973 
102 1 2.87076 6.71673 4.36933 -0.078177 -0.329171 0.0474446 
103 1 0.705389 2.81541 4.56353 -0.0553743 0.24334 -1.02872 
104 1 1.50074 6.02281 6.2319 -0.487499 -0.457197 -1.25612 
105 1 4.43312 6.11479 3.38074 -0.680735 -0.603988 -0.738521 
106 1 8.42523 7.88547 4.44053 -0.133488 0.707104 -0.333462 
107 1 2.85868 7.98859 5.36977 -1.10244 1.69075 1.73035 
108 1 9.11982 1.18098 4.26589 -0.0640631 -1.07945 -0.56082 
109 1 5.37845 8.7465 1.74655 0.775926 0.00562595 1.03343 
110 1 7.48182 8.09338 7.72366 0.704261 -1.13997 -0.655324 
111 1 7.75699 9.29405 1.71613 0.264721 -0.0339955 -1.10989 
112 1 2.79406 5.66841 6.11852 0.0708369 0.78562 -0.00132756 
113 1 1.45501 9.01882 7.11808 -0.732967 1.7353 -0.137118 
114 1 8.7725 6.75946 2.40842 1.37048 -0.592895 -1.34342 
115 1 8.25704 1.34778 1.98831 0.10555 -0.986246 0.571389 
116 1 6.22072 1.06019 7.875 0.0979794 0.850615 -0.936702 
117 1 5.68465 2.07221 1.71858 0.155534 1.95675 0.130551 
118 1 8.66817 8.77434 4.57022 1.3205 0.425039 -1.23684 
119 1 5.66422 6.07363 0.278672 -0.100311 -0.498156 0.689661 
120 1 3.49733 2.63826 2.66773 -1.22367 0.622528 -0.813261 
121 1 5.93034 8.68911 4.32576 0.327953 1.3437 -0.236522 
122 1 0.183973 5.3997 3.57424 -0.549061 0.927981 0.017671 
123 1 5.72009 7.71856 8.67001 0.364007 0.893596 0.131949 
124 1 3.23269 9.02235 6.26436 1.52083 0.74743 -0.499653 
125 1 4.35448 9.29913 8.26364 0.121432 -0.271068 0.782696 
126 1 1.23157 9.23109 3.80525 -0.143983 1.01262 -0.789308 
127 1 7.71269 6.58409 1.47397 -1.77737 -0.415663 0.205521 
128 1 8.56912 2.44792 3.98464 -0.498453 -0.312501 -0.568748 
129 1 4.17843 8.29634 1.05805 0.228135 -0.767625 0.575931 
130 1 5.11496 7.52582 5.31889 -0.926695 1.70891 -1.13691 
131 1 7.32151 5.65147 1.3146 0.458571 -0.50209 0.203372 
132 1 2.97384 7.25301 3.50766 -1.50395 0.762127 -1.51338 
133 1 4.14816 3.65204 2.43855 0.397057 1.31265 0.784505 
134 1 5.35208 8.10879 2.47136 -1.09344 -0.596222 -0.166753 
135 1 1.02553 2.58786 7.25404 0.607422 0.371329 -0.528062 
136 1 2.36028 4.58924 4.31492 0.163978 0.397959 -0.312087 
137 1 4.17842 8.77334 6.40396 0.374312 1.69683 0.621375 
138 1 6.92027 3.68351 4.96669 -0.126295 0.219052 0.186343 
139 1 1.12875 4.72397 1.39948 0.648663 1.05888 1.30003 
140 1 5.28304 2.54537 3.36449 1.35763 -0.0442708 1.28986 
141 1 9.00488 4.69806 3.20168 -0.787296 0.060329 -0.479981 
142 1 8.12077 2.66338 6.81476 1.04408 -0.247522 -0.0641076 
143 1 1.39095 4.10582 6.47795 1.02927 1.55045 1.3942 
144 1 1.30498 1.65571 5.75295 -1.24625 -0.148486 1.11045 
145 1 5.25448 7.01033 4.53461 -0.682207 0.057839 -0.411995 
146 1 1.11868 1.05206 2.41557 1.20589 0.770446 -0.845756 
147 1 4.28442 2.75296 2.10553 1.04262 1.66555 1.93893 
148 1 2.45104 7.19884 5.10232 0.188448 0.826906 0.112953 
149 1 8.05096 1.90875 6.18417 0.609464 0.375513 -0.461312 
150 1 3.33633 8.12582 3.78086 0.0077221 0.769054 -0.417073 
151 1 3.02016 5.55892 0.445198 -0.195548 -0.168554 1.33391 
152 1 4.62986 5.35918 6.3197 -0.142865 -0.536952 0.553056 
153 1 4.55978 5.86925 5.52701 0.709596 -0.768235 -0.179971 
154 1 5.48226 5.06242 3.47471 1.47306 -0.197487 -0.561297 
155 1 9.08677 2.63648 1.45641 -0.671971 -0.640747 -0.20556 
156 1 6.54937 3.95925 8.76971 0.0445845 0.248444 -1.36877 
157 1 8.83412 1.72173 1.25838 0.000767168 -0.211058 -1.30626 
158 1 6.51532 1.88892 7.36767 1.63207 0.561241 1.02144 
159 1 7.39913 4.19548 0.706955 -0.0586159 0.0307427 -0.0583025 
160 1 4.25513 0.911485 4.85923 0.00863649 0.35558 0.289021 
161 1 9.21385 0.698502 5.9567 -0.512326 -1.36985 0.143013 
162 1 2.10976 9.03255 3.46818 -0.24593 -0.644357 -0.38787 
163 1 1.01928 6.90305 6.14804 0.57571 1.25369 0.955081 
164 1 2.89422 4.24077 3.55102 1.74176 0.353491 -0.599533 
165 1 3.75429 1.62528 0.0904145 0.724994 -0.0172376 1.28633 
166 1 7.78662 5.20805 2.01766 -1.7131 0.0840544 1.04 
167 1 0.542723 3.2476 3.24998 1.76348 0.047083 0.539887 
168 1 4.87322 5.35864 1.91177 -0.647659 -0.333456 0.956934 
169 1 1.61046 7.45669 3.20094 -0.589854 -0.787141 1.22072 
170 1 8.55047 9.09711 2.19787 0.830569 -0.840775 1.02863 
171 1 2.47275 1.1232 4.32379 -0.545712 -0.862317 -1.54608 
172 1 7.36789 7.50255 2.89532 1.1857 -0.475126 -0.626862 
173 1 5.65078 5.79572 2.1431 -0.720468 -0.332924 0.149098 
174 1 3.79406 8.98123 1.6472 0.713694 -0.555632 -0.542083 
175 1 4.66191 6.24709 4.66886 0.13276 0.196853 0.496054 
176 1 5.54856 2.94813 4.2181 0.158144 -0.0761011 0.581501 
177 1 7.90342 1.91219 8.57911 -0.543524 -1.3529 1.57216 
178 1 9.27009 3.87406 3.5981 -0.281238 -0.396222 -0.850251 
179 1 8.93455 5.12312 5.06935 -1.89624 -0.436451 0.242937 
180 1 5.96636 5.89621 3.4482 -0.141559 -1.3406 -0.826392 
181 1 0.773584 5.94167 2.93192 -0.0993967 1.2125 -1.068 
182 1 3.81325 3.0446 6.89287 -0.225371 -0.2699 0.826782 
183 1 5.24266 6.08243 6.32256 -0.433426 -0.123127 1.05039 
184 1 7.41729 7.07979 9.33484 1.34615 -0.743338 -0.587016 
185 1 7.00794 7.25207 3.73047 -0.725964 -0.209889 -1.4208 
186 1 3.13933 8.0941 2.85007 0.588862 0.518343 0.669624 
187 1 5.12912 6.41077 8.91372 -0.379526 0.329764 -0.585102 
188 1 8.24371 6.90253 4.71629 0.0280993 0.0785922 -0.197607 
189 1 8.28734 7.64328 2.66353 -1.77096 -0.336413 0.147132 
190 1 2.44656 9.35238 2.33065 1.06334 0.791191 -1.03387 
191 1 3.31505 1.26752 6.73274 1.36421 -0.88522 -1.78948 
192 1 7.80873 6.84232 2.38473 1.39353 -0.459001 -0.4533 
193 1 7.73129 2.30022 3.55942 0.299025 -0.63466 0.330279 
194 1 2.82377 5.82648 7.06454 -1.03128 -1.27331 0.179078 
195 1 4.6822 5.82923 0.128223 0.192225 -0.488435 -0.167875 
196 1 4.66078 2.70389 6.51103 -1.84622 0.853848 -0.390159 
197 1 3.59553 4.84003 3.81877 -1.30066 0.433195 -0.252267 
198 1 3.65649 2.08475 8.15815 0.961454 1.47755 -0.315884 
199 1 5.28177 8.40142 9.14544 -0.262343 0.885357 0.530537 
200 1 6.61232 6.62306 0.239931 0.257424 -0.854543 1.03926 
201 1 1.83769 2.16342 3.43928 -0.433093 0.626011 0.538604 
202 1 5.92713 7.73578 4.83665 -0.158052 -0.566612 -1.35885 
203 1 1.73806 9.31207 6.22062 1.09883 0.498004 1.28643 
204 1 0.369976 7.78999 5.34462 -0.372231 0.85467 1.08466 
205 1 3.48533 0.208035 5.32194 -0.543977 -0.0956059 -0.274869 
206 1 3.94569 7.46898 3.39708 0.229134 -0.516842 -0.635459 
207 1 0.988213 7.86975 6.07622 -0.996937 1.82907 0.547369 
208 1 5.74739 4.36193 4.00687 -0.88532 -0.822271 -1.26686 
209 1 7.38436 6.9352 5.1367 -0.0346414 -0.446144 0.462973 
210 1 8.40916 1.05553 6.42427 -1.01078 0.308198 0.594016 
211 1 9.19079 1.10889 1.91791 -0.188024 -0.0565604 1.28413 
212 1 7.33774 2.72576 8.54699 0.316861 0.0846427 0.822908 
213 1 9.12044 8.80563 3.74267 -0.389471 0.896702 1.05334 
214 1 6.32285 3.712 7.31514 -0.920285 1.0037 0.0945956 
215 1 5.15326 3.44294 0.893351 1.80627 0.661613 1.48181 
216 1 6.82005 3.11817 0.889163 0.1364 -0.804405 -0.538715 
217 1 2.19476 3.59663 3.33454 -0.537155 -1.67801 0.688431 
218 1 2.48361 3.65728 4.35694 0.557505 -0.135995 -0.587263 
219 1 5.30004 6.674 3.6313 0.688534 0.327636 -0.316292 
220 1 4.10229 4.67789 4.61297 0.254532 -0.334007 0.671823 
221 1 7.4563 4.88629 3.59591 -0.545188 0.579524 0.922285 
222 1 6.62022 9.35924 8.25642 0.244367 0.179973 -0.837818 
223 1 1.5119 1.35639 0.237179 0.256947 -0.824204 1.21346 
224 1 2.0587 -0.00581421 1.0288 -0.526021 1.14246 -0.648198 
225 1 6.97669 5.08501 2.50808 -0.408135 0.570896 -0.988068 
226 1 6.14373 3.38605 2.74012 -0.637819 0.845719 -0.625904 
227 1 0.766008 1.71514 6.8308 0.432122 -0.0852002 0.804296 
228 1 2.65455 8.66416 4.19127 -0.499428 -0.661253 -0.107715 
229 1 5.24023 3.54659 5.19879 0.25027 0.00342713 0.790392 
230 1 8.19834 9.37395 4.01494 -0.3904 0.671339 -0.0172485 
231 1 2.23991 2.84707 3.97029 0.381255 0.284776 -0.198519 
232 1 1.12993 9.0955 1.36351 0.552313 0.601376 0.319843 
233 1 7.82216 3.28417 0.579311 -0.95843 -0.809101 0.170821 
234 1 0.0881723 4.11775 4.57641 -0.873163 0.114915 -0.317491 
235 1 2.7171 5.18269 3.59817 -1.05541 0.34811 0.420344 
236 1 3.14999 1.28667 1.23983 -0.634366 -0.7405 0.838171 
237 1 2.22694 1.22027 0.886135 -0.153095 1.91325 0.586153 
238 1 6.07709 5.21372 2.7446 0.269186 0.772164 -0.434264 
239 1 0.44901 8.75107 5.4506 0.134062 -0.437584 1.0455 
240 1 6.16909 0.0267156 3.06059 -0.0356993 0.32769 0.736269 
241 1 1.5918 1.36577 4.01377 0.409821 -0.392074 -0.617433 
242 1 3.26295 8.33205 1.12748 -0.0461897 -0.0173106 -0.761835 
243 1 6.25049 5.37754 5.21039 -2.50684 -0.560876 -0.241816 
244 1 1.9774 9.26231 4.37962 -0.526253 0.370226 -0.825114 
245 1 3.17632 4.89739 4.73053 -0.588263 -0.0391254 0.0354998 
246 1 2.32588 8.48526 1.01705 0.774707 -0.155947 -1.07918 
247 1 7.93878 5.45754 0.29277 -0.944283 0.129932 0.95689 
248 1 8.70989 5.26235 1.66188 -1.53131 -0.769935 -0.334927 
249 1 4.67818 4.28376 0.749901 -1.77424 0.306575 1.08979 
250 1 7.74812 0.681771 3.57584 0.628555 -0.0580921 0.495336 
251 1 6.87311 6.57307 8.65889 0.688028 0.544561 -1.39287 
252 1 9.08543 4.45693 1.27613 -1.14714 0.452315 0.887524 
253 1 6.71894 8.87867 0.454782 0.148544 0.394434 -0.0012667 
254 1 2.63502 8.10165 6.57132 0.504191 0.196833 0.727029 
255 1 5.18844 8.06403 4.34243 0.719839 0.56198 -1.11588 
256 1 7.39867 4.26655 2.27574 -0.421475 -1.06228 -0.929682 
257 1 7.62782 1.76161 4.36811 -0.352949 -0.74881 -0.242831 
258 1 4.2651 6.22447 8.64931 0.636044 -0.135414 -0.735601 
259 1 6.31138 4.9457 8.68469 0.845637 0.449825 0.164616 
260 1 5.22796 1.47943 8.63641 -0.29099 -0.534732 -0.907817 
261 1 0.0350375 2.49324 2.95907 1.00246 0.955159 -0.318087 
262 1 1.0724 1.57545 3.25687 -0.723488 0.178613 -0.241645 
263 1 3.30121 0.937826 5.84897 0.0918889 0.121571 -0.402223 
264 1 3.0451 4.34919 6.06005 -0.0309037 -0.125414 1.498 
265 1 0.692941 1.02073 6.10086 -1.07407 0.718554 -0.435919 
266 1 2.4794 0.659099 1.62501 1.66011 -0.168436 -0.472744 
267 1 4.98236 2.14249 9.27121 -0.651435 -0.317665 -0.259904 
268 1 4.85747 4.51573 6.63599 -0.726525 -0.22172 0.165856 
269 1 2.13577 7.70445 1.52041 -0.884169 0.938372 -0.77563 
270 1 7.42447 7.35599 5.99033 1.16715 -0.0558989 0.184893 
271 1 0.21211 8.96901 4.56788 -1.58278 -0.405626 0.281507 
272 1 4.08038 0.799463 8.08343 0.959405 0.445529 -0.126687 
273 1 4.24178 5.50634 4.06554 0.791117 -0.509938 0.704727 
274 1 9.27343 5.27863 5.95473 2.02202 -0.699438 1.09304 
275 1 4.95578 2.61791 1.40074 0.490505 -0.831748 0.492699 
276 1 5.35176 4.81389 8.28784 -0.670665 -0.176124 -1.367 
277 1 7.26158 8.15965 5.18032 -0.000885589 -0.837073 0.310185 
278 1 6.65727 6.2052 4.96048 -0.683616 -0.709103 -0.138944 
279 1 5.54556 0.373096 5.90953 0.113384 0.364478 -1.90857 
280 1 3.76629 4.2318 3.09621 0.0159049 0.194616 -0.0479755 
281 1 6.75943 5.67185 6.02692 0.932252 -0.82016 -0.0466645 
282 1 6.23832 7.16508 8.10186 -0.925589 0.825629 0.799947 
283 1 3.88839 3.31556 3.28326 -0.086566 -0.0918457 -0.121859 
284 1 7.22503 0.548963 7.82815 0.408401 0.208301 0.217873 
285 1 3.28135 6.48615 6.50613 -0.51215 -0.313549 0.00949565 
286 1 9.0567 6.34948 5.75944 -0.56962 0.591917 1.28947 
287 1 2.53966 0.922772 8.65247 -0.569972 -0.918437 -0.225584 
288 1 6.09252 2.73391 7.39031 0.222469 0.984058 0.684936 
289 1 4.66944 9.01645 0.179793 0.600164 1.00118 0.526623 
290 1 4.94622 4.41176 4.97488 0.673067 -0.963265 -0.667354 
291 1 4.5564 4.03326 5.78392 0.621868 -1.05364 -0.442339 
292 1 8.18324 2.2474 1.7433 0.35234 0.966511 0.376042 
293 1 9.25793 1.88435 3.63833 -1.73898 -0.166773 0.362207 
294 1 6.96407 1.09536 4.05031 -0.597934 0.0991643 0.137465 
295 1 1.67906 0.769031 5.75311 -0.972563 -1.09855 -1.73893 
296 1 3.32286 4.73891 -0.0102479 -0.74947 0.293569 0.292415 
297 1 5.18548 4.8043 2.62357 0.631071 0.266273 -0.876944 
298 1 5.32466 1.12461 3.70371 -1.63344 -0.10431 0.804224 
299 1 0.442127 9.10124 7.13555 -0.646665 0.695158 -0.683995 
300 1 2.99874 8.98981 0.500198 -0.262065 -0.52616 -0.637561 
301 1 7.228 2.63829 0.155998 -1.44797 -0.479737 -0.71937 
302 1 4.59629 5.91673 7.07664 0.199167 0.548552 -0.0702608 
303 1 8.66058 2.87826 2.30937 -1.83935 0.555794 -1.11103 
304 1 8.65086 5.3607 2.59526 -0.755452 0.937678 0.765703 
305 1 7.06935 3.4184 2.5918 0.513712 0.778912 1.75129 
306 1 8.5257 8.87566 1.28024 0.702869 0.292362 -0.449846 
307 1 3.73346 6.4463 4.64938 -0.536655 0.584055 1.26021 
308 1 4.42283 4.97437 3.27492 -0.520487 0.220487 -0.853075 
309 1 1.93329 0.485493 6.99334 -0.166864 0.317516 0.657559 
310 1 7.98964 1.22912 5.49864 -0.741205 -0.959121 0.0475729 
311 1 6.59696 7.74948 7.36346 -0.162891 -1.23045 -0.790836 
312 1 1.60474 6.32963 1.56691 -0.457832 0.56177 -0.358006 
313 1 3.44983 8.08645 6.09047 -1.41115 -0.402523 -0.833438 
314 1 4.5445 3.64009 6.71782 0.903262 0.608678 0.697512 
315 1 1.66628 8.42742 4.0953 -0.340655 0.33134 0.740068 
316 1 3.74839 5.65804 6.48015 0.478772 0.286759 -0.0746415 
317 1 2.85476 0.413277 6.74706 -0.62887 -0.658185 0.46304 
318 1 8.2307 6.84 5.68404 -0.573152 0.0298086 0.580724 
319 1 0.291642 0.432267 5.00518 0.884402 -0.286311 -0.334989 
320 1 2.56463 4.9478 5.49137 -0.415294 1.46157 -0.378673 
321 1 3.29455 5.71324 4.19689 -0.557832 -0.89295 -2.00795 
322 1 1.38791 8.59576 5.55719 -0.686481 1.81972 -0.406621 
323 1 5.99601 1.34517 0.960355 -2.16923 -0.230471 1.70923 
324 1 3.5992 8.1265 4.7692 0.269469 0.559709 0.602417 
325 1 0.512619 4.57127 6.19719 0.255691 1.25852 0.272109 
326 1 1.61225 7.10598 0.993593 0.709466 -0.0449029 0.537628 
327 1 1.4231 2.26768 4.29186 -0.639484 -0.529645 1.48566 
328 1 2.8889 9.18633 1.47585 -0.317345 0.0106901 -0.514303 
329 1 6.41196 1.60696 5.10868 -0.690803 -0.776929 -1.19625 
330 1 2.8676 0.472324 0.78419 -0.591101 1.68973 0.269939 
331 1 1.57318 9.20037 2.70872 0.722675 -0.612553 -0.673247 
332 1 3.62594 1.79427 4.33094 -0.930988 -0.124635 1.59847 
333 1 5.54509 5.18633 6.58666 0.934228 0.321891 0.40979 
334 1 7.34774 1.96952 6.85032 -0.0746138 1.08906 0.0894962 
335 1 8.50556 0.512977 1.56487 0.0365047 -0.686409 1.17607 
336 1 3.75537 7.15052 6.07214 -0.876289 0.563694 0.110427 
337 1 8.38403 0.0557968 8.3824 -1.13261 -0.719543 1.12979 
338 1 6.40545 3.73654 3.70343 -0.564496 0.402248 -0.806573 
339 1 8.8359 1.56168 5.74967 -0.779409 1.09078 0.524114 
340 1 2.48824 6.08056 1.95855 0.613813 -0.644018 -0.744982 
341 1 8.09263 8.65773 5.33328 1.38067 -0.0976583 -0.238437 
342 1 8.6648 2.55317 7.67239 0.741533 -0.489939 0.611529 
343 1 3.82353 2.49835 5.01276 0.872528 0.0264231 -0.388402 
344 1 7.38651 7.4728 1.75873 1.42602 -0.225881 0.652486 
345 1 9.02978 0.200531 0.825452 1.22399 0.00816615 0.19116 
346 1 9.36566 3.9878 5.50046 -0.68089 -0.361085 0.212259 
347 1 5.51065 3.53324 3.4443 -0.514739 0.488425 -0.675133 
348 1 1.21011 6.3269 5.34762 -0.655172 -0.092031 -0.346079 
349 1 3.3129 0.954078 4.72926 0.118752 0.488599 1.29532 
350 1 4.55605 8.02125 0.218591 -0.294891 1.05736 -0.873824 
351 1 0.21496 5.22621 2.65982 -0.512997 0.265567 -0.0964852 
352 1 6.6133 4.44638 4.38237 1.35565 0.532151 -0.79632 
353 1 2.20834 3.568 6.62984 -0.548929 0.407775 -0.254288 
354 1 3.67536 5.06053 1.87222 -0.88586 -1.22979 0.80116 
355 1 2.31765 5.93408 1.00159 -0.748312 -0.475992 -0.442601 
356 1 7.24295 6.5163 3.09598 0.937022 0.193489 1.10507 
357 1 8.96494 8.27639 5.31774 0.466747 1.09578 -0.212936 
358 1 7.39658 0.289713 4.3904 -0.860232 -0.471598 0.390748 
359 1 2.18215 8.99322 0.0531767 0.0686713 -0.501566 0.538148 
360 1 6.19557 0.959924 3.38798 0.260162 0.307652 -0.34394 
361 1 8.44276 4.37943 4.79794 0.380231 0.484382 -0.293193 
362 1 5.0406 8.601 8.1268 -0.95991 -0.100532 0.92655 
363 1 7.39245 3.65299 1.4899 -0.495822 -0.434813 -0.219219 
364 1 4.57878 2.92156 0.335205 -0.469289 -0.0734706 -0.0385183 
365 1 4.55281 2.0467 0.721884 -0.3743 0.643275 1.12864 
366 1 8.9705 1.71845 0.230625 1.24639 -0.214451 0.32713 
367 1 4.07937 1.27411 0.940193 0.444122 -0.209811 1.23 
368 1 1.10822 0.980944 7.35903 1.03056 0.475346 0.246001 
369 1 9.37619 2.98129 3.97648 0.222073 -1.49082 -0.00360915 
370 1 5.96603 6.3193 8.50054 -1.36737 -0.877712 0.202245 
371 1 3.63006 2.74832 5.97885 -0.857535 0.90223 0.249834 
372 1 6.50166 2.15851 1.10853 1.34423 1.09697 0.525938 
373 1 1.75803 4.99733 6.04969 0.957876 -0.0469854 -0.594126 
374 1 8.50759 1.00043 0.6764 0.602196 -1.05909 0.466359 
375 1 3.1764 5.72929 1.37716 1.22408 -1.40568 -1.23999 
376 1 8.52746 1.2479 8.9041 0.710314 0.247309 -0.470614 
377 1 6.23315 6.35259 6.62647 -0.842836 -0.461191 -0.953341 
378 1 7.64029 9.04613 0.089717 0.406293 1.53222 1.25769 
379 1 6.85439 2.15208 3.87171 -0.102717 -0.68536 1.05545 
380 1 3.15263 1.25291 7.98376 0.315531 -1.1235 0.623849 
381 1 9.00679 7.18974 4.20212 -0.577126 -0.71142 -0.603019 
382 1 0.532569 1.44042 0.204701 1.44368 -1.65567 1.39228 
383 1 8.7518 0.639323 3.51184 0.574756 1.08546 -0.0124464 
384 1 5.58096 1.48756 2.68093 0.242931 0.333855 -0.608122 
385 1 8.21022 5.30802 4.43241 0.322836 1.16526 -0.141297 
386 1 4.80758 6.27458 2.22499 1.50434 -0.394628 1.228 
387 1 2.47499 1.07119 5.31224 -0.63915 -0.381518 1.75113 
388 1 1.01202 5.79682 3.80907 -0.295763 -0.766815 -0.0841047 
389 1 3.56199 5.68786 3.2761 -0.888062 1.05562 -1.66106 
390 1 6.94299 0.358343 2.01917 -0.471198 0.961458 0.807125 
391 1 4.39887 4.93804 5.51326 -1.05391 0.274276 0.521725 
392 1 4.20546 4.00526 3.91433 0.326522 1.33172 -0.946606 
393 1 8.35377 1.53234 3.74636 1.26427 -1.11181 -0.119446 
394 1 4.61188 5.3076 8.73798 -0.582935 1.20438 0.525582 
395 1 6.17618 0.439409 0.551955 -1.00123 -0.438008 0.570014 
396 1 4.34481 2.32772 4.01452 -0.797103 -0.823699 -1.57811 
397 1 0.338836 7.40415 3.55017 0.114964 -0.116079 0.573712 
398 1 5.65334 2.63538 6.51019 -0.629822 0.168423 -0.815151 
399 1 5.03954 6.7601 6.95084 -0.348815 -0.504469 0.414038 
400 1 5.68809 6.99723 6.17252 -0.688515 -1.22729 0.190563 
401 1 6.7051 3.05559 5.71175 -0.699567 0.00481695 0.636736 
402 1 7.22855 9.26642 7.13688 1.29387 -0.475415 -0.529919 
403 1 5.16961 1.19115 4.6318 -0.755544 -0.537083 -0.380826 
404 1 6.06468 1.28138 4.29222 2.38985 1.30163 1.55811 
405 1 2.40568 8.7023 5.84851 0.0986602 1.87268 -0.68643 
406 1 2.52996 5.00399 1.11331 0.282125 0.934373 -1.896 
407 1 9.2844 1.42717 6.6054 1.0588 0.0746929 0.0694507 
408 1 2.25369 8.4798 2.72246 1.02184 0.640507 0.363102 
409 1 0.975456 8.22938 4.76404 1.21291 0.781245 -0.299344 
410 1 3.33704 5.81303 2.3174 0.40017 -0.22244 -0.451313 
411 1 6.19969 9.29899 9.11177 -0.0648175 1.26997 0.730673 
412 1 5.36337 5.35218 5.62831 0.680278 -0.69759 -0.289171 
413 1 5.14879 6.5845 5.50713 -0.0925925 0.998288 1.43244 
414 1 6.74361 6.65156 5.83409 -0.716312 -0.761189 1.09971 
415 1 9.25518 5.96289 2.11202 -0.0136268 0.759211 0.245585 
416 1 5.80858 0.713655 8.77445 -0.113177 0.167023 -1.35559 
417 1 2.85693 0.238652 3.95869 1.29262 0.834356 0.0927866 
418 1 0.101504 1.4097 5.10664 -1.01863 -0.448917 -0.804503 
419 1 3.11599 2.0419 7.29113 -0.125844 -0.426946 0.904259 
420 1 4.79212 1.46298 7.78819 -1.11778 1.03347 0.648823 
421 1 9.20154 3.14694 5.93118 1.68811 0.792946 0.149616 
422 1 6.2373 4.83383 6.0189 -0.413683 0.627519 0.000148361 
423 1 4.20671 7.84352 6.6096 -0.813961 0.0141677 2.13633 
424 1 0.552492 4.53319 3.78864 1.10664 -0.0541815 -0.763838 
425 1 3.36272 5.25269 7.6528 0.822269 -0.0305028 -0.315446 
426 1 2.1771 5.82637 0.0547884 0.777198 1.12476 -1.66588 
427 1 4.85862 4.69637 4.05872 0.329163 1.03852 -0.445591 
428 1 5.46732 3.08147 8.01933 -0.0524662 0.291305 -0.575471 
429 1 5.55394 5.97814 7.22818 -0.328625 -0.820155 -0.197048 
430 1 4.5246 0.453655 0.64233 -0.515133 -0.54317 0.810351 
431 1 5.80625 9.27089 5.11063 -0.390901 0.574397 -0.7181 
432 1 6.64366 7.51338 5.43646 0.0713743 -0.995264 0.0110364 
433 1 0.152711 0.587403 6.90923 0.0616711 -0.804469 0.613368 
434 1 8.79895 8.1663 1.95247 0.860753 -0.0689694 0.0617852 
435 1 6.10662 3.83056 5.56656 -0.880743 -0.215301 -0.268562 
436 1 5.21907 9.29323 8.80893 0.95815 1.47439 -0.030067 
437 1 3.69865 0.454632 1.2829 0.695939 -1.39046 1.28662 
438 1 1.51376 2.52841 5.39065 0.275394 0.979638 -0.52162 
439 1 6.53781 1.62404 6.43326 0.462807 0.206866 0.945554 
440 1 8.00031 3.55382 2.21071 -0.954703 -0.249394 0.442391 
441 1 2.3434 9.36605 8.52951 0.324346 -0.361552 -0.175679 
442 1 8.04219 3.24945 3.78913 -0.32049 -1.22723 -0.838552 
443 1 2.5693 0.479516 7.75078 -0.64273 0.963646 0.637221 
444 1 6.98393 0.332528 0.0653951 1.4634 0.537866 -0.236787 
445 1 8.94148 7.89453 3.58489 -0.816965 1.30287 -1.13258 
446 1 7.4673 8.99822 7.99068 0.685607 0.109537 0.22912 
447 1 5.70011 2.43491 8.71164 -0.382801 0.843235 -0.474719 
448 1 3.91521 6.45233 2.6572 0.332408 0.147317 0.480673 
449 1 2.22687 1.91712 5.68185 -1.24942 0.407645 -1.0723 
450 1 2.89711 2.58482 5.44964 -1.77276 -1.69655 -1.25169 
451 1 6.87349 1.12691 1.10227 0.988261 0.361837 0.825368 
452 1 0.802103 0.0688805 2.1949 0.693923 -0.54835 0.977243 
453 1 5.95832 8.13864 6.75319 0.0798094 0.35781 0.386799 
454 1 8.78144 3.0977 3.24325 1.82138 0.651411 0.163333 
455 1 5.60379 3.00487 2.03047 1.24215 0.688652 1.29251 
456 1 2.93535 6.62968 2.68052 0.0274326 -0.99931 -0.4148 
457 1 6.56398 1.19513 0.118239 -0.422652 -0.00340415 -0.987598 
458 1 6.55594 4.01573 1.10829 -0.219527 1.01354 -1.82496 
459 1 8.65785 3.91024 2.79112 -0.260638 0.0891125 0.197399 
460 1 4.42277 8.36145 7.41401 0.241559 0.365445 -0.298714 
461 1 3.94675 7.57614 8.99667 -0.496657 0.169765 -0.21095 
462 1 4.4381 0.510027 9.01503 -0.839566 -0.526035 1.62025 
463 1 1.92365 0.529593 3.7196 0.628375 0.149313 -1.31568 
464 1 7.15376 1.79921 0.528119 -0.031381 -0.0441811 -0.328534 
465 1 6.93032 8.85453 1.69993 -0.834511 -0.563627 0.508023 
466 1 4.5024 8.42453 4.9158 -0.843993 -0.366495 -0.0700655 
467 1 0.555269 3.48083 6.98129 1.36 -0.0933401 -0.172753 
468 1 0.769555 6.22604 2.03243 -0.528401 0.295002 -0.775251 
469 1 3.78958 0.388837 6.50516 -1.15713 -0.260188 -0.698381 
470 1 1.70069 1.83837 7.30427 -0.404206 0.538233 -0.884765 
471 1 7.12324 3.33976 6.76752 0.703204 0.353361 0.325334 
472 1 3.52408 0.940856 8.83396 0.159363 -1.3527 -0.972721 
473 1 2.9009 7.40262 1.94765 -0.394096 -0.585757 0.444241 
474 1 1.07501 0.567185 3.22754 0.760213 -0.715892 -1.05768 
475 1 4.22867 9.34228 4.80573 -0.192285 1.61262 0.389253 
476 1 1.09867 9.22494 4.78215 -0.513204 0.0955497 0.124258 
477 1 5.5476 7.63413 1.39352 -0.455959 0.153459 -0.0119558 
478 1 0.804634 7.61428 2.6958 2.01612 0.251254 -0.244606 
479 1 2.52745 4.3139 2.6407 0.50382 -0.592876 0.466494 
480 1 1.84082 1.66638 2.62346 -0.0416934 0.515229 1.14856 
481 1 6.37773 8.51262 5.17766 0.961278 -0.607007 -0.0882774 
482 1 0.0518969 1.08898 0.947042 1.02245 -0.0393476 0.00451346 
483 1 1.56793 0.23335 7.85975 -0.412624 0.289962 -0.703903 
484 1 5.73551 3.85618 1.52292 -0.038527 0.0350899 -0.834677 
485 1 6.57858 0.23561 3.88298 -0.449739 -0.536981 -1.02376 
486 1 9.08075 4.56559 2.25749 -0.0565631 1.03278 0.224089 
487 1 2.32902 1.3065 3.3677 -0.606983 1.15032 0.747665 
488 1 5.95262 1.87395 3.5267 0.658611 -0.475658 0.288002 
489 1 6.62956 3.03085 4.33925 1.86009 0.755387 0.0922086 
490 1 0.482182 2.66491 6.46411 -1.48247 0.106077 -0.0894136 
491 1 5.21864 7.22301 2.20352 -1.99196 0.083895 0.133935 
492 1 5.40228 6.77752 7.86561 -0.0624323 -0.514738 0.782655 
493 1 5.92487 5.30257 4.30562 0.694659 -0.263976 -0.0602794 
494 1 6.68046 4.45922 6.78273 0.0184874 1.33702 -0.863831 
495 1 5.07783 1.23339 0.902594 -0.261594 0.660561 0.168956 
496 1 2.45001 1.11528 6.25647 0.0614044 -0.468494 -0.724777 
497 1 5.65029 4.29122 0.653547 -0.813898 0.218084 -0.5157 
498 1 7.95007 4.91642 1.11589 0.348111 0.897754 -0.539501 
499 1 2.86517 3.42788 5.93806 -0.65607 0.354087 0.145259 
500 1 5.72694 0.382906 4.29857 -0.321546 -0.555676 -1.86548 
501 1 8.72912 3.59335 4.32944 -0.13118 -0.347413 0.224846 
502 1 4.216 5.54324 2.56905 0.0984086 0.322812 0.138789 
503 1 7.33611 9.04602 6.16622 -1.52848 -0.0268374 0.946984 
504 1 0.479065 0.423602 7.81508 -0.392713 -1.1213 1.1147 
505 1 0.292841 1.04968 3.50356 -0.187254 -0.747537 0.472391 
506 1 2.06342 6.61322 3.09567 0.241186 -1.28965 -1.12768 
507 1 8.79922 2.17749 8.80385 0.616254 1.24886 -1.81415 