ITEM: TIMESTEP
3027
ITEM: NUMBER OF ATOMS
1000
ITEM: BOX BOUNDS pp pp pp
0.0000000000000000e+00 9.4000000000000004e+00
0.0000000000000000e+00 9.4000000000000004e+00
0.0000000000000000e+00 9.4000000000000004e+00
ITEM: ATOMS id type x y z vx vy vz 
1 1 7.10131 7.37531 5.62852 -0.675728 0.413989 0.307113 
2 1 7.64317 7.78109 6.38949 -1.7859 -1.22687 -0.621668 
3 1 4.88417 1.21728 3.7116 -0.631852 -0.218446 -0.617941 
4 1 2.10014 5.31339 7.81149 0.0479069 -0.760505 0.331912 
5 1 7.46934 2.6279 0.879005 -0.330612 -0.903273 -0.107788 
6 1 2.0269 4.60063 3.37035 -0.618647 1.32153 -0.743207 
7 1 8.52681 6.27574 6.95953 0.0391898 -0.135045 0.0900664 
8 1 7.76315 4.62794 6.24783 0.418668 -0.463543 1.50818 
9 1 1.70621 4.10629 4.14751 1.71681 -1.15906 -0.630848 
10 1 4.71454 4.85962 9.07573 -0.99486 -0.403231 -0.160561 
11 1 6.0556 7.26551 4.63354 -0.132741 0.137028 -0.532243 
12 1 6.82236 8.79486 8.44457 -0.188347 -0.0528075 -0.7798 
13 1 4.69906 9.15133 6.75908 -0.474856 0.361741 -0.449758 
14 1 3.52306 4.61014 3.84498 0.204721 -1.00396 -0.0102309 
15 1 8.47554 1.09929 7.31528 0.628199 -0.506279 0.409422 
16 1 9.315 6.58723 7.40492 0.398914 1.06186 -1.60184 
17 1 3.75269 6.22393 8.78851 -0.142603 0.435074 0.419392 
18 1 5.44926 3.79737 5.87164 -0.623501 1.17177 0.238447 
19 1 4.6658 7.58893 8.05906 0.821912 -0.0792627 0.187367 
20 1 6.83215 2.10632 0.378247 -0.474802 -1.6585 -0.766165 
21 1 3.00765 9.07388 6.19161 -0.789283 0.175819 1.3867 
22 1 4.9783 2.37031 7.72659 0.673076 -0.92638 0.645742 
23 1 2.54515 9.13578 8.18891 1.13656 -0.0526493 -1.57354 
24 1 6.80463 5.9396 6.38444 -0.436518 -1.06116 -0.00858132 
25 1 6.80474 5.84348 2.50266 0.205711 -0.045919 1.66458 
26 1 2.68248 7.35456 6.46161 1.42011 0.590247 -0.138147 
27 1 3.10947 4.61067 5.74684 -0.590009 -0.457566 -0.924086 
28 1 2.12739 4.91338 2.44172 -1.73394 -1.01402 -1.56966 
29 1 1.47598 1.66842 7.84423 0.122339 -0.339339 0.7392 
30 1 4.25032 5.55825 0.098192 0.590775 -0.659563 0.841396 
31 1 0.156996 9.30249 5.87829 0.87711 -0.840302 1.65492 
32 1 5.8676 8.69168 7.9489 -0.101465 0.906364 -0.662394 
33 1 7.55288 2.63013 1.87846 -2.26095 0.467559 -0.261824 
34 1 7.32902 4.65486 3.63817 0.381858 0.0603628 2.39831 
35 1 7.47237 3.93514 5.25951 -1.22885 -0.545932 0.110779 
36 1 3.23352 1.13612 0.953166 1.29253 -0.233781 0.576261 
37 1 0.000480259 2.32284 7.67405 0.486007 -0.159353 -0.717032 
38 1 3.35794 3.80174 4.38595 0.664984 -0.358145 0.774256 
39 1 4.23693 9.19105 0.348129 -0.165571 -0.402524 0.331342 
40 1 6.67408 4.91259 2.09634 0.329831 0.235969 -1.05009 
41 1 6.90684 1.57703 8.9311 0.15438 -1.343 1.79403 
42 1 2.11125 5.46601 1.5997 -1.12657 -0.812186 0.560104 
43 1 7.15034 3.89597 6.15141 0.448392 0.99774 -0.558607 
44 1 7.63004 0.638621 7.48258 0.426963 0.388204 -1.36967 
45 1 8.72263 1.79825 0.0391572 -0.709233 0.109625 -0.0575803 
46 1 5.11315 7.62052 5.7735 -0.0190917 0.403522 0.0603842 
47 1 7.06374 7.10709 9.22007 1.44288 1.72535 -1.33698 
48 1 2.62207 3.25112 4.65561 0.209156 -1.64649 -1.77879 
49 1 1.99789 6.39111 1.85896 -0.337776 -1.0344 -0.284512 
50 1 9.37242 5.56864 5.21732 0.182491 -0.261803 2.37266 
51 1 2.64588 8.62387 2.93106 -1.59059 0.647639 0.510771 
52 1 3.0451 1.49363 7.6851 -0.151295 0.727883 1.89408 
53 1 6.29354 5.1676 9.06704 -0.145556 1.04315 1.78528 
54 1 0.506978 0.444047 6.60189 -0.217991 0.0249729 -0.418479 
55 1 5.52238 7.85991 7.66278 0.026437 0.302589 -0.108657 
56 1 1.79822 7.41143 5.99159 0.313366 1.35218 -0.186725 
57 1 3.63814 7.5362 4.00943 -0.76942 -0.530595 -0.698335 
58 1 8.44436 4.98174 9.15856 1.46269 -0.641634 0.583553 
59 1 4.80205 7.96407 1.65458 -0.365033 -0.0201147 0.276318 
60 1 1.49035 8.1759 4.62009 1.17774 0.698098 -0.531716 
61 1 3.98438 1.9116 8.12232 0.384928 1.26098 0.434058 
62 1 4.75482 8.28785 6.3833 -0.953395 -0.0228174 0.0642747 
63 1 4.12595 4.16192 8.89763 -0.158894 0.0523704 0.494463 
64 1 2.54174 5.09365 5.1866 0.242746 0.587558 -0.850599 
65 1 1.70835 7.97249 2.61979 -0.37248 0.0800989 0.299023 
66 1 3.7416 6.2676 0.430876 0.704791 -0.883709 -1.09497 
67 1 8.40052 2.77797 7.31512 -0.0818061 0.46735 -0.475447 
68 1 4.85856 4.20539 7.4254 0.577681 -0.164768 0.124467 
69 1 9.2856 4.08378 0.614681 -0.294207 0.737732 -0.703409 
70 1 3.55837 2.4263 1.87435 1.14882 -1.02344 -0.024931 
71 1 4.77327 4.96295 6.84607 0.798674 0.226464 0.988658 
72 1 7.74601 1.64348 7.02859 0.499514 -1.12492 -1.69073 
73 1 6.45179 8.07471 1.75325 0.061499 1.16667 -1.1346 
74 1 5.72202 5.21169 3.57242 1.9595 -0.399087 -0.284015 
75 1 6.55036 3.29908 9.03312 0.48186 0.269725 -0.890432 
76 1 6.50923 0.908716 2.90341 -0.385378 0.517337 0.365017 
77 1 2.03899 9.15663 6.19297 -0.774322 0.923432 0.10598 
78 1 3.80416 7.23637 8.36476 0.919974 -0.0831075 -0.169043 
79 1 7.78597 2.51508 6.63493 0.131566 -1.07095 -1.19507 
80 1 5.7 3.86246 7.77131 -0.44 0.0847373 -0.196857 
81 1 5.38881 7.42265 0.137787 1.85181 2.02711 -0.209967 
82 1 5.5788 1.19985 1.45524 -0.0823396 -0.132698 0.591458 
83 1 2.0357 7.44882 4.24317 -0.624494 1.00077 0.547913 
84 1 4.64573 0.876879 1.8099 0.0326173 -1.68282 1.24784 
85 1 3.10451 5.58229 4.59145 -0.608318 -0.179054 0.139607 
86 1 3.99393 4.6409 0.292046 -0.204787 -0.739849 -1.69085 
87 1 1.5016 8.35995 6.02276 1.1943 -0.491766 0.214522 
88 1 7.69408 8.97446 5.41922 -0.684791 -0.00255774 0.355611 
89 1 1.45804 8.79084 6.91481 0.304572 -1.33137 1.9869 
90 1 1.07739 3.0702 6.03246 0.170193 0.428073 1.04286 
91 1 1.89257 2.30613 2.14423 0.358384 0.254513 -0.669908 
92 1 5.7275 1.88473 5.98232 -0.515628 1.10114 0.29816 
93 1 4.17166 4.29579 4.48212 0.0330566 1.15098 -0.34063 
94 1 2.57063 7.06592 5.53322 0.162909 -0.338568 0.947199 
95 1 4.01336 8.54567 1.00335 -0.435019 -0.313129 0.0961342 
96 1 2.80096 0.302037 1.3401 -1.02527 -0.0117612 -0.435329 
97 1 7.80687 8.73645 1.93002 -0.270599 -0.0102252 -0.952907 
98 1 6.84583 6.21604 9.01194 0.763702 -1.04318 0.788476 
99 1 0.756751 4.65404 7.00202 -1.5895 -0.0380508 -0.196411 
100 1 1.96534 0.368272 1.95404 -1.9358 -0.553918 -0.266348 
101 1 8.28486 1.56371 8.65741 -0.933397 -0.809596 -0.73344 
102 1 7.27343 4.19093 7.03845 -0.597388 -0.144796 -0.501044 
103 1 7.26242 4.71743 4.66429 1.61064 0.476815 -0.465867 
104 1 2.9399 3.23437 9.28769 -0.635348 -0.593289 -0.492295 
105 1 7.33589 6.4022 5.58925 -0.152645 -0.560392 0.191558 
106 1 2.55452 0.656321 0.48566 0.0729126 0.891853 -0.25315 
107 1 4.82355 8.22993 3.51492 -0.630527 0.435475 0.0912958 
108 1 5.49684 6.89604 6.19424 -1.18212 0.389806 0.0592346 
109 1 1.88015 3.57753 6.00059 -0.107336 1.28588 -0.166276 
110 1 8.35887 3.93617 4.92146 -0.618719 -0.621798 0.656702 
111 1 7.19673 3.76961 0.114542 -0.507514 -0.00800089 0.648299 
112 1 1.81852 4.93276 4.59389 1.20884 -0.335339 -0.459386 
113 1 5.48637 7.64918 8.61644 0.283605 0.447719 -0.16592 
114 1 3.20553 7.80698 5.64327 -0.514172 0.585957 0.998088 
115 1 4.18561 3.35071 4.70545 1.06163 0.132461 -0.429411 
116 1 6.31389 8.0905 7.22534 2.03441 0.44437 -0.120702 
117 1 7.04848 5.07296 6.65002 0.619731 0.624457 -1.07478 
118 1 4.51895 9.26377 5.80719 -0.390019 -0.47623 1.23884 
119 1 9.03846 0.950213 6.52503 0.0901536 0.522353 -0.365089 
120 1 7.29747 8.14369 1.34006 -0.648963 0.069431 -1.01642 
121 1 4.91131 3.15521 6.2991 0.276571 0.911322 0.902569 
122 1 2.81494 7.07525 3.70525 1.47628 1.71139 -0.299561 
123 1 1.79946 3.56846 5.05139 -0.0150262 0.981487 0.726726 
124 1 4.4978 7.04256 0.552605 -1.10476 1.12695 -1.29681 
125 1 8.25428 3.24442 2.14461 -0.27796 -0.87945 -0.334012 
126 1 5.75248 8.05235 3.24634 -0.0297697 1.38667 -0.229235 
127 1 3.41523 7.25729 7.16489 0.355133 -1.6529 0.479926 
128 1 1.23597 3.20307 8.45159 0.953148 1.05317 0.0623702 
129 1 1.59723 4.25066 6.65127 -1.98916 0.77133 0.617414 
130 1 2.90734 6.99794 0.316736 -0.432795 0.747459 0.126977 
131 1 5.88062 4.23503 4.35405 -0.233105 0.544952 1.19116 
132 1 2.72322 2.11377 6.97315 0.394659 -0.168314 0.713269 
133 1 6.16388 0.0186247 2.74044 -0.194267 1.04245 -0.271329 
134 1 2.15278 0.0330831 2.90865 -0.565163 1.06415 0.410898 
135 1 6.88774 6.46876 0.610488 1.13727 -0.210282 1.28748 
136 1 4.69217 4.46549 1.38673 -0.0337424 -1.20293 -1.26397 
137 1 1.7681 1.89461 1.2779 0.216533 -0.483301 0.0369774 
138 1 3.92594 8.5855 5.14758 0.415337 0.396536 0.952141 
139 1 6.50593 2.57229 5.03202 0.627903 0.395231 0.0104143 
140 1 3.40736 0.571382 3.94344 -0.193865 0.304337 0.17657 
141 1 4.89056 5.03308 0.641779 0.402034 0.260571 -0.00295174 
142 1 1.49384 8.78189 3.17258 -1.08698 -0.89744 -0.0783577 
143 1 1.37677 7.28548 8.68151 -0.181019 -0.803116 -0.910307 
144 1 7.4161 5.48182 4.10046 -0.679487 -0.0379076 -1.14307 
145 1 3.49157 6.92215 5.32098 0.983 0.762187 -0.0562092 
146 1 3.86148 8.62638 6.08797 0.362412 -0.808855 0.504908 
147 1 4.60563 9.2193 4.86744 1.37143 0.406323 -0.960866 
148 1 5.08262 4.79664 3.01389 0.842201 -0.109602 -1.10716 
149 1 4.4595 0.381551 8.31649 -0.413116 -0.277056 -0.656935 
150 1 2.72487 2.28394 4.34922 0.661295 -0.491765 -0.15198 
151 1 1.59021 0.281219 3.66941 -0.320462 -1.39844 0.00834743 
152 1 6.92925 0.192744 9.03287 0.48933 0.623526 0.498864 
153 1 4.53384 6.91475 6.39489 -0.911925 0.20849 0.808343 
154 1 8.3368 8.56893 4.83199 -0.198395 1.05785 -1.33703 
155 1 2.7078 2.92399 8.3891 0.520816 0.421378 -2.60783 
156 1 4.40889 1.92464 3.14694 0.419821 -1.14837 -0.0550606 
157 1 5.7248 7.99393 6.4147 -0.841031 -0.0633331 -1.19779 
158 1 5.76109 0.837614 0.522475 1.07161 0.707748 0.274712 
159 1 5.01967 2.35418 6.78717 -2.40398 -0.932452 1.12406 
160 1 1.45519 6.18927 7.08629 -1.43206 -1.48152 1.43317 
161 1 6.24069 3.44541 6.27796 0.274079 0.447489 0.734638 
162 1 7.6447 5.03362 7.39365 0.361832 -0.946641 -1.1314 
163 1 2.41046 8.32781 4.42765 0.277934 0.862825 -0.0986682 
164 1 1.35239 9.05706 0.377011 -0.0955088 1.51173 0.0692402 
165 1 9.23045 2.5957 9.3899 -0.659906 -0.492213 0.737044 
166 1 4.81498 8.42907 5.39697 0.514389 2.00004 -0.298346 
167 1 0.473772 7.31989 7.19365 -1.57661 -0.12298 -0.719382 
168 1 3.30724 5.32061 0.231457 0.352158 -1.64982 -0.0313239 
169 1 8.68008 0.351162 0.57433 1.03995 0.447799 0.277846 
170 1 2.45278 4.22451 4.71136 -0.293191 0.919274 -0.028432 
171 1 7.1877 4.6814 8.25257 -0.368507 -0.501454 0.162116 
172 1 2.75151 9.22598 2.19607 1.09642 -1.10612 -1.37152 
173 1 2.0728 1.62569 4.72676 0.521671 0.244222 -0.938584 
174 1 0.706456 0.576782 8.13512 0.135049 -0.610785 0.331862 
175 1 7.20048 8.1017 2.3419 -0.157033 -0.336944 0.123973 
176 1 3.59055 2.10474 4.70124 0.700095 -0.824357 1.13243 
177 1 5.0654 8.83767 1.91129 0.982198 -0.0136316 -0.12052 
178 1 0.508817 9.05745 8.36329 -0.166679 0.128206 -0.357271 
179 1 1.20123 6.6306 5.91133 1.84673 -0.562359 0.281807 
180 1 4.99201 2.29139 8.64795 0.21703 1.40398 1.24005 
181 1 4.11831 7.63973 3.1421 0.573173 -0.734947 1.28991 
182 1 0.573983 3.797 8.75203 -0.142244 -0.257902 -0.679136 
183 1 2.74444 9.22124 4.51491 -0.00597611 -0.491227 0.0468703 
184 1 4.64812 5.43955 1.53786 -0.34318 0.473016 -0.620255 
185 1 6.02604 2.57688 6.59299 0.537331 1.63444 1.77455 
186 1 0.832116 1.92356 7.18684 -1.11023 -0.389736 -0.32795 
187 1 6.7377 2.34046 4.1184 -0.501084 -1.13275 -0.364573 
188 1 3.06087 0.350561 2.99113 -0.72104 0.464928 0.935473 
189 1 4.18112 7.79168 5.79434 0.931959 0.2834 0.905844 
190 1 3.87845 8.70219 7.03388 0.750435 -0.850776 -0.0134557 
191 1 5.81453 2.80322 5.67566 0.716671 -0.248035 -0.373406 
192 1 0.51626 8.35768 5.93271 -2.2705 0.224115 0.726055 
193 1 7.92934 8.0165 7.32382 0.550334 1.35354 -0.599945 
194 1 3.06279 4.89096 2.2546 0.156697 0.0707629 -0.521128 
195 1 4.04716 0.61198 0.82752 -0.137584 -0.0756328 0.708251 
196 1 3.68628 2.66936 0.295182 -0.16205 -0.384958 0.48245 
197 1 5.83205 2.583 3.74111 0.638179 0.726092 1.75138 
198 1 8.66983 4.80814 0.681164 0.685198 0.111546 -1.32639 
199 1 4.95156 6.23484 5.81908 -0.287089 0.806415 0.619845 
200 1 2.12302 6.13137 3.10738 2.14066 -0.562874 -0.740851 
201 1 2.3939 8.31806 8.64912 -0.0732974 0.508838 -1.82612 
202 1 3.31362 7.78386 0.675683 -1.17256 1.20484 1.37134 
203 1 6.31607 4.60431 1.25892 -0.507761 -0.612495 -0.959138 
204 1 7.60165 4.54348 9.14477 -0.2234 -0.0546942 -0.115479 
205 1 3.62334 5.05777 3.00049 0.195163 1.03683 -0.09447 
206 1 5.59527 0.989891 3.12759 -1.68476 0.799949 -0.298254 
207 1 3.9874 5.25217 4.55643 -1.51022 0.200614 -0.482497 
208 1 5.58015 1.54382 8.64225 -0.0840184 -1.13546 -0.438899 
209 1 6.68384 0.0181286 0.597623 0.876979 -0.288123 0.15276 
210 1 6.1788 6.89362 0.165914 0.267772 -0.00155171 0.657152 
211 1 3.41628 8.07057 2.6131 -1.34087 0.213021 -0.395519 
212 1 3.01837 6.48573 6.11687 -0.703243 0.068601 -0.901385 
213 1 9.22845 5.94843 8.08519 0.279984 -1.23517 0.112176 
214 1 7.34464 1.75895 6.11268 0.312876 -1.07704 0.638431 
215 1 1.30443 3.60317 7.52675 0.544719 -0.912515 0.0355223 
216 1 7.64929 3.513 1.43797 -0.11997 -0.0877757 -0.876007 
217 1 6.35227 3.21624 4.29802 0.0918105 -1.61065 -0.608482 
218 1 0.949014 0.450497 0.715415 0.503124 -0.777084 -0.0433491 
219 1 4.40199 6.83768 2.76379 1.41891 0.346168 0.734798 
220 1 1.07684 5.16236 7.8021 0.398436 -0.709483 0.235474 
221 1 6.07604 5.61039 1.87384 -0.0341363 0.144892 0.402338 
222 1 7.54529 3.82071 3.23715 0.177606 0.176753 -0.0697899 
223 1 3.24496 4.76427 6.67162 0.00828166 0.216725 0.681693 
224 1 1.8599 3.62823 3.33115 -0.566525 -0.0755521 0.0376603 
225 1 7.9019 3.39974 0.564779 0.381703 0.288184 0.357206 
226 1 6.64617 7.751 3.06288 0.899821 0.390394 0.492375 
227 1 7.57405 8.8791 9.05568 -0.811194 -0.254947 -0.191564 
228 1 3.07503 2.43185 6.12972 0.0971727 0.68764 2.02012 
229 1 5.48517 4.97696 1.48801 -0.33004 0.84388 -0.766665 
230 1 7.36437 1.34968 0.71048 -0.660478 1.47816 -0.0403966 
231 1 2.03058 9.34469 7.41373 0.657133 -0.260574 -0.999979 
232 1 8.27464 8.22982 5.76253 -0.293607 -0.504981 0.319109 
233 1 3.54036 8.98944 2.70848 -0.669517 0.666472 0.0335165 
234 1 5.50374 8.66798 7.05219 1.12964 0.362079 -0.1867 
235 1 4.93774 8.82605 0.943474 -0.116566 -0.541805 -1.2224 
236 1 2.55617 3.16621 6.51568 0.683354 0.413877 1.10808 
237 1 6.47105 0.428071 6.5846 -0.232811 -0.0353319 1.03368 
238 1 4.48162 3.13436 0.639272 0.612897 2.04842 -0.962826 
239 1 1.08407 7.75604 5.4207 0.305019 -0.0097848 -0.787992 
240 1 2.62083 5.74865 2.36341 0.292454 -0.00195782 0.73482 
241 1 1.04288 4.0122 5.82246 -0.602617 -0.496651 0.447361 
242 1 4.06926 3.44288 6.69766 1.01572 1.26329 -0.142331 
243 1 0.151517 3.24127 6.22382 2.15251 -0.311413 -0.343544 
244 1 5.55396 4.07812 1.78276 0.43247 -0.261696 1.5312 
245 1 6.09858 1.90728 7.24194 -0.906498 -0.212345 -0.566217 
246 1 6.02329 0.0449734 9.28817 -1.2875 -0.77482 -0.897138 
247 1 3.31779 0.0593768 0.57204 -0.640299 -0.641079 0.734576 
248 1 6.76008 0.0225939 4.23127 -0.0836922 1.1324 1.12821 
249 1 5.63134 4.71645 7.36828 0.0278912 0.461747 -0.0470089 
250 1 1.64992 4.45711 7.61418 -0.513167 0.541217 0.248902 
251 1 3.95357 1.18887 3.4879 -2.1406 -0.787096 0.455787 
252 1 0.922761 8.0285 6.72783 -0.823448 -0.786213 -1.58167 
253 1 6.47728 6.56763 3.09709 -0.853133 -0.927481 1.63029 
254 1 5.24194 5.46717 2.27494 -0.0176487 0.0823113 0.102888 
255 1 6.71429 0.893293 0.241861 1.17764 -0.0162263 -0.041361 
256 1 3.02809 5.57944 7.45647 -0.416624 0.265796 -0.251578 
257 1 5.0263 2.47399 0.184681 -0.789793 0.139228 -0.349089 
258 1 2.91344 6.19753 5.23333 0.272046 0.77514 -0.0222625 
259 1 0.0310454 5.24546 6.13725 -0.472955 0.531758 -0.00183641 
260 1 2.90793 6.07406 9.238 -0.671287 0.0646121 -0.872058 
261 1 3.46108 1.35351 5.28174 -0.393973 0.461365 0.663406 
262 1 6.20986 1.2628 7.98102 -0.389477 0.173179 -0.79198 
263 1 6.28833 2.40815 1.17165 -0.239064 1.62063 -1.02734 
264 1 4.9996 8.43219 8.27428 0.0810067 -0.508016 -0.14856 
265 1 9.1629 0.307438 8.30492 -0.0480173 -0.200147 0.273959 
266 1 3.07206 1.76345 8.54873 -0.0963632 0.147025 0.839581 
267 1 5.30672 0.179958 4.34918 -0.569173 -0.029428 -0.930607 
268 1 2.10208 2.34466 6.21389 -0.233534 -0.736068 -0.209468 
269 1 4.35873 1.67903 6.35214 0.231652 -0.420498 -0.23328 
270 1 3.69845 3.06431 1.16799 -0.922313 1.12243 -0.326368 
271 1 6.00222 3.49101 1.11107 0.0281099 -1.1753 -0.29661 
272 1 6.71615 5.69098 5.4778 0.430282 -0.658411 0.0884146 
273 1 6.16603 1.68387 3.62533 0.549401 -0.776769 -0.169333 
274 1 6.99146 9.29587 5.97934 -0.477515 -0.33219 -0.566237 
275 1 1.70283 2.31392 8.52984 -0.297846 -0.397498 0.545504 
276 1 7.54286 5.92172 1.06039 -0.738031 -0.84821 0.596197 
277 1 3.5272 3.69655 3.44323 1.25461 -0.953254 -0.297664 
278 1 0.861186 1.91027 8.82611 0.0564762 0.537465 1.43399 
279 1 1.30293 9.06975 1.38878 0.697378 0.696541 -0.221065 
280 1 1.80369 8.34579 0.835349 0.95379 0.555272 0.0810431 
281 1 5.22203 1.43421 2.3483 -0.429843 0.0162346 -2.25487 
282 1 8.48341 3.91487 1.16223 0.0183495 -1.04458 -0.272841 
283 1 8.52462 0.162776 7.53748 -0.589536 -1.05867 -0.411828 
284 1 4.06485 7.52904 2.14711 -0.42451 -0.986176 0.0248962 
285 1 5.10432 7.35706 3.14832 -0.541576 1.57198 1.20809 
286 1 6.85775 6.31791 1.63242 -0.626671 -0.456928 -0.874191 
287 1 5.27745 1.94665 5.09793 -0.342571 -0.953935 0.414891 
288 1 0.46041 3.32379 7.86168 -0.800485 0.0579416 0.39894 
289 1 3.64971 0.993144 2.59755 -0.404571 0.536896 0.909099 
290 1 2.68726 7.83822 7.33635 0.742147 0.0310743 -0.246619 
291 1 5.81276 0.104545 7.50742 0.498063 -0.539991 0.679412 
292 1 3.93245 5.28617 7.17895 -0.949135 0.060345 0.119783 
293 1 5.05585 7.52689 6.90287 -0.452151 0.416606 -0.25824 
294 1 3.05239 0.795126 8.54213 1.08542 -0.52461 -0.0055767 
295 1 5.28737 6.34454 1.72949 1.28073 0.292064 0.927704 
296 1 3.77746 5.07464 8.8431 0.117377 1.45692 0.964102 
297 1 3.32366 6.59726 4.37092 -1.67239 -0.0211261 0.845478 
298 1 2.87544 3.09799 1.61732 0.379446 0.533288 -0.232673 
299 1 8.11806 7.12652 6.97713 -1.50348 -0.072872 0.146755 
300 1 4.38981 0.527492 4.12786 -0.483008 -1.05415 0.331593 
301 1 8.57425 7.87464 6.63921 0.199831 0.25184 0.0726567 
302 1 5.62718 8.29729 1.31974 0.133526 0.629021 -0.545576 
303 1 6.59569 2.73011 7.482 -0.268058 0.494005 0.652892 
304 1 3.5994 0.00520029 5.50561 -0.35576 0.0155028 1.34479 
305 1 3.93631 6.2461 5.92124 0.157304 -0.291629 -0.23945 
306 1 1.56192 5.1883 6.99528 -0.061146 0.870026 0.39786 
307 1 2.51294 5.27122 0.728735 0.35664 -1.1078 -0.221053 
308 1 5.336 0.266132 1.52696 -1.38001 0.16646 -0.409818 
309 1 1.9064 4.41635 5.50335 1.05407 -0.484917 0.598503 
310 1 6.24565 7.77668 9.24534 1.15871 -0.0777582 0.407564 
311 1 5.81694 1.15152 5.21285 -0.108481 0.619126 -0.0422049 
312 1 2.01293 7.43471 0.52061 0.283101 1.38069 0.619122 
313 1 4.87796 2.8189 4.17515 0.952015 -1.22761 0.37488 
314 1 2.01432 2.74577 3.0165 -2.00538 -0.582585 2.04763 
315 1 5.56789 0.154886 6.63699 0.598196 -0.0785121 -0.0482431 
316 1 6.67899 0.818826 5.74038 -0.545952 -0.740285 0.342437 
317 1 5.60433 8.03379 2.22328 -0.509431 1.15681 -0.520177 
318 1 0.00896548 0.588058 7.42611 -0.581402 -1.60641 -2.36839 
319 1 8.23903 4.39001 6.98193 -0.672897 0.464038 0.474862 
320 1 5.43738 7.77789 4.10638 0.0434995 -0.610805 -0.905314 
321 1 2.51069 8.70092 6.90929 -1.08829 0.150975 0.189191 
322 1 5.25694 6.84566 4.30517 0.192069 1.24892 2.03537 
323 1 5.35923 1.51834 7.67377 0.0616534 0.68952 0.293547 
324 1 2.93248 3.74696 7.87383 1.27243 0.667103 -0.1435 
325 1 4.26147 8.22374 4.30305 -0.160113 0.736739 -0.205697 
326 1 4.08601 2.55821 6.41424 -0.77349 -0.813556 0.0888895 
327 1 9.15782 6.9937 8.26718 0.425488 -0.741761 0.0986492 
328 1 8.33663 5.33988 6.65653 0.000173039 0.648865 0.831718 
329 1 0.419738 3.37123 0.168668 -1.64165 0.587249 -1.59824 
330 1 2.59371 2.99434 3.74105 0.725284 -0.888619 0.444798 
331 1 6.32053 8.86319 6.57423 0.274554 -0.480348 1.21795 
332 1 5.54618 4.57879 6.4238 0.0731088 0.577867 0.0827306 
333 1 3.34411 8.39968 4.40339 -0.375204 0.673792 0.719233 
334 1 0.0725882 4.0185 7.2671 0.776582 -0.000104054 -0.150459 
335 1 2.47402 1.43211 6.33532 0.170074 0.537352 -0.744588 
336 1 1.64325 4.48594 1.66076 0.284277 -0.0878226 0.221475 
337 1 2.79084 0.785747 2.18713 -0.980747 0.361854 1.34608 
338 1 7.62521 5.80094 7.95472 0.193963 0.121158 0.177872 
339 1 1.92334 7.93832 6.77821 0.607351 -0.595397 0.4717 
340 1 4.40203 0.653824 9.31967 -0.088485 0.0539468 -0.265925 
341 1 4.44319 2.48263 4.9424 1.3133 1.1818 -0.272552 
342 1 9.30366 1.97644 8.62432 0.151276 0.774946 -0.938007 
343 1 3.82693 6.43308 6.84851 -0.308487 -0.501381 -1.30125 
344 1 0.819727 3.70996 6.72985 0.509464 -1.0256 0.0386263 
345 1 2.54809 7.86601 1.21502 -0.110566 0.360963 -1.92212 
346 1 1.7687 1.21018 0.632124 -0.330442 -0.249493 0.33949 
347 1 3.17145 0.974607 6.93411 0.00836276 -0.871375 -0.00948615 
348 1 4.49765 9.04094 3.8936 0.427439 0.764971 0.245918 
349 1 5.04061 5.6815 4.1193 -1.57451 0.14472 -0.802501 
350 1 1.75296 1.61296 5.67974 0.271872 -0.460527 -0.424648 
351 1 6.23593 0.519163 1.30543 1.00781 0.666677 1.24427 
352 1 3.62334 7.17232 6.23538 -0.82149 1.06208 -0.456943 
353 1 0.831897 0.289795 9.07331 -0.34457 -0.691369 -0.938068 
354 1 6.77284 0.487244 2.08427 0.0664989 1.50054 -0.349958 
355 1 0.991615 1.16633 0.0934351 -0.51749 -0.740962 -0.208504 
356 1 2.20356 0.632336 4.64178 -0.2141 -0.650292 -0.0656187 
357 1 7.13258 8.01478 8.90332 -0.682231 -0.0499255 0.650019 
358 1 2.52301 1.2675 9.18481 0.00228655 0.443975 -0.151368 
359 1 6.70051 3.0777 0.56526 -0.837393 -0.230226 0.279957 
360 1 2.66291 6.09979 3.8927 -0.14448 -0.0341189 -0.443581 
361 1 8.38653 4.11914 8.58572 -0.0912827 -0.0778932 -1.74406 
362 1 3.59228 5.68759 2.27187 0.617936 -0.295305 1.31817 
363 1 6.80733 1.99621 8.0563 0.00825857 1.05601 -1.21571 
364 1 0.448106 2.6386 0.753406 1.0848 1.41054 0.578831 
365 1 0.327379 1.10761 8.81139 0.350402 -0.234553 -0.991535 
366 1 6.1208 0.309862 4.86107 -0.998678 1.09709 -0.0314817 
367 1 4.57477 3.95839 5.48992 -1.58039 0.793195 0.380765 
368 1 4.72653 4.24733 2.32545 -0.419716 0.403213 0.417387 
369 1 2.38207 2.15242 7.87395 0.302294 -0.225209 -0.688804 
370 1 6.6124 8.67704 9.38061 -0.530604 0.0378593 0.194162 
371 1 1.72011 1.74041 9.25339 0.349913 1.45481 0.354752 
372 1 3.28537 4.65624 4.78789 -0.253037 1.07369 -0.202349 
373 1 3.32065 5.69532 6.53006 0.361641 -0.240217 0.45285 
374 1 6.67461 4.06542 2.85632 -0.528573 -0.545729 -0.0465573 
375 1 5.74717 2.0662 1.84651 0.724547 0.838398 0.185317 
376 1 2.79011 2.05824 5.2893 0.587875 0.828947 0.19941 
377 1 5.91882 0.964352 7.11948 -0.182356 -0.442529 0.453299 
378 1 4.75619 8.06617 2.59385 1.06071 -0.289882 0.256581 
379 1 7.55695 3.89229 4.24997 -0.177218 -0.739081 0.811045 
380 1 3.01988 1.24171 3.34416 -0.809248 -1.60078 1.043 
381 1 0.625178 7.58658 8.1022 -0.424888 -0.493112 -0.467729 
382 1 9.27057 3.10314 7.13074 -0.772215 -0.209428 -1.73252 
383 1 2.50394 4.94495 9.15702 0.130206 0.794864 -0.572893 
384 1 6.81284 7.23722 1.26265 -0.676214 0.576835 0.45986 
385 1 9.14636 8.58423 5.35603 -1.07314 0.881994 -0.410327 
386 1 2.56396 4.07256 2.24378 0.842545 -0.6362 0.181638 
387 1 0.251742 1.765 0.169185 -0.668934 1.58741 -1.30634 
388 1 4.99588 5.7089 3.15458 -1.03585 -0.738329 1.55075 
389 1 7.09201 1.94244 1.38714 0.474215 0.449834 0.870295 
390 1 6.33009 8.49355 2.5974 0.0214941 0.833856 -0.632693 
391 1 2.95857 6.13471 8.24789 0.104388 -0.398034 0.702982 
392 1 4.09338 4.63449 8.03656 -0.0762562 0.520216 1.1729 
393 1 7.44058 0.762678 2.76223 0.582319 -0.592914 -1.14738 
394 1 6.80106 6.41642 8.07248 0.0487024 -0.351211 0.162831 
395 1 2.37592 1.15546 1.39292 -1.33002 0.0328181 -0.168916 
396 1 6.079 0.0557413 5.78445 1.06553 -1.01366 0.837924 
397 1 2.10846 3.24333 2.19199 0.774144 -0.809036 -0.0698904 
398 1 3.98001 3.97851 1.00684 -0.982966 0.0478409 0.234725 
399 1 8.69725 4.60424 6.06856 -0.430875 0.674986 -0.170954 
400 1 4.83589 5.16793 7.81288 0.935011 1.44766 -1.09405 
401 1 4.17636 3.62693 1.8624 1.08487 0.747093 1.44332 
402 1 3.12108 5.42808 1.459 -0.178803 0.374666 -0.356802 
403 1 4.08706 5.94012 3.08142 -0.254856 0.336389 1.13985 
404 1 9.27304 5.71242 7.01955 2.06244 -0.305544 0.281419 
405 1 6.74209 2.52476 5.97619 -1.85843 -1.34574 0.490876 
406 1 0.910521 5.27281 4.80792 1.41699 -0.212829 -0.160977 
407 1 3.19199 9.08057 3.6634 1.47414 1.14252 0.983491 
408 1 3.86705 1.23473 8.78021 0.553609 0.0191112 -1.09765 
409 1 2.69517 5.3264 3.20549 -0.347661 -1.11202 -1.09429 
410 1 5.96185 2.56496 0.320789 0.761059 -0.211222 -0.157337 
411 1 6.02191 6.0425 8.59926 -0.809787 0.758894 -1.14325 
412 1 3.04331 3.66629 0.783183 -1.04924 -0.440068 0.888093 
413 1 8.84184 3.2711 0.49857 0.396539 0.324008 1.41226 
414 1 1.95051 2.55526 4.88859 0.748605 0.206013 0.786004 
415 1 6.69866 3.9828 3.82048 0.466701 1.01687 0.626072 
416 1 6.46458 8.5242 0.919369 1.42227 0.343138 0.66223 
417 1 9.25273 3.99694 8.20258 -0.251441 0.695204 -0.341739 
418 1 1.12136 1.99572 0.572422 0.520573 -0.616813 0.0287897 
419 1 8.50278 5.52565 7.59937 -0.548459 -1.56147 0.506775 
420 1 2.20596 5.77655 8.6546 -0.242621 -0.191307 -1.71724 
421 1 3.70581 0.118443 8.95942 0.626812 0.626683 0.53182 
422 1 2.97419 8.05502 3.60173 -0.803379 -0.156318 -0.95957 
423 1 7.57767 3.05019 5.86153 -0.365084 -0.696689 -0.187799 
424 1 0.139694 0.751226 0.266601 0.548946 1.09816 0.73351 
425 1 3.50281 1.9961 3.75837 0.122633 -0.847003 -0.515083 
426 1 4.20127 6.87872 4.54781 -0.577608 0.72228 -0.919671 
427 1 1.74512 9.13837 4.48612 0.0344881 -0.213938 0.133115 
428 1 4.58051 0.948584 2.82606 0.107915 -1.10226 0.0183602 
429 1 8.1137 3.30585 9.05765 -1.80114 0.0952309 -0.405754 
430 1 8.42786 6.47343 7.87813 -1.07089 -0.619172 -0.443967 
431 1 6.49365 6.79207 6.13722 -0.194648 -0.643361 -0.998375 
432 1 5.44694 5.26228 8.59156 -1.04184 0.66742 -1.34285 
433 1 5.15209 6.58926 7.07728 1.85554 -0.194204 1.72334 
434 1 3.19321 0.572248 4.86669 0.135777 -0.617892 0.390749 
435 1 6.58884 5.672 4.55551 0.0860403 -0.465217 -1.04356 
436 1 6.56193 1.7255 5.49193 1.01441 1.40327 -0.924369 
437 1 2.95389 6.33578 1.72962 0.977731 0.51958 1.35554 
438 1 4.79012 6.52851 3.56414 -0.454817 0.206562 0.104767 
439 1 7.54873 6.67322 7.56675 -1.25623 -0.23819 -0.328311 
440 1 7.32326 4.36954 1.68667 0.426077 0.894373 -0.432396 
441 1 1.60133 5.02367 0.852566 0.638246 0.785832 0.411124 
442 1 7.48003 5.40776 1.98321 0.199816 0.253171 0.637257 
443 1 6.26092 0.129092 8.32212 -0.157291 0.631824 0.10524 
444 1 4.37495 3.01291 9.10162 -0.281457 -0.502864 -0.342008 
445 1 3.66089 6.50646 7.77589 -0.379388 -0.627393 -0.493831 
446 1 6.44317 5.69737 1.03296 1.32523 0.494305 -1.31649 
447 1 7.455 1.25415 5.312 -0.225609 -0.245981 0.309521 
448 1 8.53882 9.26022 5.86971 -0.269388 -0.130878 -0.292671 
449 1 4.82355 2.32822 5.82216 -0.382992 -1.91728 0.0995095 
450 1 2.11733 7.38576 1.96238 -0.892563 -0.240361 0.341644 
451 1 4.38007 2.20646 0.816569 1.01116 -0.242809 -1.25533 
452 1 7.17057 0.583802 1.20276 0.0420075 -0.712996 0.488577 
453 1 5.37578 6.68854 8.87205 -0.901868 -0.833889 -0.904547 
454 1 3.46238 2.89546 4.1712 -0.0354389 0.0999263 0.649913 
455 1 5.10515 0.240561 2.45985 -0.862654 0.846944 -1.03973 
456 1 3.84691 0.989652 7.82481 0.570174 0.963016 -1.55265 
457 1 4.72285 4.08729 6.46415 0.961742 1.82155 -0.36439 
458 1 7.93142 3.48074 6.78631 -0.823998 0.71272 -1.39429 
459 1 0.612431 3.67828 1.0634 0.288256 0.507 0.830532 
460 1 6.42114 3.62124 7.19608 -0.321011 -0.450392 -0.573881 
461 1 7.42264 4.61536 2.62572 -0.60287 0.175077 -0.315923 
462 1 5.6983 6.20607 3.65581 1.72914 0.0696993 -0.325553 
463 1 2.43614 0.449418 6.74025 1.50561 0.26282 -0.952593 
464 1 3.78297 5.58958 8.05246 -0.683677 -0.486384 -0.626989 
465 1 3.62299 3.86043 5.28388 -0.236024 0.374809 0.668801 
466 1 6.96095 0.110715 3.29161 -0.819184 0.345239 1.43921 
467 1 5.42346 6.87146 5.24247 0.849934 -0.757849 -1.66742 
468 1 6.82267 5.70621 7.37967 0.934212 -2.01739 -1.96758 
469 1 8.95399 1.28523 0.820843 -0.103818 0.52074 0.787457 
470 1 1.38033 8.24904 8.37216 -0.108388 -0.201029 0.556193 
471 1 2.22242 3.80191 7.20697 -0.279758 0.30835 -1.84934 
472 1 2.90664 6.12864 0.804737 0.482846 1.3147 0.919814 
473 1 8.14515 0.351434 6.68949 0.0146132 -0.975654 0.0432108 
474 1 6.70074 0.911701 3.82416 -0.206826 -0.219075 -1.15959 
475 1 9.38847 8.15465 7.09867 1.31639 -0.16188 -0.518498 
476 1 5.82496 2.66307 2.74807 -0.152235 0.298937 -0.387002 
477 1 1.56967 0.200377 5.30971 -0.391742 0.749441 -0.0883522 
478 1 0.878975 2.42652 8.00436 -0.392687 -1.3068 -0.519525 
479 1 1.11692 2.69643 9.28278 0.524513 1.30819 0.194922 
480 1 1.53624 5.13423 8.62373 0.627807 0.272789 -0.405243 
481 1 4.96483 3.55882 1.29907 0.0385875 0.248165 0.415577 
482 1 8.59487 3.68021 7.52649 -0.912408 1.4586 0.345392 
483 1 4.97086 1.52387 9.3768 -0.137136 0.62894 -0.79598 
484 1 5.06652 7.20966 2.16564 0.58447 -0.89909 0.492209 
485 1 6.26101 7.00464 8.62935 -1.37049 -0.235517 0.577783 
486 1 4.61947 7.32688 8.97391 -1.03943 -0.879724 -0.725895 
487 1 4.50252 6.08134 2.22078 -1.1205 0.334337 -0.196078 
488 1 3.36232 2.92217 5.1643 0.452951 0.417799 -0.179666 
489 1 4.52544 6.62683 8.29718 0.531988 -0.766335 -1.01146 
490 1 5.10252 8.55463 4.46401 -0.890955 -1.65888 0.160633 
491 1 0.36611 2.84234 8.67893 -0.790547 -0.964265 0.544155 
492 1 8.39048 5.82707 8.59998 0.36359 -0.223042 0.27005 
493 1 4.85888 4.80466 5.83146 1.09361 -0.634669 0.146905 
494 1 4.16173 2.54989 7.33041 1.02256 -0.0899723 -0.365578 
495 1 7.05269 2.92628 8.32161 0.487838 0.440096 -0.186189 
496 1 1.37412 3.51375 1.6338 -0.289964 0.65621 0.71637 
497 1 8.85045 3.79788 6.58168 0.0866342 0.272004 -0.71701 
498 1 4.93003 8.20442 9.19307 -1.13585 0.37978 -0.278127 
499 1 8.1182 1.86996 0.925508 1.57689 0.747284 0.0431206 
500 1 0.640808 5.98305 7.55324 -0.781816 -0.515571 0.630064 
501 1 1.87967 2.26763 3.90197 -0.324732 0.605719 1.04751 
502 1 1.50558 1.33388 6.59849 0.405931 0.0995342 0.140276 
503 1 6.61393 3.16955 2.50121 0.495619 0.662945 0.0581785 
504 1 4.8357 1.21218 0.869341 -0.154979 -1.39769 1.16284 
505 1 5.33361 9.2865 8.53711 0.234191 -0.776187 -0.436936 
506 1 1.86484 5.57924 0.100183 0.732843 -0.593354 -0.374582 