ITEM: TIMESTEP
1007
ITEM: NUMBER OF ATOMS
1000
ITEM: BOX BOUNDS pp pp pp
0.0000000000000000e+00 9.4000000000000004e+00
0.0000000000000000e+00 9.4000000000000004e+00
0.0000000000000000e+00 9.4000000000000004e+00
ITEM: ATOMS id type x y z vx vy vz 
1 1 0.587688 6.78428 7.50085 0.980294 -0.597595 0.793367 
2 1 5.8788 3.69006 2.98825 1.23512 0.186612 0.034131 
3 1 3.62835 7.25381 9.32271 -0.979886 0.613379 -0.545143 
4 1 4.17355 2.7397 7.51586 0.363768 -0.475523 -0.575123 
5 1 2.29011 3.11315 0.97791 0.576359 -0.318151 -1.45498 
6 1 8.82863 0.883338 8.30568 -0.296869 -1.28222 -0.139111 
7 1 8.08286 3.06327 0.190949 0.194033 -0.204999 -0.573897 
8 1 8.31108 4.58676 6.13885 0.425451 0.429801 -1.90471 
9 1 2.70609 4.56818 0.22101 -0.143739 -0.230864 -0.510271 
10 1 2.49388 6.70406 8.57769 0.222343 -0.133649 -0.804823 
11 1 5.19151 3.3837 1.76114 -0.638169 -1.04613 -0.465596 
12 1 8.91129 5.66164 7.17051 -0.744125 0.12326 -0.574613 
13 1 0.0849691 9.36821 4.85424 0.305434 -1.41141 -0.511617 
14 1 0.14146 0.887165 4.40806 -0.235461 -0.486141 1.55059 
15 1 7.60342 4.10473 9.2999 0.412569 -0.175896 -0.832319 
16 1 6.97332 5.11533 3.00461 -0.293749 1.1782 -0.650544 
17 1 6.68315 1.53362 1.615 0.722874 0.735155 -0.990584 
18 1 3.31214 6.3972 8.96235 1.34882 -0.921867 0.90238 
19 1 5.53339 4.15322 2.24661 0.0960948 0.00225864 0.0186848 
20 1 8.35465 5.43853 3.70366 0.911316 -0.0122105 0.34863 
21 1 3.10419 6.63145 5.2756 1.16145 -0.366605 -0.0491418 
22 1 1.39222 1.46075 0.97318 0.0660613 0.198975 0.327021 
23 1 2.60624 2.84913 8.79177 0.32723 -0.258408 -0.819924 
24 1 2.63092 8.2456 5.24061 -0.262941 -0.503722 0.286283 
25 1 9.35119 0.877473 2.34088 0.237332 -0.32491 0.346237 
26 1 3.40452 2.24295 4.57183 1.01288 0.496265 -1.06857 
27 1 8.98304 3.63193 3.7115 0.0603802 1.41767 0.372774 
28 1 0.129804 6.91473 8.35644 1.15947 -0.0735191 0.0831085 
29 1 7.99432 0.415398 1.39361 -0.0892701 0.0804383 -0.601015 
30 1 4.62399 1.49748 8.5279 0.546901 -0.701938 -0.243635 
31 1 4.82333 4.82668 5.89774 0.915736 -1.10777 -0.489238 
32 1 5.71653 0.787039 7.14585 0.8942 0.672559 0.591054 
33 1 6.02428 4.54126 4.71762 -0.335871 0.477259 1.0666 
34 1 6.76211 0.0575427 8.41024 -0.47496 0.179322 -0.408854 
35 1 2.41577 6.80111 7.5632 -0.145514 0.42383 -1.08965 
36 1 6.75451 5.76921 2.33485 0.0918526 -0.117396 -0.957488 
37 1 8.27879 1.64391 8.64539 0.764044 0.877763 -0.607058 
38 1 3.31733 6.26248 1.93219 -0.0910984 -0.310897 -2.44554 
39 1 2.56996 3.18837 4.06726 0.0476818 -0.500742 -0.0469849 
40 1 8.50897 2.95638 1.94599 0.0701567 -0.271452 -0.0413697 
41 1 1.13299 2.96109 2.53359 0.498258 -0.405599 -0.387661 
42 1 8.78405 8.87867 4.44177 0.470732 -0.95585 -0.117671 
43 1 8.09066 0.348566 6.8983 0.814559 0.47737 0.231102 
44 1 0.126788 1.7999 4.17256 1.24754 -0.454526 1.05406 
45 1 6.46147 8.27515 5.95326 -0.314072 -0.836232 0.749056 
46 1 8.90163 3.33477 2.74874 -0.103949 0.106625 -1.72276 
47 1 0.070435 4.41232 3.57434 0.611153 0.390752 -0.121307 
48 1 8.62474 2.14536 4.25463 -1.57798 1.10911 0.0885726 
49 1 2.9349 1.86117 6.2553 -0.708157 -0.111148 0.319893 
50 1 5.66995 2.90924 5.41017 -0.249238 -0.00628994 -0.356304 
51 1 3.72283 3.50824 7.29584 -0.120897 -0.698254 1.62578 
52 1 6.22948 0.949326 1.0227 -0.0215761 -0.0991533 -0.191211 
53 1 1.25911 2.61497 7.10762 -0.465038 0.201452 -0.356367 
54 1 0.430867 8.44433 0.055546 -0.475429 -1.11461 -0.421312 
55 1 4.18665 5.95747 1.64993 -0.328029 1.59686 -0.577892 
56 1 2.13833 2.21786 5.74494 -1.10628 2.05469 -0.142748 
57 1 4.66092 2.55623 5.87977 0.20806 1.1705 -1.40769 
58 1 1.87307 5.17743 4.30082 0.203772 0.729296 -0.580194 
59 1 2.75364 6.35427 1.15123 1.42781 0.136039 -0.89438 
60 1 0.463453 8.89413 5.62482 1.40046 0.376376 -0.71124 
61 1 9.04759 2.12198 5.98813 0.172949 -0.639061 0.0994258 
62 1 3.83658 7.46962 7.74277 0.224978 -0.751237 0.518669 
63 1 1.36109 4.60921 5.56636 1.11173 -0.596821 0.540625 
64 1 7.31684 8.38359 0.219912 1.36794 0.41116 0.12016 
65 1 7.4714 5.49716 0.608477 -0.498512 -0.00103144 0.225252 
66 1 5.93122 8.87145 3.89669 -0.889233 0.779055 -0.170803 
67 1 3.89754 2.68006 5.26059 0.620257 -0.102883 0.827662 
68 1 1.42293 4.41647 0.308067 0.0937866 1.14276 -0.459582 
69 1 0.299441 5.37481 6.65569 0.470631 -0.85719 0.0786035 
70 1 1.25861 5.30092 8.92077 0.909863 -1.20158 0.853865 
71 1 6.43085 4.33485 5.72543 -1.24153 0.98404 0.410673 
72 1 2.84448 8.05272 6.35486 0.0471494 -0.610626 1.37797 
73 1 0.861478 4.58569 6.35268 -0.629707 0.559047 0.732785 
74 1 2.28851 8.85715 6.5357 0.623482 -0.118505 -0.407852 
75 1 4.28763 9.18538 6.82809 0.225288 -1.00029 0.172919 
76 1 6.19677 8.63931 8.44725 0.132261 -1.13358 -1.01874 
77 1 4.48469 4.08805 6.36266 -1.16062 -0.0495983 -0.268449 
78 1 2.1312 5.02424 5.86376 -0.173948 -0.0251446 0.986831 
79 1 4.99108 1.51114 0.0335534 -0.527643 0.92735 0.0612348 
80 1 6.89337 0.921664 8.00517 0.455374 -0.614559 1.11898 
81 1 3.57195 1.76077 0.742822 0.948607 0.67677 -0.93677 
82 1 1.95911 2.84471 0.101501 0.618568 0.591559 -0.683584 
83 1 7.42865 3.78902 5.12004 1.14018 0.653472 0.092502 
84 1 5.09605 8.86227 5.47415 0.0882289 -0.0623267 -2.21773 
85 1 0.533302 1.80045 0.747077 0.297749 0.547507 -0.557498 
86 1 5.47459 5.14402 7.50165 0.354768 0.242033 1.84503 
87 1 7.41499 0.195223 7.62133 1.24914 0.748398 -0.181137 
88 1 5.63935 8.3998 9.24294 -0.298248 -1.72371 -0.157102 
89 1 6.03358 5.91934 6.21236 0.716309 -0.903222 -0.633921 
90 1 7.61858 4.54417 6.74708 -0.425997 1.18078 -0.250128 
91 1 8.46441 2.93579 6.0046 -0.61133 0.713735 -0.105336 
92 1 1.32696 8.8412 6.1651 0.214265 -0.718015 -0.0214813 
93 1 5.47627 2.0699 2.94829 -0.274412 0.757793 -0.424212 
94 1 2.728 1.87287 7.19098 1.04607 0.221585 0.800899 
95 1 4.98141 3.07878 0.844745 -0.0664081 -2.11243 -0.141691 
96 1 0.202334 8.4936 7.55953 -0.248007 -0.261417 0.434695 
97 1 7.22565 7.02594 1.3323 1.46201 -0.0286962 0.135904 
98 1 2.33076 2.76406 4.95056 -1.01344 -1.27384 -0.191486 
99 1 8.87832 4.95752 5.45943 -0.662535 -0.352507 -0.184323 
100 1 3.74987 2.39615 6.18529 -0.0338245 -0.0435887 -0.055914 
101 1 8.74131 5.84971 2.55867 -1.20835 1.67227 0.245148 
102 1 7.706 1.29909 1.80643 -0.126577 0.540619 0.161062 
103 1 5.18335 1.23728 7.7578 -2.1432 0.915674 -0.199789 
104 1 4.61514 2.37849 0.303737 -0.0531636 1.76535 -0.342398 
105 1 7.04566 2.72719 7.23817 -0.744451 -0.591599 0.560597 
106 1 0.539247 5.27573 8.28076 -1.52155 -0.440976 0.795785 
107 1 6.36735 3.49423 7.04266 0.298559 0.825414 -0.653925 
108 1 4.26497 7.64704 6.18907 0.780899 -0.560964 -0.108883 
109 1 8.74161 7.82215 5.94053 -0.297277 0.37954 0.162964 
110 1 3.16508 1.65413 3.83533 0.558206 -0.38659 -1.17972 
111 1 3.51658 3.15259 8.90981 -0.757523 0.597635 0.83941 
112 1 7.60936 2.8625 6.45289 0.0134849 -0.579963 0.730719 
113 1 6.38616 0.192017 7.48967 -0.488537 -0.25798 1.77789 
114 1 4.98307 1.80097 4.33293 -0.393407 0.185458 -0.803937 
115 1 5.66279 4.35634 6.38129 -0.00787705 -0.324047 -1.67752 
116 1 8.11349 2.15126 0.494426 0.712745 -0.123653 1.80123 
117 1 3.50791 4.88475 0.622718 0.989001 -0.336656 0.385749 
118 1 5.57377 2.70036 6.38875 -0.0656727 -0.618966 0.947872 
119 1 5.23396 2.06869 5.24845 0.971923 -0.234817 -0.600866 
120 1 4.40467 3.16766 6.65788 -0.0285447 -0.0810694 -1.14512 
121 1 4.96659 8.61327 7.26676 0.796244 -1.67709 0.445239 
122 1 6.05988 2.6189 7.31946 -0.330725 0.582472 1.42254 
123 1 7.70328 1.4523 0.00810954 -0.304205 -1.78538 0.0364705 
124 1 9.21154 3.1319 5.44868 0.13661 1.20664 1.57281 
125 1 4.09243 9.32847 0.159608 -1.00307 0.84676 -0.881233 
126 1 1.39615 2.4514 5.11962 1.09583 -0.342618 0.667623 
127 1 5.98511 8.52981 5.13769 -0.119958 -1.22908 0.966221 
128 1 0.429674 1.84694 7.77163 0.0411907 0.992164 -0.0346574 
129 1 7.43012 0.497546 2.26174 -0.884227 -0.504455 0.383799 
130 1 1.22864 9.32494 5.25877 -0.070948 -0.954531 0.453667 
131 1 6.80378 1.60208 5.27511 1.19627 1.5222 -0.346785 
132 1 5.40569 0.70888 4.8271 0.706786 0.509926 -0.473227 
133 1 3.35774 5.05496 5.11925 -0.812862 -0.203537 1.1939 
134 1 5.3476 1.24845 0.926296 -1.1493 -1.13741 -0.280361 
135 1 6.84458 5.83865 9.38707 0.784148 -0.40744 0.260957 
136 1 1.13797 8.20277 5.46982 -0.763441 0.949921 0.478202 
137 1 3.60041 5.52612 9.26286 -0.314237 -1.02395 0.128036 
138 1 3.77028 1.34245 3.20768 0.117699 -0.211534 0.00958072 
139 1 8.73594 4.1044 4.50676 -0.215285 0.373014 -1.96613 
140 1 0.773889 6.04966 9.35038 0.512932 1.03157 1.25211 
141 1 4.21392 0.215325 1.09974 -1.344 -1.25293 -0.450888 
142 1 1.33573 6.38446 5.8931 -0.024615 0.253749 -0.00583229 
143 1 8.88878 8.18854 9.22698 -0.474378 0.0577598 0.0774439 
144 1 9.21939 4.08227 5.29421 -0.510909 0.44948 -0.676195 
145 1 2.34551 5.10681 3.38281 1.16625 -0.714672 1.02861 
146 1 3.87415 0.765856 3.95903 0.504321 0.446414 -0.857861 
147 1 4.50779 4.74402 3.66993 -0.78407 -0.815802 -0.0157769 
148 1 1.31691 3.67379 5.89279 1.27514 0.534589 -0.134634 
149 1 8.46862 4.33647 8.89155 -0.0301865 -1.10795 0.0309682 
150 1 4.00103 7.82119 8.63637 -0.697384 0.47099 -0.915835 
151 1 1.70178 6.06627 0.16254 0.761361 0.498654 -0.295579 
152 1 1.68104 5.65989 5.26637 1.67923 0.0859747 1.29673 
153 1 0.422894 6.5489 5.83899 1.05507 1.06483 -0.293714 
154 1 4.15698 1.12469 7.78133 0.10206 -0.553913 -1.25307 
155 1 4.28161 8.65055 0.893526 0.498919 0.991899 0.113331 
156 1 1.72558 3.61735 4.06331 -0.213153 -0.652158 0.572567 
157 1 9.15728 3.22831 0.452741 0.364097 0.10857 -0.607437 
158 1 7.62708 7.55407 8.00316 0.847425 0.453873 0.198297 
159 1 8.34703 3.41545 5.17465 1.50878 -0.201039 0.883817 
160 1 2.91408 0.696385 3.96538 -0.26509 0.292891 1.75094 
161 1 3.74679 7.77144 1.04829 -0.602672 0.616388 0.59601 
162 1 1.14004 7.87929 6.39801 -0.148964 -0.639539 0.866719 
163 1 4.95612 3.78985 0.140806 -1.32019 -0.22719 0.0772021 
164 1 3.48431 6.27178 0.509575 -1.2675 -0.357267 0.0527869 
165 1 4.12199 3.94469 3.95004 -1.04216 -0.640009 0.0333941 
166 1 2.14633 4.09177 5.59581 -0.809459 -0.0394599 -0.145529 
167 1 9.05752 2.29059 1.5083 -0.420654 0.94208 0.692082 
168 1 0.581801 0.662328 5.27961 -0.0207787 -0.508446 -0.50897 
169 1 3.20886 8.16688 9.01012 1.09021 0.312334 1.07205 
170 1 5.01195 4.44858 7.06371 0.114118 -0.536525 1.25875 
171 1 4.91842 0.457704 2.35973 -0.145892 -1.34059 0.209922 
172 1 7.61602 6.62639 7.85532 -0.651567 1.98296 0.196544 
173 1 0.800446 5.42835 1.50218 -0.75574 -0.635667 1.66601 
174 1 7.86909 6.98266 8.72611 -0.485224 0.0683232 -0.0604603 
175 1 8.15814 6.9601 1.6953 1.4158 -0.0500855 0.635452 
176 1 4.98013 4.2362 4.34957 0.158547 -0.243998 0.50342 
177 1 5.06195 5.61925 1.51658 -0.259757 -0.595742 -1.00541 
178 1 4.06628 4.35498 7.20212 0.314564 -1.74518 0.0758621 
179 1 4.33191 1.83892 5.10379 -0.849386 -0.237536 1.42017 
180 1 0.807679 3.99525 5.08006 0.393563 0.028599 0.436285 
181 1 6.63781 7.79023 1.30119 -1.06048 1.51896 0.550058 
182 1 8.1409 1.97098 3.36494 0.288243 -0.840229 1.59605 
183 1 1.92529 0.0670078 4.6302 0.0679972 -0.0802371 1.28955 
184 1 6.01628 5.54895 1.75893 -1.01477 -1.10151 0.103492 
185 1 7.87602 5.79328 4.47146 -2.62863 -0.1214 -1.07044 
186 1 5.68191 6.96677 8.80941 0.482181 0.166567 0.422956 
187 1 4.13503 3.33703 8.23199 -0.991093 -0.593548 -1.37651 
188 1 5.24553 7.10962 0.937393 0.728598 -0.827241 0.688131 
189 1 4.52676 1.01165 4.6328 0.288339 -0.782514 -0.795132 
190 1 8.98739 3.06694 7.64885 1.63826 -1.07765 -0.405028 
191 1 5.61646 0.824204 1.7701 0.470742 -0.491209 1.05052 
192 1 4.76308 7.23763 8.06019 1.649 0.166116 0.284732 
193 1 0.124197 5.30839 2.19986 0.24585 1.64055 0.0700606 
194 1 9.26391 4.62037 6.27934 -0.212812 -0.34758 2.08775 
195 1 3.03292 2.48948 0.955102 0.77741 0.453133 -0.662965 
196 1 0.319874 5.56673 0.677741 0.968329 0.563669 -0.316956 
197 1 4.03739 3.94656 9.02502 -1.03468 0.975808 0.427386 
198 1 7.51344 6.88591 6.21613 0.0342402 -0.78806 -1.41348 
199 1 8.35486 6.4602 7.18225 -0.643811 0.801758 0.171053 
200 1 2.67195 2.20227 0.138081 -1.3217 -0.117568 0.909203 
201 1 2.85825 6.39036 6.2144 -0.611752 -0.278035 1.1773 
202 1 8.11083 8.78306 7.25477 -0.221368 0.806101 -1.37689 
203 1 3.76152 1.04708 1.38524 -0.699976 -0.7983 0.71381 
204 1 5.25151 5.39396 6.55592 -1.10171 -1.02405 -1.00549 
205 1 1.08192 5.98559 6.80214 -0.125312 0.606906 0.541522 
206 1 4.83112 4.40811 8.8287 0.517925 0.0700621 -0.821524 
207 1 7.603 3.62627 0.784415 0.67602 0.430934 1.28805 
208 1 1.25267 3.54633 0.0577889 -0.402714 -1.41683 0.228039 
209 1 3.79271 4.27518 5.48786 -0.390706 0.520905 -0.493413 
210 1 2.97681 4.2408 2.11709 0.586585 -0.129337 -0.878541 
211 1 1.00128 5.46736 5.92857 1.13303 0.520135 -0.0385737 
212 1 3.99716 6.90091 8.51562 -0.704445 0.332341 -0.137151 
213 1 0.0168654 1.00165 7.52253 0.235125 0.127426 0.591564 
214 1 3.42743 1.10529 2.3004 0.796142 -0.233889 1.58554 
215 1 6.97177 3.68559 8.58848 1.02368 0.465107 -0.361277 
216 1 8.4882 2.88623 1.00788 0.215806 0.417582 -0.28202 
217 1 7.60709 0.287801 4.23432 1.28689 -0.981428 -0.404253 
218 1 4.6553 1.62034 3.41184 -0.602585 0.55563 -0.637473 
219 1 8.45063 4.661 1.1178 0.139962 -0.959425 0.0567048 
220 1 6.45245 0.115091 3.37236 0.344056 0.312536 1.76378 
221 1 4.05792 1.70636 9.30087 -0.92896 0.916071 1.49475 
222 1 9.17694 8.29898 0.764955 -0.275989 2.15565 -0.948872 
223 1 5.29412 0.709189 9.04057 -0.187206 0.648963 0.648752 
224 1 1.82535 6.95211 9.22121 -1.0678 0.355732 0.265623 
225 1 5.87105 1.34579 5.3684 -0.267139 0.0641918 -0.115552 
226 1 1.48177 1.54554 5.48878 -0.373703 -0.433354 -1.05223 
227 1 9.37352 0.120375 3.84905 0.903528 0.494651 1.08522 
228 1 7.75371 9.38984 8.50466 0.930158 1.10289 0.13186 
229 1 3.46202 1.80682 5.46931 -0.177288 -0.547608 -0.328558 
230 1 7.41939 6.18651 1.76668 -0.383132 1.00624 0.723336 
231 1 0.47959 8.57891 6.62808 -0.190563 0.411127 -0.850784 
232 1 9.29029 5.22645 3.94913 -1.01442 -0.192393 1.20687 
233 1 5.25338 3.57911 8.62414 0.593644 -0.551344 0.0959656 
234 1 3.12485 1.3732 0.00172801 0.693787 -0.772838 1.47361 
235 1 3.27772 4.17699 4.67234 -0.225636 -0.617314 -0.771783 
236 1 5.38248 2.50305 2.09465 0.686703 1.13345 0.448583 
237 1 2.89111 5.98743 7.12188 -0.387943 -1.11906 -0.0518483 
238 1 7.05373 9.33325 1.57137 0.580731 0.382456 0.440852 
239 1 1.87213 3.47926 8.76176 0.690182 0.262 0.917683 
240 1 7.33741 3.63637 6.8921 0.942797 -0.0346319 1.72661 
241 1 5.3636 0.174727 3.3967 0.827262 0.503421 -0.225771 
242 1 3.84098 0.874869 0.449992 0.480156 0.442691 -0.915054 
243 1 5.72424 4.25792 9.09028 -1.38352 0.0761904 0.812658 
244 1 7.15655 0.819074 1.21265 0.345808 -0.534605 -0.77772 
245 1 4.6072 1.96647 7.69834 0.10619 0.569116 -0.400543 
246 1 7.22587 1.64703 3.42762 0.635907 0.27991 0.269848 
247 1 8.36451 7.89783 8.46036 0.482108 -0.359811 -0.412726 
248 1 7.5211 3.39176 7.81393 -0.0513482 -0.171679 0.394979 
249 1 6.88881 0.816528 3.87677 1.39815 0.327429 -0.152191 
250 1 9.18081 4.07039 0.92556 -0.357637 1.44696 -1.48652 
251 1 8.69475 5.44193 6.28004 -1.58352 -0.00234629 -0.240719 
252 1 6.92878 7.00028 8.43689 -1.42324 -0.738942 -0.122442 
253 1 0.950599 6.96843 8.83369 0.276318 -0.814381 -0.834196 
254 1 5.5624 6.05403 7.18696 0.833048 -1.5274 0.501163 
255 1 9.07333 8.71736 6.11152 -0.651872 -1.09729 0.566217 
256 1 0.0734928 5.65444 5.7744 -0.675234 1.78135 0.0635769 
257 1 5.06723 3.45063 5.95049 0.367436 0.25008 1.89636 
258 1 6.86305 1.11632 0.323333 1.21647 -0.13956 0.331172 
259 1 2.54561 5.67407 1.77132 0.344705 0.111772 0.766559 
260 1 8.47893 1.06211 7.43839 0.153178 0.0177055 0.294289 
261 1 8.47676 7.04448 7.99074 -0.0797814 -0.189309 -1.08578 
262 1 9.05701 2.23991 0.562658 -0.770252 -0.988383 -0.172372 
263 1 0.417491 5.24534 3.09207 -0.377292 -0.908822 0.714416 
264 1 8.28078 6.8693 5.61133 -0.111274 0.305066 -1.1641 
265 1 7.15403 3.27988 4.36203 -0.557069 -0.228907 0.310791 
266 1 4.19434 5.59937 0.641131 -0.779988 1.16818 0.233847 
267 1 2.79281 3.81087 8.93947 0.4775 -0.2629 -0.507531 
268 1 9.10795 8.3866 5.21521 0.777273 2.0077 -0.465635 
269 1 4.54224 3.06558 9.0339 -0.0401751 1.31945 -0.89683 
270 1 7.03825 2.4142 4.76251 0.314496 0.406798 1.59515 
271 1 8.35432 2.63269 8.2666 -0.341603 -0.383463 -0.0164567 
272 1 4.36562 1.25851 2.49387 -0.0632267 -0.537934 -0.265253 
273 1 7.24931 7.72038 8.92818 0.824345 0.231786 0.787835 
274 1 7.95687 1.81566 7.75867 0.137337 2.17543 0.239934 
275 1 1.72569 5.15822 1.84061 0.775704 -1.08746 0.812086 
276 1 5.28325 1.12875 2.9131 -0.321725 0.458019 0.836698 
277 1 5.45522 4.96837 3.9747 0.333867 -0.563277 0.554087 
278 1 6.78947 4.16425 4.21212 -0.561319 -1.22814 -0.813431 
279 1 8.5718 2.40919 5.20674 -0.201039 0.266943 -0.503327 
280 1 4.73315 4.51044 2.75529 -1.25532 -1.01805 0.940797 
281 1 2.58045 6.48845 0.214129 -0.513058 -0.778934 -0.536104 
282 1 2.86844 1.01608 5.47751 -1.71092 -0.0832519 -0.516805 
283 1 7.5525 8.07855 1.11739 -1.13386 -0.845196 0.605801 
284 1 6.1138 7.35219 8.0125 0.47744 0.366487 -0.318565 
285 1 4.78218 0.57426 8.23834 0.366032 0.177608 -0.866846 
286 1 5.95693 4.30551 7.3358 1.08464 -0.437491 -0.448445 
287 1 1.98617 5.74191 7.18882 0.267485 0.837237 -0.28048 
288 1 6.40129 1.8746 0.76193 0.714839 0.971761 -0.0834991 
289 1 7.47189 1.97771 6.81262 -1.14007 -0.170106 -0.707119 
290 1 8.70519 9.28874 8.69328 0.728451 -1.01636 0.0964537 
291 1 3.99118 8.43567 7.31921 -0.107462 -0.300418 -1.0332 
292 1 0.609163 3.64226 0.739242 -0.444078 -0.55569 -0.639583 
293 1 6.60525 2.88759 5.44422 0.0260639 0.627118 -0.36445 
294 1 5.84719 3.54405 0.575668 -1.61637 -0.65184 0.641371 
295 1 4.02101 8.10381 0.156716 -0.388055 -0.893484 -1.41591 
296 1 6.35351 5.39056 5.08204 -1.1009 1.52344 -0.893825 
297 1 6.01977 3.82076 1.46439 -0.0901708 0.891969 -0.62857 
298 1 8.22238 8.97472 6.35678 -0.772912 -0.878657 0.824973 
299 1 6.02859 2.1616 9.13386 -0.925138 -0.808749 0.367418 
300 1 3.82011 0.282628 4.7768 0.175656 0.271153 0.0736508 
301 1 5.40876 7.75791 7.4883 -0.220456 0.851812 0.710717 
302 1 5.50427 1.79972 7.04455 0.887752 0.305274 -0.169981 
303 1 3.77975 5.04776 6.01873 0.388617 0.270539 -0.101934 
304 1 2.05907 4.71902 0.931498 0.264995 0.181017 -0.288715 
305 1 8.32223 3.74221 1.37116 -0.788732 0.318212 -0.328342 
306 1 1.85212 4.84975 7.48877 -1.34191 -0.184132 1.92371 
307 1 5.89763 8.6289 7.56458 -0.145106 0.22922 -1.55167 
308 1 3.15996 7.36369 8.4049 0.756154 1.46533 0.0902916 
309 1 7.88152 8.98419 4.79406 1.1386 -1.03462 0.631501 
310 1 2.93044 5.45598 6.23782 -0.0409235 -0.0280766 -0.144281 
311 1 8.69844 1.49861 1.89901 -0.105613 0.0584173 -0.961416 
312 1 7.22678 2.27384 1.77203 0.257279 0.732248 -1.43823 
313 1 5.66296 4.62495 3.10046 -0.551099 -0.539043 0.259931 
314 1 4.75048 8.45208 6.34234 0.239375 0.0101996 0.462555 
315 1 3.57625 5.89161 5.63916 0.218546 -0.904453 0.272003 
316 1 2.3905 6.54988 2.09873 -0.867167 0.114135 2.17442 
317 1 5.52472 6.6271 7.96477 -0.228828 2.14507 -0.396494 
318 1 7.52288 4.89779 7.6712 -0.407204 0.937296 0.80659 
319 1 4.18963 1.86178 1.76574 -0.111994 -1.01856 -0.0110068 
320 1 3.59284 1.97916 7.83402 1.01526 0.241951 -0.826127 
321 1 8.35247 6.68302 0.121172 -0.252035 1.47443 -0.263335 
322 1 0.13176 6.79974 9.34581 -0.950906 0.11182 -0.178631 
323 1 2.57923 4.38713 8.13315 -0.524672 -1.39135 0.478794 
324 1 3.69847 5.95994 6.60314 -0.119731 0.0145696 0.415868 
325 1 -0.00142859 4.9005 1.336 0.535126 0.434756 0.975265 
326 1 8.13405 3.61082 3.25055 -0.0957208 0.960593 -1.71945 
327 1 0.930217 3.15814 4.43119 -0.0833 -0.329957 -0.206617 
328 1 7.76639 4.45643 4.45908 1.25683 0.607104 0.674769 
329 1 6.37394 7.90679 7.17891 -0.0609663 -0.403824 0.00103787 
330 1 8.8576 2.62037 6.79466 -0.562488 -0.405589 -1.02983 
331 1 4.74604 7.36878 9.05423 0.0437583 -0.535673 -1.73354 
332 1 1.96062 0.5921 5.47377 0.152114 -1.16759 -0.162213 
333 1 4.85483 6.47768 8.64535 -0.563999 -0.388921 0.921199 
334 1 7.21947 3.91657 1.6392 0.619104 -1.1832 -0.537033 
335 1 8.51043 7.85216 1.32555 -0.722288 0.224682 -1.32489 
336 1 1.17887 8.28985 7.2837 -0.268186 0.176661 1.12417 
337 1 7.15465 4.94296 2.05182 -0.361078 2.27444 -0.597916 
338 1 0.784486 1.93159 8.70132 -0.77521 -1.18238 -0.61468 
339 1 4.79667 0.454178 7.24587 0.22805 -1.99672 0.583787 
340 1 0.305118 7.08466 2.4828 0.194754 0.990013 0.815735 
341 1 4.50873 0.651091 3.24831 -1.2781 1.062 0.478056 
342 1 6.85117 4.59845 8.40585 -0.053652 0.0802053 -0.468661 
343 1 5.5861 9.25216 6.92312 0.579341 1.28943 -0.488202 
344 1 2.68611 0.100239 7.17162 0.0292035 0.551522 -0.401163 
345 1 0.211629 4.55576 4.54833 0.733233 -0.415209 -0.693745 
346 1 0.379629 2.70117 0.971628 -0.920227 1.50615 -0.0573485 
347 1 7.13933 2.46249 2.88531 -0.758464 -1.61979 0.130603 
348 1 0.105085 1.28156 5.86877 0.425548 0.0477245 -0.298405 
349 1 3.82034 6.7903 1.25196 -0.757512 -0.631791 -0.0447438 
350 1 1.27589 3.84882 2.16512 0.244712 0.382226 -1.99659 
351 1 6.26613 0.342879 6.50256 -0.624579 0.355707 -0.36645 
352 1 2.47909 2.42051 1.69017 0.868951 -0.839152 -0.945551 
353 1 5.82291 2.83582 8.48481 1.56344 -0.587591 -0.0812808 
354 1 2.94257 4.57696 5.83522 0.138331 -0.293319 -0.861576 
355 1 9.30352 7.29065 1.34452 -0.504163 -0.0790638 -0.310663 
356 1 0.308911 2.80187 6.22808 0.968969 -1.01293 1.44009 
357 1 6.03222 3.51672 6.07619 0.113632 -0.911882 0.617394 
358 1 9.32506 0.270553 5.96069 0.407269 0.624631 0.855951 
359 1 6.96616 1.38951 6.24977 -0.939675 0.155841 0.323598 
360 1 8.36009 0.480887 5.96976 0.322761 -0.52973 -0.819518 
361 1 3.84372 0.356117 8.32117 -0.42309 0.43174 -0.474564 
362 1 8.07204 7.65915 9.36502 1.228 -0.949833 -0.144382 
363 1 7.6738 3.04119 1.50944 -0.427691 -1.057 -1.27734 
364 1 1.25602 5.87709 4.35126 -0.74735 -0.909663 -1.11587 
365 1 8.51757 4.25031 2.69123 0.188372 -0.484335 1.63891 
366 1 2.10609 5.15854 8.41841 -0.738348 0.471607 -0.10798 
367 1 2.79074 0.138857 5.04936 -0.45553 -1.14049 0.650611 
368 1 2.33963 0.97484 4.67086 -0.931701 -0.420146 -1.18275 
369 1 5.83102 7.1538 1.70395 0.761902 0.247204 1.24977 
370 1 8.42965 3.63781 8.16286 -0.594189 0.839741 0.297823 
371 1 1.94127 5.79485 2.59839 0.203954 0.116034 -0.735618 
372 1 7.54893 1.08157 7.26139 -1.20555 0.426392 -0.461839 
373 1 3.64611 3.55832 2.03383 -1.2065 -0.147469 -0.839403 
374 1 6.857 5.5275 1.33927 1.27673 0.774146 0.342468 
375 1 5.02721 3.90966 3.42759 0.631945 -0.560373 0.698434 
376 1 9.27293 3.31213 1.50406 -0.595046 -0.128091 0.155481 
377 1 2.73586 3.35565 1.79169 -0.0992279 0.933959 0.810125 
378 1 1.87823 5.92285 3.61511 -0.270167 -0.605662 0.00456027 
379 1 5.17349 0.191804 1.20216 0.0387308 0.649083 0.259808 
380 1 8.38341 0.152314 7.79326 1.01187 0.446621 0.290808 
381 1 1.81178 4.42887 2.71778 0.737147 -0.360766 0.0820503 
382 1 7.92047 2.74316 4.61089 0.0726712 0.725285 -0.18061 
383 1 7.62603 5.8597 3.24289 0.838388 0.651909 0.0496456 
384 1 9.37034 1.77108 6.8589 -0.148353 0.769434 -0.329041 
385 1 1.89037 6.67766 0.89235 0.0387063 -1.30433 -0.534048 
386 1 3.04262 7.1611 1.67249 0.293652 -0.0338972 -0.119436 
387 1 3.64478 2.52472 0.193681 -0.666759 0.557242 -0.980303 
388 1 4.32876 3.55998 1.38698 0.255278 -0.83219 -0.172966 
389 1 7.33211 1.65778 8.50876 -0.573382 -0.643042 0.0640608 
390 1 8.81791 5.93571 4.36238 0.542984 -0.0552112 0.298896 
391 1 1.77163 4.26077 6.44841 -0.439074 -0.924657 -0.443505 
392 1 9.02591 6.01467 0.216701 0.886222 0.83502 1.10442 
393 1 7.33809 9.07145 6.82183 -1.00833 -0.841731 -0.0748975 
394 1 0.338375 4.23661 7.0105 0.785342 1.50351 -0.152743 
395 1 0.371071 2.47204 9.3999 -0.365682 0.874539 -0.471664 
396 1 6.74118 4.91692 0.572782 1.68044 -0.192558 0.376175 
397 1 7.69845 5.32162 6.10664 -0.931853 -0.0122176 -0.57279 
398 1 7.05858 3.35835 0.0895916 0.525229 1.82496 0.65726 
399 1 5.91573 1.27587 0.149072 0.0778236 0.291086 -0.858453 
400 1 1.38408 5.53966 7.94085 2.31749 -0.645332 0.0737771 
401 1 3.75277 8.48167 6.38847 0.188671 -0.612499 -1.38627 
402 1 6.23355 7.06105 0.837008 0.362567 -0.34374 -0.962739 
403 1 6.50491 1.3589 8.80442 0.766643 0.195055 -1.61637 
404 1 3.07868 4.22885 7.28553 -0.460572 -0.177555 1.13167 
405 1 7.38036 4.46778 5.82431 -0.0737332 -1.78516 -1.08025 
406 1 3.75274 5.50431 4.38441 0.254532 -1.96133 2.18535 
407 1 8.81674 7.46677 2.21983 0.683813 -0.376833 -1.25315 
408 1 6.97555 3.5792 5.9896 -0.204751 0.712319 0.292409 
409 1 8.81165 7.21278 8.89282 0.688125 -0.234554 -0.200224 
410 1 4.10046 3.42542 5.78255 0.241296 1.02983 -0.0186312 
411 1 4.43516 2.79574 1.93848 -0.702483 -0.218289 -0.527882 
412 1 8.22625 9.29317 0.128603 -1.44865 -0.361149 1.08558 
413 1 7.9008 3.58918 2.27931 0.0680656 0.638777 -0.160811 
414 1 5.98142 5.55165 2.93576 -0.399134 0.10053 -0.230393 
415 1 3.08833 7.1462 0.703308 0.275261 0.766928 -0.615803 
416 1 4.28168 4.23841 8.1018 1.61408 -0.0681467 -1.06923 
417 1 7.41347 6.31314 6.99674 -0.409659 0.836194 0.441592 
418 1 6.40746 4.97074 3.82887 -0.317983 -1.30066 0.616816 
419 1 4.28999 5.3149 5.23886 0.0101937 0.0101538 -0.384988 
420 1 3.97274 1.00246 5.3841 0.0145651 -1.48009 -0.604041 
421 1 6.72876 9.29055 4.30066 -0.556485 0.0707679 0.263498 
422 1 5.999 0.671453 8.32525 -0.900351 0.662659 -0.729842 
423 1 8.02752 2.80513 2.77966 -0.0304583 1.03465 -0.944509 
424 1 1.58776 3.77526 1.08202 -0.733116 -1.13859 -0.261262 
425 1 0.898988 4.41368 3.11266 0.370555 -0.785277 0.400852 
426 1 8.75437 5.29367 9.00906 -0.820219 0.207074 -1.58236 
427 1 9.06211 7.91618 4.35889 -1.23668 -2.61456 0.158561 
428 1 2.90599 3.15347 0.259419 0.707866 -1.00739 -0.619857 
429 1 4.48203 2.22335 6.76195 -0.494859 0.116431 0.033198 
430 1 0.652854 4.35643 7.96733 0.839425 -0.0243586 0.801571 
431 1 0.407599 7.81225 4.96614 -1.01682 0.810474 -0.874715 
432 1 5.84411 8.98702 6.0217 0.783311 0.715589 -1.47088 
433 1 2.65793 1.74428 2.34271 0.942943 0.0515792 -0.554749 
434 1 3.55988 4.21776 1.33845 -1.01142 -0.523021 -0.0615012 
435 1 8.05225 2.10553 6.05375 0.887165 0.258811 1.70555 
436 1 1.95279 2.07983 8.89571 -0.696824 -0.415963 -0.310878 
437 1 6.4727 0.875112 4.74937 0.0121636 1.06 -0.614267 
438 1 5.72045 6.29796 2.23533 -0.536197 0.263876 0.232173 
439 1 6.59097 4.26549 3.21461 -0.909258 -0.726726 0.386921 
440 1 6.33944 6.31132 8.74328 -1.46219 0.516971 -0.712606 
441 1 3.75046 5.69687 7.55164 -0.288132 0.883421 -1.31899 
442 1 3.5427 4.79001 7.88299 -0.600861 1.67579 0.490674 
443 1 7.73922 2.368 9.02085 -0.212214 -0.856532 -0.824082 
444 1 1.50805 3.36305 7.63917 0.110607 1.21063 0.689696 
445 1 5.11413 2.72369 7.22366 0.121986 -0.0226763 0.0951483 
446 1 4.92382 2.49775 3.63916 0.580588 1.22592 0.0364043 
447 1 0.795758 6.21803 8.28506 0.383347 -1.28817 0.97451 
448 1 7.26822 0.761842 8.90054 1.00911 -0.375869 0.280692 
449 1 8.87488 7.41646 0.457017 -0.604003 0.513086 0.217852 
450 1 7.11861 2.23039 5.90874 -0.279 -0.809125 -0.276374 
451 1 2.15639 3.77477 0.279421 0.175299 -0.527435 0.219385 
452 1 1.66488 0.628742 3.8818 0.38542 0.0939889 0.915744 
453 1 3.28129 2.16449 8.78259 0.444917 1.14647 0.478244 
454 1 0.136865 3.59885 4.52275 0.0882235 -0.997651 0.525364 
455 1 2.82385 1.14641 3.07846 -0.420923 0.37969 -0.342867 
456 1 5.1633 4.00748 1.03822 -0.431454 1.75738 1.41402 
457 1 8.07025 8.03712 6.59315 -0.360847 0.269866 0.864004 
458 1 7.91979 1.19835 6.41302 -0.707914 0.131678 1.40962 
459 1 3.47723 1.07758 6.18872 -0.0494021 0.803169 -0.220625 
460 1 5.39563 9.18228 4.64266 -0.966847 1.11879 -0.904341 
461 1 4.48715 5.78197 6.056 0.299014 0.829587 -0.159323 
462 1 4.67329 0.301836 5.29515 0.0481314 1.62213 -0.659294 
463 1 1.62658 4.33295 4.68087 -0.308448 -0.908788 0.00590384 
464 1 6.14654 2.11557 5.87231 -0.449184 1.08057 0.724178 
465 1 8.45615 5.59375 0.832864 0.813783 0.0489011 0.278343 
466 1 6.52985 4.61959 1.44624 -0.0387906 -0.733688 1.11433 
467 1 2.43395 3.77682 4.77199 -0.461937 0.00184913 0.352066 
468 1 2.83888 2.69594 2.51859 1.08835 -0.0947591 0.092112 
469 1 6.85494 6.31639 0.795601 1.65447 0.258551 -0.00602662 
470 1 1.80314 2.6994 8.22155 -0.507672 -0.162255 0.6466 
471 1 3.47314 2.67068 1.81014 0.119587 -0.431608 0.0873159 
472 1 3.37915 6.79635 7.10822 -0.674828 -0.457831 0.842022 
473 1 4.92912 1.18218 5.51337 -0.909782 0.0944246 0.692497 
474 1 7.61811 6.14258 5.42224 2.58926 0.75162 0.795544 
475 1 8.61046 2.80612 3.53725 -0.781784 -0.49573 -1.79475 
476 1 0.382198 3.3755 9.15139 0.983887 0.332991 -0.277349 
477 1 8.63749 5.12734 1.94602 0.921919 -0.907207 -0.638821 
478 1 4.60381 5.67476 9.152 1.08374 0.178447 -0.123429 
479 1 4.01969 3.57999 4.81795 -0.808256 -0.374985 -0.384908 
480 1 0.600548 6.34358 1.78188 0.17106 -0.683827 -0.67698 
481 1 1.69558 7.13563 8.23203 -1.23664 0.0501371 -1.06957 
482 1 8.01701 4.09566 7.44342 -0.532882 0.339177 -0.125935 
483 1 7.50089 0.331954 3.27161 0.0831576 0.309137 0.108748 
484 1 6.12506 5.10619 6.74498 0.233615 -0.320269 0.705698 
485 1 5.63861 7.49018 0.162516 0.556439 -1.23928 0.221751 
486 1 0.25417 6.52615 0.850096 0.0511386 -0.461146 0.66156 
487 1 8.71537 1.39814 2.85175 1.14385 -1.27613 -0.697558 
488 1 3.38858 3.24432 6.39161 0.0520755 0.809986 -0.701147 
489 1 5.60441 3.16359 3.74475 0.440338 0.32819 0.821456 
490 1 4.12725 3.31388 0.437474 0.68372 -0.18482 0.917861 
491 1 8.02174 5.81803 9.3328 1.65119 -1.11252 -0.103786 
492 1 4.96951 8.74368 3.89278 -0.760026 -0.665828 -0.547978 
493 1 7.17591 5.77534 7.72883 -2.37279 0.0157359 -2.09034 
494 1 2.01031 4.39234 8.95891 0.447032 -0.711936 -1.00228 
495 1 5.59927 4.74638 1.47836 0.145438 0.829769 -0.168355 
496 1 7.39692 1.13383 4.65575 -0.0155085 -1.14788 -0.00827944 
497 1 5.12465 1.61101 2.09891 -1.08174 2.08149 -1.23286 
498 1 4.11096 6.75034 2.19851 -0.149909 0.734872 1.09821 
499 1 7.33566 1.73243 0.925118 -1.28512 -0.15817 0.684354 
500 1 9.29746 4.15236 9.35165 0.370701 -0.611328 0.319845 
501 1 4.77966 3.10464 5.11545 0.838424 -0.768975 0.563846 
502 1 0.520863 4.59204 0.563012 -0.0229306 0.541145 -0.386283 
503 1 4.91534 2.85019 8.12779 0.890597 -0.391694 0.150593 
504 1 4.4117 5.23144 2.23037 -0.037821 -0.268726 -1.35846 
505 1 0.852636 2.68521 8.01321 -0.570851 -0.375827 -0.601639 