ITEM: TIMESTEP
2660
ITEM: NUMBER OF ATOMS
1000
ITEM: BOX BOUNDS pp pp pp
0.0000000000000000e+00 9.4000000000000004e+00
0.0000000000000000e+00 9.4000000000000004e+00
0.0000000000000000e+00 9.4000000000000004e+00
ITEM: ATOMS id type x y z vx vy vz 
1 1 2.31569 3.01817 2.42176 -1.91272 0.295413 -0.841728 
2 1 1.65214 5.33285 6.07264 0.996111 1.23357 -0.165971 
3 1 9.21551 8.44823 7.31981 0.586279 0.186971 0.665196 
4 1 4.42436 7.30805 5.17939 -1.02688 0.122888 0.407151 
5 1 5.5169 4.08532 6.46302 -1.62235 -0.11535 0.264902 
6 1 7.30459 9.28539 2.23905 0.0471138 0.390805 0.76139 
7 1 7.63967 2.82868 6.98045 -1.05724 -1.47828 -0.295863 
8 1 6.37854 5.23202 3.7492 0.75518 0.25174 -0.849626 
9 1 2.50647 0.699363 8.50864 -1.09977 1.04456 0.821112 
10 1 4.78528 7.30896 7.11616 -0.920606 1.15377 0.771098 
11 1 4.10452 4.10833 4.10549 -0.663791 0.650586 -0.00196521 
12 1 4.29606 0.164369 4.76148 1.25015 -1.10365 0.38442 
13 1 6.59655 8.07392 8.97102 -1.05587 -1.36958 -1.3486 
14 1 6.59211 0.84219 6.62216 -0.313179 0.831278 0.816594 
15 1 5.46854 6.95429 6.38225 -1.79419 0.126445 1.38272 
16 1 5.72402 0.263427 8.54183 0.189607 -1.26298 0.320696 
17 1 2.26562 1.36046 2.44281 0.31584 0.451088 0.116842 
18 1 4.95806 8.2657 7.2898 0.219769 -0.42021 -2.0756 
19 1 6.89975 1.20468 3.36146 -0.136485 -0.366122 0.0434542 
20 1 8.53214 7.42805 5.21932 -0.21767 0.728647 0.510846 
21 1 6.97692 5.95682 7.41169 0.143803 0.00952438 0.087835 
22 1 2.95979 8.9296 8.07163 0.297575 0.421617 -0.362764 
23 1 9.26329 0.908359 7.04705 0.332174 0.705252 0.631728 
24 1 4.12222 7.56571 3.8391 0.174748 1.23264 0.738917 
25 1 3.46311 0.348144 5.33873 -0.31591 2.81352 1.25055 
26 1 5.20332 1.13889 5.63268 -1.90189 -0.57496 -0.871874 
27 1 2.57338 8.37225 8.73074 -0.0533454 0.777754 0.475141 
28 1 0.727344 8.15926 6.67891 1.1997 -0.278699 -1.30542 
29 1 6.75128 0.610836 1.87587 -0.460633 -0.0709795 -0.26243 
30 1 0.55342 3.03951 3.03667 -0.892567 0.777981 -0.148881 
31 1 3.57383 0.000925391 2.75969 -0.126994 0.161882 -1.39238 
32 1 8.11771 8.91961 4.51659 -0.035745 -1.5017 -0.869065 
33 1 6.87601 8.38839 2.3304 0.564566 -0.1251 0.14202 
34 1 0.0671591 7.05699 2.07777 0.625093 0.01464 -0.355654 
35 1 6.7297 4.13002 4.90379 0.298591 0.683936 -0.944146 
36 1 5.81985 5.63414 8.45932 -1.83543 0.761552 -0.228188 
37 1 7.14263 0.138916 6.25236 0.519577 0.911337 0.967066 
38 1 7.02867 5.09779 6.17276 0.339067 -0.272251 1.18526 
39 1 1.13665 2.64904 4.73271 -1.81956 0.638375 -1.25369 
40 1 9.33712 2.22613 3.41946 0.503467 -0.105391 0.0318078 
41 1 4.1647 6.39922 4.99399 -0.246535 -0.221129 0.240377 
42 1 7.03047 4.79353 4.30844 0.126157 0.775349 0.903274 
43 1 1.14971 6.52989 4.84753 1.47853 -0.450825 1.33766 
44 1 5.66683 7.63014 7.0919 0.305744 -0.720251 -0.692464 
45 1 5.97246 6.46395 4.61218 -0.0520801 0.0660072 0.668772 
46 1 5.8521 6.38497 9.08038 0.344095 0.847176 0.378526 
47 1 4.18899 0.132708 5.88714 -0.91918 -0.0590915 -0.230214 
48 1 4.16443 7.95729 6.69771 0.73606 0.382459 -0.59669 
49 1 0.329839 8.65287 3.10795 -1.13288 0.395658 -1.556 
50 1 3.03771 7.15677 6.41076 0.438942 0.634654 0.0522633 
51 1 8.92125 4.7055 7.12274 0.657833 -0.725193 0.0238717 
52 1 8.96715 7.449 7.42899 -1.63195 -0.0564641 0.0520113 
53 1 4.78459 3.33367 3.37152 -0.773701 -0.464618 0.269035 
54 1 0.479413 8.37033 9.14274 0.439522 -0.770549 0.114421 
55 1 0.118484 0.598247 3.09804 -0.169462 -0.890507 -0.809988 
56 1 3.00038 5.27988 3.54823 -0.676433 -0.333339 -0.459241 
57 1 1.40266 2.71375 2.70491 -0.080709 0.326646 0.502979 
58 1 4.81988 1.02555 7.09308 -0.850216 -0.221247 0.588925 
59 1 8.33897 0.425757 5.05635 0.206674 -1.01148 0.257561 
60 1 6.74543 2.6433 6.76102 -0.298492 -0.911464 -0.155205 
61 1 1.61972 1.50255 0.681361 -0.423079 -0.95307 -2.29468 
62 1 3.69114 8.01479 1.24598 -0.598036 -0.674103 0.418228 
63 1 7.28022 7.03043 0.976632 0.0677927 0.437205 0.327088 
64 1 8.35271 8.81006 7.5653 1.40336 -0.848451 -0.603131 
65 1 4.41283 8.4416 9.13182 0.374561 -0.131808 0.370904 
66 1 3.99384 5.98655 5.81815 -0.743388 0.318403 0.293765 
67 1 9.17282 7.05651 5.93589 -0.233874 1.41797 1.14783 
68 1 7.7784 6.53403 1.66778 -0.166592 -0.859413 -0.582207 
69 1 3.79331 6.93274 5.81591 -0.36785 0.0224104 0.412187 
70 1 4.58922 3.36621 7.594 0.0190338 -0.337701 0.323218 
71 1 3.26092 7.85885 9.12236 0.696534 0.540138 1.19653 
72 1 0.392674 1.37086 3.61169 -0.866971 2.1831 0.262718 
73 1 7.93152 9.10036 1.56509 0.10534 -0.795566 0.14934 
74 1 4.63079 7.15448 8.11367 1.12285 0.0694705 0.234185 
75 1 1.71732 1.22543 8.69685 0.00822479 2.09049 0.795829 
76 1 3.49276 5.30796 6.27277 -2.09663 0.695253 0.467213 
77 1 1.71493 6.32802 3.31381 0.178148 0.53283 -0.0116292 
78 1 2.08578 8.91889 3.64683 -0.0160785 -0.149234 0.0850739 
79 1 3.57172 1.23569 6.88622 0.641167 1.28372 0.780698 
80 1 8.65798 6.59826 6.60343 -0.479274 0.216852 -0.90104 
81 1 7.34303 5.13348 7.83338 -0.347447 1.14219 -0.887625 
82 1 7.65811 0.370478 3.19278 -0.683955 -0.403212 -0.20939 
83 1 5.19707 8.99092 8.04584 -0.903765 0.121556 0.964592 
84 1 1.43518 0.584111 3.91264 0.610693 -0.157677 1.03445 
85 1 0.276782 0.133127 5.67161 0.385256 0.540294 -1.13655 
86 1 2.19349 6.88606 7.04754 0.00874828 0.140605 -0.777617 
87 1 0.888018 8.32912 5.75038 -0.917814 -1.08351 -0.433848 
88 1 5.18153 6.33937 8.21047 -0.385015 0.924384 0.686753 
89 1 4.4693 8.39628 3.45959 0.0692583 0.618077 0.890014 
90 1 0.619994 7.21715 4.26054 -0.015547 -0.209493 0.181276 
91 1 8.64507 4.69961 5.25026 0.0983918 -0.962676 -0.329586 
92 1 8.71527 6.4758 7.5624 0.245605 -1.72598 -0.730422 
93 1 2.95171 9.05064 3.9866 -1.17639 -0.930904 -0.123088 
94 1 0.00301192 7.08562 4.97748 1.55826 -1.39699 0.389896 
95 1 8.90616 6.96046 1.33263 0.396874 0.248667 -0.370926 
96 1 3.39058 9.37768 0.26075 0.0699436 0.269129 -0.135529 
97 1 7.49468 8.14165 9.17647 -1.76688 -1.53747 -1.44621 
98 1 2.1765 4.86915 5.31612 0.766814 0.833556 -1.27433 
99 1 0.988093 2.40862 1.87481 -0.398874 0.29889 -0.936139 
100 1 5.43266 0.899323 0.841841 0.684425 -0.225369 -1.57391 
101 1 3.19842 7.53684 4.17562 0.0245044 -1.21513 1.19678 
102 1 2.19933 6.73915 6.11235 -0.773547 -0.0491563 -0.0764432 
103 1 1.53379 9.32249 7.36814 -0.488602 -0.649086 0.763619 
104 1 6.21776 7.20529 8.77551 1.36468 -0.929559 -0.597236 
105 1 8.87879 0.602137 5.87232 0.19441 0.571374 0.212308 
106 1 3.73492 4.61472 4.8001 -0.111012 0.346553 -0.1621 
107 1 1.33155 9.09028 4.22373 0.032811 -0.0208324 0.733756 
108 1 7.88773 1.68546 7.76536 0.596061 0.647596 0.923809 
109 1 4.56429 0.933266 1.47895 0.399013 0.0848588 0.376521 
110 1 1.70937 4.36109 6.06009 -1.05002 0.0011627 0.338237 
111 1 9.22917 3.91733 5.29884 0.356895 -0.303935 -1.29316 
112 1 1.06809 1.66502 2.50789 0.244282 -0.355661 0.146288 
113 1 1.95481 8.71505 2.70495 0.0523431 -0.686041 -0.161535 
114 1 2.58091 0.807519 1.74867 1.10015 -0.451391 -0.325668 
115 1 4.68277 7.83979 0.987333 -0.612214 -1.85006 -0.812166 
116 1 9.02339 1.44746 6.27699 -0.301152 0.545014 -0.363961 
117 1 5.9113 0.300824 1.38346 0.51834 0.256294 0.447108 
118 1 0.500645 7.77859 7.51516 -0.906983 -0.237546 1.09301 
119 1 3.92756 4.01481 5.52105 -1.70832 -0.607832 -0.752514 
120 1 4.90285 0.0809385 1.03793 1.27538 -0.622498 0.756564 
121 1 5.52189 6.32916 0.583526 -0.49738 0.40783 -0.450169 
122 1 7.31603 5.51955 3.80195 -0.25013 0.491478 -0.0460867 
123 1 3.14521 2.59744 6.08812 -0.123449 0.0234617 1.54148 
124 1 1.66004 0.162598 3.07376 0.21864 0.351265 0.219043 
125 1 0.681535 3.363 5.1358 0.581349 0.227268 -0.729187 
126 1 1.99783 0.0628776 6.54988 0.670969 1.24143 -0.004789 
127 1 3.45714 6.98379 0.167606 -0.784898 -0.249446 -0.692276 
128 1 0.088242 5.38132 1.01819 -1.18649 0.243645 -0.99435 
129 1 5.82605 7.60573 5.72626 0.379998 0.517736 -0.484021 
130 1 6.43163 3.24566 5.01027 -0.537192 1.66188 -0.845798 
131 1 6.37277 8.34969 5.21566 0.454867 -0.269371 -0.47819 
132 1 4.20018 0.303954 6.85811 1.53517 0.430951 0.0872517 
133 1 6.1148 6.47724 8.15302 -1.3671 -1.42868 -0.685301 
134 1 1.09498 9.20705 5.39108 -0.361714 -0.0473333 -0.756685 
135 1 0.129447 3.01352 5.83467 -0.248695 -0.654238 -1.15073 
136 1 0.655194 7.44567 6.09984 -0.0901575 -0.755841 -0.302916 
137 1 8.991 8.05704 8.23289 0.0378703 -1.52079 0.363026 
138 1 9.31768 0.65435 4.06795 -1.23941 -0.0628313 0.160543 
139 1 4.3296 1.40698 3.33027 -2.03655 0.926069 -1.89442 
140 1 3.53039 1.22952 5.78599 -0.101161 0.0842697 0.326194 
141 1 2.37035 5.77321 4.67623 1.28514 -0.776271 0.28818 
142 1 5.0986 2.3133 7.24653 1.7326 0.252463 -1.53132 
143 1 5.22729 7.10035 8.87793 1.92237 -0.0594832 -0.414841 
144 1 0.888973 2.97306 1.10984 -0.252119 0.419734 -0.891003 
145 1 8.04516 6.02464 4.17952 -0.117591 1.166 0.171279 
146 1 3.73235 6.80936 3.03204 -0.250065 -1.21721 0.111642 
147 1 8.32548 5.81851 5.14624 0.745492 0.17007 -0.720135 
148 1 1.91893 2.14755 5.73878 -0.213095 -0.0758636 0.62373 
149 1 3.60399 8.3604 3.8652 1.52018 0.582478 -1.2814 
150 1 3.87125 9.24922 3.68925 0.0559659 0.346355 1.21893 
151 1 5.31611 1.49551 3.08568 -0.425336 -0.300968 0.837202 
152 1 8.85125 1.36715 3.62159 0.240637 0.00279112 -0.248391 
153 1 8.15464 1.77066 6.22131 -0.924738 -1.22543 -0.621914 
154 1 5.57579 7.3105 8.00696 -0.790999 0.750914 0.471058 
155 1 7.16502 1.47327 6.10426 -0.686003 0.159342 -0.227604 
156 1 6.68188 8.03779 4.36098 -0.987879 -0.567586 -0.832973 
157 1 0.160871 5.15329 6.44618 -1.34942 1.32061 0.77187 
158 1 3.75773 6.96854 7.73968 -1.70908 0.733454 0.0349211 
159 1 1.35739 2.27579 6.51682 -0.507412 1.725 -1.11002 
160 1 0.264546 7.95269 1.31253 0.372294 -0.0402243 0.0275826 
161 1 3.19154 0.110196 1.87364 -0.687844 -0.375856 0.567136 
162 1 1.48833 0.438205 4.82917 -1.27476 0.477382 0.625439 
163 1 7.97648 6.91773 8.02104 -1.52924 -0.327887 0.233167 
164 1 2.21392 9.39811 0.450615 1.06925 0.156515 1.19396 
165 1 8.2752 4.59602 1.9717 1.20842 0.986214 -0.0591613 
166 1 1.62991 0.504799 8.08051 2.24374 -0.868076 -0.499346 
167 1 5.3295 6.5565 1.95875 0.523921 -0.624381 -1.499 
168 1 2.52796 6.92794 0.434343 0.547219 -1.71611 0.306892 
169 1 6.20816 8.39887 6.14838 1.35971 -0.912753 0.342873 
170 1 6.10725 4.82882 8.88638 -0.383681 -0.547052 1.1934 
171 1 5.47796 8.79683 5.18199 0.0131877 -0.317098 0.118522 
172 1 4.91079 2.7039 5.53207 1.15006 -1.47424 0.250012 
173 1 6.34525 7.20428 1.05767 0.53084 0.965826 -0.578619 
174 1 1.95204 8.48166 0.79772 -1.22423 0.589606 -0.218062 
175 1 0.802437 7.56312 5.15941 -0.987663 0.59418 -0.390971 
176 1 2.92255 0.373392 0.981262 -0.221622 0.697149 0.188907 
177 1 2.2545 1.82451 3.85066 -0.39379 -0.816062 0.525969 
178 1 7.50429 1.86535 6.89085 0.157818 -0.461265 -0.630273 
179 1 3.66081 3.21897 7.33174 0.962459 1.28273 1.03841 
180 1 3.27631 8.90617 1.11114 -0.558013 1.41617 -0.0434434 
181 1 2.67662 3.42468 4.73711 -0.554 -0.00236966 1.65176 
182 1 2.13868 7.17944 3.08218 0.56246 -0.963763 1.63652 
183 1 1.87981 2.16658 2.11398 -1.45197 -0.762566 -0.229092 
184 1 5.23826 4.08385 7.44052 -0.845556 0.455238 -0.723559 
185 1 3.12361 1.60353 2.09898 -1.21903 -0.72675 -0.0721478 
186 1 1.21909 7.89522 1.1815 0.431323 0.268399 0.872754 
187 1 3.90558 5.1447 7.20435 -0.785809 0.08536 1.25342 
188 1 1.53957 5.65154 5.15474 1.12209 -0.657199 -0.269221 
189 1 2.31644 2.31834 6.61262 -1.08119 0.756536 -0.765436 
190 1 5.83347 0.861929 9.3428 0.243207 0.489925 0.867731 
191 1 7.4441 2.44344 6.10944 1.49712 -0.979628 0.24019 
192 1 5.35835 5.70375 1.379 -0.0515603 0.84746 0.749476 
193 1 7.83724 5.15884 5.63386 1.39813 -0.273408 -0.00314893 
194 1 5.04681 1.03427 4.68504 0.808829 -0.532149 0.891459 
195 1 0.80667 5.25542 2.50671 0.533744 0.595319 -0.571219 
196 1 0.460184 5.59386 3.82448 1.66225 0.0622841 0.181157 
197 1 4.16622 3.15463 4.09566 -1.41068 -1.46553 -0.0240086 
198 1 4.03217 7.76756 8.58811 -0.0462411 -0.698537 0.676593 
199 1 5.16356 6.23864 3.83802 -0.734371 -1.02115 0.306894 
200 1 7.70841 3.63995 7.44606 0.638889 -0.51641 0.386417 
201 1 7.85811 4.87109 1.11656 0.97851 0.357009 -0.779235 
202 1 8.32525 3.94512 6.71737 1.98305 1.03173 -0.100585 
203 1 7.98593 4.57436 7.3707 0.621498 0.203774 0.169305 
204 1 7.39387 7.63618 6.60242 -0.179633 -2.20549 0.245552 
205 1 7.5984 6.30389 3.38889 0.0821347 0.525488 -0.367584 
206 1 0.369537 2.11664 6.25345 -0.507176 -0.164959 0.951826 
207 1 1.22746 1.3448 7.86597 0.50037 1.17245 -0.464586 
208 1 1.0895 1.73254 5.04686 -0.13573 -0.34953 1.68328 
209 1 4.35108 2.47561 4.777 0.273051 0.348551 -0.0264755 
210 1 1.20535 8.76553 3.35451 -1.75331 1.09966 0.570861 
211 1 3.55722 7.08371 4.89037 0.100456 0.123234 -0.414233 
212 1 3.22298 7.96996 8.10141 -0.332999 -0.627476 -1.13278 
213 1 4.27141 5.55974 1.3126 -1.32559 -0.141122 -0.297462 
214 1 2.21766 4.22758 4.50975 0.574421 0.836229 -0.736254 
215 1 8.96272 5.77444 4.06852 -0.270121 -0.548655 -0.269616 
216 1 7.40696 5.73489 8.99996 -0.326231 0.591487 0.31182 
217 1 7.70725 0.649903 1.7187 0.776682 0.872123 0.0238225 
218 1 1.16312 8.85084 8.61633 0.87756 -1.80907 -0.367317 
219 1 5.09763 0.773221 3.68818 1.43123 -1.04535 -0.351063 
220 1 3.65398 1.72622 7.70281 0.223876 -0.0897979 1.3172 
221 1 0.869131 2.17325 3.29797 0.671438 -0.375349 -0.58745 
222 1 5.49198 3.18424 7.25545 0.313482 -0.453316 0.123603 
223 1 5.64785 5.63976 3.25341 0.413194 -0.731022 0.479258 
224 1 8.37352 1.29186 7.04436 0.592158 -2.21099 -0.700672 
225 1 6.81788 6.80624 1.79719 0.643282 0.111403 0.793328 
226 1 1.50933 7.13964 1.71366 -0.726523 -0.631848 -0.876027 
227 1 6.73833 5.78569 2.10433 -0.33092 0.427148 1.1807 
228 1 3.54953 1.49086 3.93426 -0.622643 -0.953789 -0.285426 
229 1 9.2369 2.75041 6.7311 -0.116969 0.331909 0.230432 
230 1 4.57234 5.96754 3.11432 -0.408576 -0.613626 0.239874 
231 1 7.41064 3.26534 8.3262 -1.32571 0.363234 -0.296439 
232 1 7.08934 8.59948 1.39699 0.919098 -0.452248 0.608841 
233 1 0.00686421 0.098325 6.56839 -0.634557 0.829109 -0.163242 
234 1 7.78844 8.20069 1.90464 -0.352865 -0.362895 0.788266 
235 1 9.38717 7.77899 2.68639 -0.325608 1.65095 -0.255701 
236 1 5.40596 5.05955 7.83422 -0.374113 -0.715289 0.144986 
237 1 5.37427 6.48708 2.92631 0.0155376 -0.724215 0.97789 
238 1 6.16976 3.92139 7.34992 0.0237888 0.515573 1.04801 
239 1 8.47606 3.79024 2.49119 -0.822093 0.541884 0.262846 
240 1 7.10334 2.55616 5.20172 1.2782 -0.675964 -0.247005 
241 1 2.87899 1.70395 8.26388 0.960919 -0.766868 -0.7667 
242 1 5.64892 7.97904 0.864572 -0.495411 -1.62973 -1.74151 
243 1 1.05376 4.73327 1.67914 0.57858 -0.224572 0.487568 
244 1 5.87343 0.488675 5.09056 0.480439 1.08563 0.477167 
245 1 1.07873 0.589396 1.50953 -0.701485 0.553581 -0.155371 
246 1 0.666059 8.90129 7.21439 -0.0144273 -0.1787 0.414234 
247 1 5.95834 3.28708 8.07075 1.05636 -1.45996 -0.787516 
248 1 8.07348 7.43165 1.4001 -0.690274 -0.723659 -0.0963189 
249 1 0.00188808 7.8954 5.55234 -1.37948 0.163729 1.03807 
250 1 8.61972 6.82548 9.28928 -0.120336 0.357791 -0.415618 
251 1 6.70486 7.44936 2.52356 -0.287004 0.465403 1.81368 
252 1 1.67363 2.35284 1.18552 -0.911653 0.885323 1.59523 
253 1 2.5509 3.91663 6.38045 -1.58408 -0.0244977 -0.149981 
254 1 5.20737 2.04282 4.82384 0.263407 0.334194 0.474512 
255 1 9.25165 4.00616 1.9067 -0.0163393 -0.0994946 -0.168893 
256 1 2.71296 2.44331 1.72261 -0.633985 -0.913058 1.57508 
257 1 0.352339 4.42178 1.09465 0.563508 -0.299158 0.116444 
258 1 8.05548 2.80295 5.45097 0.00487528 -0.148758 0.542414 
259 1 3.89508 5.52562 4.91601 0.692353 -0.836914 -1.43683 
260 1 4.61896 6.87711 3.40332 0.00690411 -0.504408 0.0431081 
261 1 3.87317 3.13628 8.28097 0.88597 0.32203 -0.177682 
262 1 3.2831 7.95022 2.13837 -0.36083 -1.35182 -0.207054 
263 1 6.84774 6.75137 5.95319 -0.269301 0.366623 1.33669 
264 1 3.99865 7.12035 1.00519 0.0197753 -0.954351 -0.304848 
265 1 8.53617 1.07073 1.48932 -0.177609 0.249014 -0.590686 
266 1 6.42532 9.09573 1.89578 -1.07689 -0.219522 -0.560538 
267 1 9.36206 4.88603 4.26977 -0.817071 0.246605 0.38105 
268 1 0.300559 6.19523 4.61463 -0.505237 0.73698 -0.796312 
269 1 0.425471 7.0414 3.16271 -0.461585 0.173509 -0.234444 
270 1 1.36393 5.74661 4.23437 0.0339354 1.66761 0.559824 
271 1 9.17565 6.25555 5.41847 -1.36666 1.57079 0.728844 
272 1 8.23408 4.27209 8.93662 0.849257 -0.77954 0.438625 
273 1 4.6486 7.18729 1.70661 1.64691 0.309103 0.876384 
274 1 5.55542 1.10373 1.83381 -0.197999 0.284471 -1.03193 
275 1 8.30193 3.70938 5.07967 -0.336885 -0.0893787 0.671913 
276 1 1.72695 8.02146 5.30746 0.332972 0.508708 0.572364 
277 1 3.34633 4.4548 2.39868 -2.01391 0.64173 0.248685 
278 1 9.23317 7.8176 6.54125 -0.0162847 -0.273293 -0.204045 
279 1 5.01093 3.69413 4.24087 -0.875834 -1.33214 -0.0848348 
280 1 1.90891 1.19765 4.49155 0.469454 -0.637494 0.267745 
281 1 5.64943 0.0121963 0.407698 0.690072 -0.436181 1.01795 
282 1 6.42614 7.33926 5.04581 0.190022 0.195168 -0.363135 
283 1 7.8459 1.57751 9.14316 -0.137126 1.62756 -0.942111 
284 1 4.38475 3.36031 5.97557 0.0368908 -0.360738 2.17834 
285 1 4.12785 7.65883 0.213895 -0.771437 -0.912949 0.94401 
286 1 5.96791 0.80414 3.23582 -0.596307 -1.08576 0.744633 
287 1 5.87556 1.80815 4.12902 0.833124 0.148933 0.939171 
288 1 2.37224 7.54236 1.9379 -0.788106 -0.241464 -1.14306 
289 1 7.70665 3.78256 4.29721 0.0594818 -0.658814 0.632998 
290 1 0.497775 7.60023 0.43348 -0.21147 -0.218151 0.392973 
291 1 4.46724 8.79458 5.31391 1.75622 -0.500227 0.0533492 
292 1 2.9239 6.87776 3.53615 0.753821 -0.340998 0.197391 
293 1 4.27095 6.94056 9.01585 -0.860384 0.628657 -0.273762 
294 1 1.95501 2.08362 4.78734 -0.22221 -0.720009 -0.781806 
295 1 2.76823 2.57969 5.21265 -0.237207 -1.60928 0.160262 
296 1 8.98201 9.02139 8.22033 1.26072 0.83056 -0.032897 
297 1 2.19925 1.20628 7.78755 -0.182401 0.307561 -0.564459 
298 1 5.54982 5.51069 9.37191 0.383645 -1.05374 0.385495 
299 1 5.44583 1.45475 6.50638 0.277618 0.763903 -0.0351245 
300 1 1.79703 5.2951 1.30428 -1.13024 -1.14355 -0.144943 
301 1 2.22961 0.21594 4.27862 -0.926332 -2.09273 1.47135 
302 1 4.22649 2.47616 7.68717 -0.150788 -1.00723 0.375244 
303 1 3.56232 2.47998 2.1976 0.00389383 -0.386559 -0.531895 
304 1 1.49966 7.14551 5.60199 0.0953538 -0.142387 1.03937 
305 1 1.6483 0.845098 7.10745 -0.368498 0.436159 -0.482617 
306 1 7.53259 1.00655 5.00859 -0.541898 0.221481 0.084855 
307 1 5.56384 8.87476 2.29293 1.16989 0.219821 -0.644612 
308 1 4.26507 7.59465 2.86438 -0.238005 -0.723877 -0.0874 
309 1 1.41598 3.43473 5.86353 -0.389426 0.292626 -0.787366 
310 1 0.796059 2.30227 0.0574394 1.26257 0.859648 -0.0696058 
311 1 6.21543 6.38088 6.72206 -0.155647 -0.125862 -0.557824 
312 1 6.88857 0.184662 7.25569 -1.9972 -0.731673 -0.650198 
313 1 0.297752 2.28835 2.49598 -0.718899 0.0306242 0.749923 
314 1 3.60281 0.916586 0.615704 -0.90731 0.202859 0.51155 
315 1 1.52578 7.38917 4.59522 -0.143088 -0.0230722 1.56938 
316 1 7.54631 8.34216 7.29296 1.1688 -0.152075 -1.35087 
317 1 3.47916 0.706103 3.42437 0.224091 -0.449554 0.474298 
318 1 9.12729 9.2448 2.63665 0.269215 0.637888 -0.39603 
319 1 2.78082 7.16156 7.78307 0.0187892 -0.183319 -0.883122 
320 1 3.27726 6.45382 0.976298 0.170458 0.407666 0.321621 
321 1 8.91628 2.23867 5.7269 -0.408104 -0.523774 0.0933704 
322 1 0.0602504 3.44075 1.15961 -1.01731 0.185577 -0.410772 
323 1 8.81028 3.14204 1.81312 -0.44444 -0.0159827 0.0858115 
324 1 5.95801 8.52271 0.130281 0.179584 -0.155559 0.57181 
325 1 4.33892 9.24811 0.268475 -0.530936 -0.339257 -1.01815 
326 1 6.13256 4.87473 4.75474 2.35417 -1.68507 0.0274208 
327 1 2.55626 5.04852 6.23497 0.447932 0.0487422 0.0747371 
328 1 0.604847 5.70269 5.59936 1.15665 0.753346 0.0449632 
329 1 5.24963 0.190655 2.91088 -0.178987 -0.636598 -0.570134 
330 1 0.773747 0.455661 7.03313 0.149757 -0.6898 0.338459 
331 1 1.36401 7.2125 3.63827 -0.692401 -0.289065 -0.411854 
332 1 9.28416 1.85446 7.08309 0.661926 -0.171381 0.386723 
333 1 2.94031 1.68376 6.35256 0.199641 -0.418482 1.39409 
334 1 9.36358 3.75894 2.84948 0.25961 0.419507 -0.398353 
335 1 8.23524 5.93546 0.0426698 -0.101865 0.780016 0.146981 
336 1 1.87406 8.72076 9.2695 -0.718246 0.980035 -0.268014 
337 1 5.94915 7.24245 3.16122 0.640242 -1.07264 0.639824 
338 1 2.743 8.71623 2.13688 1.26176 -0.0397918 0.889495 
339 1 6.56375 5.81059 5.66588 -0.0344557 1.08702 0.748571 
340 1 9.17901 1.66486 1.05331 0.125736 0.837288 0.191009 
341 1 5.33286 4.61069 4.26064 1.08861 -1.06804 -0.830831 
342 1 1.73736 8.75917 5.91175 -0.684054 -0.578832 -0.400868 
343 1 2.51377 6.05787 3.75851 -0.130734 -0.162965 0.651331 
344 1 0.9391 9.16178 6.33768 -0.762809 -0.77447 -0.19557 
345 1 6.13572 9.12955 4.59858 -0.822092 -1.14021 0.103044 
346 1 8.8357 6.05855 0.825646 0.0391991 -0.102695 -0.407798 
347 1 2.87922 1.85771 4.53875 -2.24344 1.58081 -1.36115 
348 1 6.75665 0.363536 2.84953 -0.284432 0.124406 -0.480252 
349 1 4.02753 4.52972 6.47667 -1.11202 -0.459075 0.306573 
350 1 9.05209 0.703709 2.26032 0.489939 -0.448859 1.29014 
351 1 0.791944 3.98121 3.29373 -0.410877 0.270077 -0.259196 
352 1 5.0013 0.3977 9.1983 0.628473 1.61675 -0.197399 
353 1 4.85824 8.1197 8.27051 0.0178373 1.65595 -0.640705 
354 1 7.48569 4.40359 6.60332 0.147477 -0.37248 0.15808 
355 1 5.73862 7.9006 4.71538 -0.872068 0.0106382 0.0340632 
356 1 4.53425 0.791034 0.525534 -0.629547 -0.212883 -0.868593 
357 1 2.40934 7.6695 5.92826 0.0826198 -0.0643368 -0.0648443 
358 1 8.3294 1.25802 4.44803 -1.06101 0.852675 -0.257997 
359 1 8.52259 6.15647 8.4915 -1.09367 -0.537161 -0.610481 
360 1 1.61865 6.18418 1.59495 -0.449631 0.198875 -0.413779 
361 1 2.79052 9.22548 4.94395 0.801734 0.667448 0.965119 
362 1 2.66158 9.29431 8.98516 -0.967517 -0.493573 -0.445605 
363 1 2.70327 1.22765 0.673968 1.76405 0.557962 0.389032 
364 1 1.06761 8.53789 2.44481 -1.5239 0.644501 0.197722 
365 1 8.85851 5.44627 5.86819 0.671823 0.94444 0.285765 
366 1 7.02294 6.68857 8.01842 -0.830083 0.451323 -0.268384 
367 1 8.37447 7.84542 2.58766 2.44516 -0.914841 0.193376 
368 1 0.827418 5.63443 1.64262 -0.740058 0.448735 -0.545327 
369 1 1.26564 6.9491 2.71239 0.685119 -0.605282 -0.445207 
370 1 6.45516 0.512965 0.611228 0.498624 -0.0495314 -1.56994 
371 1 1.89311 2.95476 5.18987 0.607992 -0.21923 -1.16838 
372 1 8.98266 0.591253 0.638538 -0.398362 0.336219 0.910343 
373 1 4.48126 9.04446 2.75032 0.318442 -0.45445 0.21321 
374 1 4.74493 5.24071 4.64945 -0.450844 0.418647 0.0979826 
375 1 5.05108 8.66521 0.514605 0.877413 -1.05978 -0.231489 
376 1 6.43438 7.17735 4.07708 0.617242 0.0381863 -1.23809 
377 1 4.11471 2.23951 3.83795 0.794632 1.09754 -1.52589 
378 1 0.923025 6.22885 0.888146 -0.60485 0.478209 0.287294 
379 1 4.72071 5.82567 2.13063 0.319621 0.259372 -0.110167 
380 1 8.03404 7.89031 4.51259 0.934507 1.78216 0.0629619 
381 1 3.09543 3.48566 5.64222 -0.269217 0.826374 0.527176 
382 1 8.65311 4.22869 4.37237 0.586164 -1.90625 0.676512 
383 1 3.88047 5.11686 4.01554 1.34434 -0.00498374 0.209576 
384 1 5.34704 5.04457 6.21074 1.56439 0.221316 -0.747279 
385 1 8.67697 3.47649 5.93552 0.62595 0.353468 -1.18681 
386 1 2.67079 2.17396 2.69558 -0.275453 -0.197906 -0.354312 
387 1 3.47486 2.33207 6.95847 -0.200438 1.16498 0.345825 
388 1 6.24093 9.33223 6.59116 -0.89012 -0.157352 -0.230166 
389 1 3.54274 0.93226 1.57376 0.456326 -0.784069 -0.139432 
390 1 2.5841 0.750597 5.01131 0.628188 -0.470554 0.834669 
391 1 7.05975 4.8845 8.71993 0.458449 -0.210701 1.59563 
392 1 5.34432 7.09865 5.00421 0.772393 1.49792 0.469141 
393 1 2.43903 7.80163 6.93918 -0.459433 -0.273238 0.0246897 
394 1 5.91367 7.97149 3.78746 -0.0573284 0.520321 1.33193 
395 1 5.46004 6.5934 7.30578 -0.299646 -1.72984 -0.931191 
396 1 4.62475 5.57105 7.65426 -1.33929 0.179044 -0.0197178 
397 1 6.43779 0.075068 9.16102 0.796674 1.01196 -0.361514 
398 1 0.199455 6.97769 6.83332 0.393183 0.977769 0.668091 
399 1 0.821495 1.44424 6.95301 0.14965 0.208013 1.03721 
400 1 0.530354 4.34996 4.82224 -0.251381 0.551314 1.2472 
401 1 3.58581 1.99723 5.23742 0.387235 -1.04278 -0.587864 
402 1 2.19291 5.50022 3.00509 0.249012 -0.461226 -0.281018 
403 1 7.07959 8.697 5.76678 0.346136 0.382815 1.09517 
404 1 0.0524891 5.79922 2.23408 -0.869562 -0.641464 0.310094 
405 1 4.8186 4.78177 6.99697 0.923538 0.712088 -0.151793 
406 1 2.80861 9.30537 5.91355 0.522817 -0.584559 0.434791 
407 1 8.84761 7.28514 3.27474 0.10202 -0.0658828 0.00247792 
408 1 1.031 8.04264 3.97942 -1.08544 -1.10489 -0.329815 
409 1 1.73074 0.197928 8.97023 1.14782 0.00182472 0.520778 
410 1 8.21275 5.52389 3.39247 1.39188 -0.0566202 -0.399999 
411 1 3.11865 0.913343 7.74793 0.879851 -0.350019 -0.240099 
412 1 5.75871 3.97786 4.84048 -0.0308654 0.0350956 0.74796 
413 1 2.60523 0.316031 3.35896 -0.284621 0.523802 -0.0330149 
414 1 7.11719 5.44864 0.517042 -0.16582 -0.0996163 0.499232 
415 1 8.94554 8.61644 9.05179 0.353525 -0.662732 0.474741 
416 1 9.16044 5.63311 3.14589 -1.28817 0.512775 0.328551 
417 1 2.8685 9.35469 6.87342 -0.211966 1.77535 -1.1272 
418 1 0.518759 0.147345 0.919282 -0.521205 -0.0714877 0.240182 
419 1 3.42388 0.492173 6.34079 1.61185 -0.558112 0.669777 
420 1 6.33753 7.30438 6.50306 -0.40065 -0.165929 -0.67086 
421 1 8.47251 1.93972 8.49746 -0.54535 0.44448 -0.654979 
422 1 2.29257 1.63243 1.43251 0.16911 0.676972 -0.509549 
423 1 8.48195 0.443813 6.69308 -0.738368 -0.753255 -1.29307 
424 1 4.58933 0.795214 8.43139 0.0359215 0.195577 1.01811 
425 1 3.12903 7.27592 1.44434 -0.922426 -0.629608 0.848019 
426 1 5.69519 0.633017 6.94189 -0.496334 0.25023 0.0156123 
427 1 8.7855 4.81227 3.54793 0.569885 -0.406854 -0.136641 
428 1 6.82495 1.63436 5.22138 0.734725 0.138498 0.0310724 
429 1 3.94923 4.14532 7.3464 -2.43139 -0.0964298 0.386346 
430 1 0.651295 4.04229 5.81424 1.86086 -0.060712 1.53087 
431 1 8.6077 4.54413 8.07242 0.527433 1.35242 1.32011 
432 1 8.18939 7.91248 3.567 0.557822 -0.915938 0.00371672 
433 1 2.77145 8.61761 0.287203 1.19602 -0.0911545 -0.306281 
434 1 7.29274 7.52804 3.70284 0.220019 0.221283 1.2126 
435 1 0.083066 2.49172 1.53115 -0.213035 1.40772 0.550805 
436 1 8.00338 2.6664 7.86132 -0.17925 0.577289 -1.06128 
437 1 2.35755 6.72527 1.36977 0.12799 -0.888866 -0.566418 
438 1 1.46248 5.96659 2.49775 0.439411 -1.06025 0.630675 
439 1 0.686878 5.30793 4.73769 -1.75762 0.304998 -0.279363 
440 1 6.82425 7.74019 5.83855 0.293697 -0.00947724 -0.943868 
441 1 2.07 6.56564 5.13975 0.343378 -0.309479 0.393109 
442 1 9.18953 2.53063 4.30173 -0.718316 0.526169 1.66036 
443 1 2.23501 2.74993 3.32501 -1.05041 0.736865 -0.982113 
444 1 4.09602 4.95911 5.62322 -1.38176 -0.727276 -0.672587 
445 1 4.32959 2.82113 6.77594 -0.792273 0.629727 -0.989432 
446 1 2.67895 1.63322 5.42951 -0.627965 -0.724813 0.252986 
447 1 8.50073 7.01318 2.21259 -0.121209 0.566189 -1.18923 
448 1 8.31284 7.4312 6.19858 -0.953046 0.417842 0.687713 
449 1 5.12017 0.25025 1.938 0.846972 -0.647564 -0.516637 
450 1 6.56315 5.69286 4.58594 -1.29441 -0.945388 -0.268986 
451 1 3.14765 2.91895 2.96523 1.22192 -0.97557 0.377531 
452 1 1.54924 7.83176 6.25599 0.693602 1.09845 0.336975 
453 1 5.19583 7.3349 2.52103 0.2491 0.826296 0.640891 
454 1 3.85881 6.03857 6.78011 -0.175629 -0.530053 0.290633 
455 1 8.18842 1.02593 8.41443 0.483929 0.903723 0.336526 
456 1 7.92063 5.80248 0.955005 0.254544 1.0007 -0.34939 
457 1 0.402792 0.912884 6.23626 0.298388 0.863158 -0.0852685 
458 1 7.45833 8.42131 3.94627 -0.153152 0.421225 -0.252737 
459 1 1.97668 0.234585 5.59933 -0.127845 0.286435 0.266335 
460 1 2.41256 2.12348 0.59023 0.655103 0.0816306 -0.305647 
461 1 5.00295 2.6883 4.11977 1.22212 0.623438 1.09108 
462 1 1.42566 6.23559 5.87896 1.77171 0.0669776 0.53802 
463 1 4.77135 4.33947 3.48941 -0.314278 1.04437 -0.272428 
464 1 0.741339 1.04692 4.44848 0.223199 0.774647 -0.343801 
465 1 4.08071 2.74773 3.00324 1.14241 -0.670055 0.365931 
466 1 0.378313 8.74358 4.10824 1.37949 1.08109 0.217081 
467 1 7.62107 5.34687 6.94079 -0.164814 -0.0519243 0.59406 
468 1 2.11475 7.57172 1.01799 0.0679504 0.416095 -0.847301 
469 1 8.62559 5.16607 0.534748 -0.401633 0.0736906 0.600585 
470 1 7.49467 5.53817 2.79015 0.381758 0.374426 0.15537 
471 1 3.86959 3.63221 3.29566 -0.457719 0.326939 -0.546537 
472 1 4.47865 5.4216 6.41305 -0.615024 0.58142 -0.910385 
473 1 8.66044 7.48093 0.60568 1.21252 -0.322949 -1.18987 
474 1 1.32602 6.93027 6.55712 -1.19946 1.32852 -0.377191 
475 1 8.66514 8.70393 2.00065 0.465669 -0.259659 -0.753432 
476 1 8.71667 6.549 4.61413 -0.424708 -0.0951743 -0.957631 
477 1 3.36397 7.67615 3.22624 0.788089 0.293797 -0.489244 
478 1 2.41956 4.61794 2.66744 1.38592 -1.2667 -0.48817 
479 1 0.161747 4.84384 5.53055 -0.0725387 -0.0559995 0.0441891 
480 1 6.58998 7.94527 7.12292 -0.58646 -1.15407 0.613826 
481 1 2.06743 5.21355 3.9179 -0.0313563 -0.877116 -0.697898 
482 1 1.74657 4.16649 2.04995 0.53258 1.46371 -0.295228 
483 1 4.29806 0.91365 5.31699 0.541822 0.571554 0.242483 
484 1 3.0513 7.72826 0.617849 1.00439 -0.455398 -0.466714 
485 1 4.0604 5.10119 2.14637 0.192607 0.643641 -0.502237 
486 1 2.832 3.10174 6.85075 0.147445 0.536851 0.507452 
487 1 1.85219 6.56339 4.21428 0.686381 -1.04268 -0.485686 
488 1 7.86865 4.63475 3.84671 -0.264215 0.137569 -0.677506 
489 1 5.81676 7.22179 0.251844 -0.642032 -0.450281 -1.03768 
490 1 1.35123 8.44786 7.76669 -0.0624288 0.460309 -0.418958 
491 1 2.12049 6.6632 2.30539 0.0644176 -0.0834161 0.481494 
492 1 6.17294 4.84576 5.74858 0.650771 0.985599 -0.273378 
493 1 0.891757 3.76426 4.20717 -0.398176 0.789989 0.483754 
494 1 0.588122 4.33649 2.4169 0.16018 0.405031 1.04676 
495 1 4.83134 7.00185 0.409147 0.296956 0.7345 -1.0693 
496 1 8.60454 1.36661 5.37284 -0.987325 -0.163412 0.424813 
497 1 0.0782462 4.93893 1.86366 0.822837 0.427516 0.905428 
498 1 1.9466 0.69038 1.08054 0.965992 -0.947337 0.305113 
499 1 7.97798 9.07864 9.23889 0.422906 1.71767 -1.04204 
500 1 6.56167 8.8236 3.83261 0.107911 -0.120646 0.542716 
501 1 7.48476 2.24951 8.53407 -0.364454 0.758573 0.433647 
502 1 8.90835 1.84064 2.00398 -0.783998 -0.963798 0.598315 
503 1 2.78376 6.68398 4.49002 1.33626 0.193793 -0.382529 
504 1 4.37407 9.26851 8.68824 0.855936 1.02466 -0.551005 
505 1 9.10583 0.571098 8.36725 -0.301164 0.323743 -0.24778 
506 1 6.76004 0.723757 5.60559 0.310077 0.586134 0.284999 