ITEM: TIMESTEP
1271
ITEM: NUMBER OF ATOMS
1000
ITEM: BOX BOUNDS pp pp pp
0.0000000000000000e+00 9.4000000000000004e+00
0.0000000000000000e+00 9.4000000000000004e+00
0.0000000000000000e+00 9.4000000000000004e+00
ITEM: ATOMS id type x y z vx vy vz 
1 1 8.01812 7.17614 6.82948 -1.22067 0.387229 -0.101709 
2 1 5.04427 6.58638 2.05423 -0.507805 0.691954 -1.31806 
3 1 7.66436 7.27671 1.94912 1.08832 0.850944 0.302727 
4 1 0.878036 2.55767 3.58194 -0.171495 -0.0201658 0.482376 
5 1 4.29146 4.14281 8.28461 0.227191 1.13332 -1.32585 
6 1 1.91197 7.2057 2.26216 -0.661419 -0.438622 0.501491 
7 1 6.98172 0.105617 0.713707 0.622797 -0.111923 0.00768855 
8 1 6.38336 2.63827 3.43501 -0.670575 -0.56205 1.04706 
9 1 4.51084 2.7435 7.22225 -0.715175 -0.87967 0.197307 
10 1 5.04171 8.03333 0.239619 -0.0339588 -0.586516 0.279001 
11 1 0.456514 8.62025 8.90749 -0.221107 -1.21513 0.766604 
12 1 5.23897 2.98846 7.78059 0.466685 -0.942933 0.0658837 
13 1 5.56754 4.40904 0.999308 0.242099 0.760803 -0.484243 
14 1 6.79322 2.28749 6.17941 -1.09002 0.676539 0.266478 
15 1 0.770841 3.81312 2.58643 0.257703 0.653449 -1.28648 
16 1 6.02119 3.07497 0.195377 -0.462191 0.317393 -0.244367 
17 1 7.46379 5.01195 1.02535 -0.536698 -0.268137 -0.862896 
18 1 4.20892 4.47635 3.49928 -1.46797 -1.11858 -1.13127 
19 1 7.04144 0.236334 7.86252 -0.201035 -0.152716 -0.370453 
20 1 6.64809 1.53705 0.554232 0.103134 0.772664 -0.480686 
21 1 0.877679 1.34809 0.601754 1.35074 -0.137211 0.307312 
22 1 2.8243 4.07763 4.33362 -1.61144 -0.607197 -0.787257 
23 1 6.24355 9.35661 4.49846 0.585373 0.999159 -0.504868 
24 1 5.04349 2.9136 0.0785053 0.246484 -0.466054 1.89584 
25 1 8.26536 3.86367 6.19008 -0.792502 -0.892166 0.244133 
26 1 1.80609 4.48124 1.17026 0.393667 -0.468833 -0.0487251 
27 1 3.04998 7.66803 0.166813 0.00632442 -0.296808 -0.0510144 
28 1 8.30107 2.89963 9.31525 -0.334277 -0.379401 -0.0662287 
29 1 8.25219 7.62863 1.24849 -0.888846 0.0948662 0.267465 
30 1 5.10784 7.56355 2.69548 0.608052 0.637947 0.427547 
31 1 1.04941 6.9016 2.10185 -0.201537 0.0158055 0.132589 
32 1 9.0284 4.76227 5.03004 0.310211 1.22157 1.856 
33 1 6.67378 0.430577 2.5849 -0.302268 -0.822842 0.0401891 
34 1 8.98405 5.45064 0.653099 -0.528991 -1.15993 0.699967 
35 1 2.5845 6.09991 8.82392 0.19098 -0.71034 -0.0929359 
36 1 1.41631 4.99645 0.395179 0.73629 -0.26375 -0.397171 
37 1 5.8666 5.19654 8.69411 -3.02239 -0.0902839 -0.257633 
38 1 7.86157 4.56834 1.94137 -0.460018 0.300502 -0.615286 
39 1 6.73887 6.86984 6.05318 -0.165662 0.22786 -0.447112 
40 1 8.26306 4.5862 5.54439 -0.662127 0.515748 -1.45946 
41 1 1.72214 2.4723 8.15998 -0.397926 1.26254 -0.776095 
42 1 7.8762 6.29625 7.18494 -0.584459 -1.65432 -0.326805 
43 1 5.48511 8.72261 5.54045 0.250861 0.131771 0.547232 
44 1 8.18247 7.23838 0.3656 -1.66254 0.313002 2.24902 
45 1 6.24529 0.787428 1.07404 0.302981 1.58818 -0.777952 
46 1 6.94453 6.0638 5.54768 -1.1608 0.780058 -0.78271 
47 1 5.91247 2.13218 0.431787 -0.860466 -0.694464 0.179844 
48 1 3.96144 5.77506 2.5412 -1.99148 -0.0989735 -0.560382 
49 1 6.65297 4.42469 8.25403 0.556559 -0.884062 -0.587908 
50 1 7.0264 4.52755 3.48251 -0.776663 -1.91376 -0.687194 
51 1 4.24901 3.40431 4.7117 0.548952 0.369313 -0.563117 
52 1 1.10249 3.17164 8.32644 -0.700423 1.31936 0.455864 
53 1 7.75506 9.04992 0.399821 0.280558 -0.205231 -0.112554 
54 1 5.51577 5.57788 4.68397 -0.117529 1.31278 -1.21702 
55 1 1.36976 3.17149 4.25994 -0.0460416 2.01304 -0.442022 
56 1 0.555603 4.14215 3.54985 -1.43183 0.453761 -0.483029 
57 1 5.20975 0.0422927 1.44706 -1.54648 -0.00529331 -0.886507 
58 1 9.20563 3.82701 6.4019 -0.0439777 -0.241202 0.387856 
59 1 8.16208 4.95606 0.368987 -1.89301 0.549731 -0.26831 
60 1 7.97913 0.275761 7.5607 -0.930679 -0.420347 -0.950781 
61 1 0.493484 8.98773 4.6887 0.244358 -0.436625 -0.604195 
62 1 4.40957 2.59648 3.24626 0.333491 -0.417524 -0.642091 
63 1 0.225686 0.350278 8.50488 -0.174087 0.839668 1.24664 
64 1 8.17343 6.51974 8.96943 0.808761 1.86325 -0.11097 
65 1 1.73536 6.79597 3.6487 0.847624 -0.675356 -1.0953 
66 1 0.553665 2.25363 1.79867 0.303607 0.0906692 0.575368 
67 1 7.12931 0.577736 5.22008 -0.661501 0.123402 0.328702 
68 1 1.72785 5.27242 1.73545 -1.32001 -0.639947 -0.00238368 
69 1 0.984141 0.581512 2.06285 0.784422 -0.281176 -0.200584 
70 1 8.74835 1.37731 8.60894 -0.695812 0.0126478 -1.55297 
71 1 7.72688 0.362664 1.30962 -0.818673 -0.523737 1.42567 
72 1 6.28048 2.63889 5.43558 -0.188056 -0.778593 -0.689084 
73 1 0.650148 5.6126 6.21783 0.732014 0.186235 -0.399436 
74 1 7.89102 7.41048 8.81766 -0.25508 -1.78807 -0.245067 
75 1 1.95998 4.31649 7.47831 0.278824 -0.279059 -0.543199 
76 1 5.49785 5.62398 2.17561 0.744814 -0.029386 0.531675 
77 1 6.5652 0.882528 4.53387 -1.13649 -0.73019 -1.10783 
78 1 5.30289 8.08021 1.92375 0.690646 0.774384 -0.824678 
79 1 4.95185 6.08892 7.54828 -0.685688 0.436237 -0.681136 
80 1 5.25556 4.61401 6.73726 -0.463062 -0.436198 -0.807314 
81 1 3.5022 1.81397 0.922132 -0.107232 -0.482826 1.49657 
82 1 2.25508 4.54693 0.121035 2.31968 0.723685 0.0133178 
83 1 2.08469 3.43718 3.6297 0.490052 0.291988 1.1543 
84 1 5.86993 9.35132 6.21068 -0.219697 -0.601628 -0.610576 
85 1 1.56909 4.87434 8.17574 0.190153 -0.342596 -0.131749 
86 1 8.21133 8.35653 1.91987 0.892677 0.134764 0.398697 
87 1 2.66177 2.7334 3.14416 -0.168597 -0.741735 -0.470867 
88 1 5.92199 8.79221 3.7579 -0.467785 -0.233158 0.122226 
89 1 2.45338 3.09702 8.31765 -0.98054 0.307113 1.50708 
90 1 2.56591 6.6831 2.76575 0.897597 0.714154 1.14913 
91 1 5.38396 0.545475 2.69362 -0.259372 -0.562621 -0.54415 
92 1 8.73132 5.4735 8.26118 -2.02317 -0.390095 0.858916 
93 1 8.71828 3.00824 3.04135 -0.608421 -0.163547 -0.682434 
94 1 1.96194 8.54626 1.50221 0.51705 0.499178 0.514532 
95 1 2.89638 5.56812 3.96426 -0.982063 -0.327921 0.438721 
96 1 7.64731 1.63848 8.42756 -0.368521 0.374799 0.661889 
97 1 5.36051 3.7852 0.236272 -1.44972 -0.510269 0.429654 
98 1 5.83376 7.11566 6.00508 -0.955692 -0.661739 1.7269 
99 1 5.52612 2.65262 4.84796 0.8255 -1.26595 0.592766 
100 1 4.75538 7.07155 0.471588 -0.580416 -0.0142561 0.887002 
101 1 0.822456 3.55752 7.50666 -1.1922 0.20332 0.757007 
102 1 5.49429 3.89798 7.32728 -0.668345 0.395534 -0.503379 
103 1 8.50651 4.32337 2.63953 -0.505068 -0.302014 -0.85963 
104 1 7.79656 6.32181 3.49331 -0.518683 0.229465 -0.224263 
105 1 5.35522 0.981326 1.38572 -0.193384 -0.112301 1.66505 
106 1 1.22727 8.84373 7.03538 -1.21104 0.0863166 0.242552 
107 1 7.37853 3.53124 4.84054 1.16895 -1.19255 0.104323 
108 1 0.151449 5.53176 5.33704 -1.08077 -0.356263 1.12522 
109 1 7.99529 0.565802 3.68346 0.32946 -0.87274 0.297203 
110 1 7.18567 5.92155 2.64465 -0.808802 -1.13125 0.842368 
111 1 6.38194 3.33335 1.86854 -0.761583 0.171118 -0.0667656 
112 1 0.00376355 4.9246 3.78454 -0.748618 0.251591 -0.496324 
113 1 5.78183 1.50438 7.24184 0.344864 -0.863662 -0.620523 
114 1 0.512266 1.97592 2.90401 -1.52329 -0.190867 1.01519 
115 1 2.24955 6.005 3.38304 -0.893963 -1.48011 0.338058 
116 1 4.27125 3.51146 0.393951 -0.550682 0.255529 -0.122753 
117 1 7.52787 1.46327 3.63689 1.07942 -0.675604 0.898086 
118 1 4.12775 2.62259 2.33059 0.145724 1.1304 0.808685 
119 1 4.78552 6.08981 0.442995 0.0807174 1.52746 0.291185 
120 1 8.65386 6.74222 3.62148 0.327819 0.493028 1.26217 
121 1 8.80763 7.63398 3.04676 0.442545 -0.209215 1.5564 
122 1 9.07289 6.275 8.6289 -0.0298304 0.838151 -0.34623 
123 1 8.4939 8.94954 8.00434 -2.65071 0.950674 0.141544 
124 1 4.63237 5.29469 4.95276 0.157461 0.364558 1.64945 
125 1 7.27916 9.0771 4.98322 -0.125278 -0.372672 -1.1833 
126 1 5.66426 3.86398 2.59644 -0.670004 -0.211989 -0.585248 
127 1 1.77605 5.17728 3.36123 -0.424344 0.522488 1.69665 
128 1 5.3669 6.79473 9.11348 0.916497 -0.837794 -1.49609 
129 1 0.212081 3.29756 3.17662 -1.56568 -0.565659 -0.312361 
130 1 8.50102 8.08987 5.62084 0.615487 0.169507 -0.0858739 
131 1 7.86483 6.33115 2.11213 -0.324558 0.318535 1.17876 
132 1 1.24983 8.07713 3.42137 -0.227121 -0.726067 -0.0156519 
133 1 5.91179 3.53917 1.06836 0.0179838 -1.35849 0.0192534 
134 1 3.93431 9.38953 0.383871 -0.911996 0.598553 0.298551 
135 1 2.77319 8.04061 3.84853 -0.809602 -1.17536 -0.146598 
136 1 8.14228 0.56754 5.13872 -1.17241 -0.169178 -0.444423 
137 1 2.35418 3.05616 1.97556 0.675545 -1.59639 -1.22595 
138 1 1.21398 7.89201 6.89748 0.251755 0.635197 0.471095 
139 1 4.17997 8.30628 0.876443 0.0836956 -1.45786 -0.534686 
140 1 4.58107 3.68518 7.41466 -0.114487 1.09767 0.135852 
141 1 5.23983 4.77479 2.50311 -0.319445 -0.413805 0.203471 
142 1 9.35348 4.65881 1.03895 0.127247 0.322528 0.707932 
143 1 5.44889 1.65966 3.22895 0.855833 0.397988 1.17304 
144 1 6.80177 4.25494 6.46685 1.15527 -0.641107 -1.00892 
145 1 7.46479 8.79703 7.53723 -0.352997 -0.174558 -0.0798133 
146 1 5.37358 2.77944 0.937833 0.0183618 0.745053 -0.649452 
147 1 4.41054 7.86014 3.28578 -0.746748 0.982852 0.751902 
148 1 2.90828 8.40813 1.94808 -0.00828128 0.113076 0.70475 
149 1 7.09632 7.19906 6.87164 -0.324163 0.200813 0.195543 
150 1 5.67871 2.31143 1.88534 -1.81581 -0.198814 1.10078 
151 1 7.81551 3.16722 4.00483 0.394837 -0.562344 0.311804 
152 1 3.09183 9.13244 2.53797 -0.211809 -0.892478 1.1441 
153 1 6.47472 8.41355 3.08143 -0.156025 1.0301 1.18516 
154 1 6.51985 3.56828 5.77204 1.03507 0.0941539 0.48074 
155 1 8.62513 4.15659 0.66484 0.306153 -0.545576 -0.455073 
156 1 4.97745 2.17572 2.54591 -0.277523 1.38811 -0.516446 
157 1 4.99882 9.13956 2.34652 0.365298 -0.745641 -0.820979 
158 1 7.06051 5.55321 0.324806 1.24615 0.586851 -0.133135 
159 1 7.43286 5.43189 3.41597 -0.0181306 1.06912 0.0320112 
160 1 6.71181 6.42042 0.425961 0.515447 1.42825 0.0851525 
161 1 7.2013 2.92592 5.56402 1.14862 0.374294 -2.24521 
162 1 9.24038 5.38615 6.63571 1.17167 1.49568 1.73596 
163 1 5.31545 5.31593 0.729676 0.275878 2.18446 0.1766 
164 1 7.6471 9.15177 8.41145 0.49462 0.299706 1.48648 
165 1 0.738609 0.843064 7.81869 0.564375 0.18211 0.06642 
166 1 6.36849 6.07323 6.33782 0.249313 0.060346 0.461782 
167 1 8.91846 2.49187 5.36079 0.394426 -0.179304 0.0697374 
168 1 8.52547 9.12458 3.64473 -0.0770796 0.654338 -0.402141 
169 1 5.27359 4.61497 4.62707 -0.497497 0.353935 0.589019 
170 1 1.59764 6.13899 8.76436 -0.577993 0.182396 0.539975 
171 1 1.00624 5.69872 4.88785 0.8727 0.0872676 1.63262 
172 1 0.333991 8.21163 4.12372 -0.609368 1.15493 -0.328255 
173 1 6.50448 2.98106 8.74642 -0.046538 0.275827 -1.50747 
174 1 9.24454 6.91604 5.42851 0.0629981 -0.125601 0.544631 
175 1 6.77424 1.01841 8.4048 -0.1442 -0.529199 0.21592 
176 1 6.62414 5.63964 1.93658 0.676357 -0.654299 0.308029 
177 1 4.92812 3.1591 2.64671 0.270093 0.803346 0.157127 
178 1 1.09515 2.86715 1.27622 0.511529 -0.229935 0.565988 
179 1 2.02617 4.80524 2.51644 -0.0701086 -0.857565 0.554749 
180 1 5.34382 6.42225 6.70467 0.192717 0.899493 -0.0932015 
181 1 3.12605 0.330469 9.35012 -0.387956 -0.325547 -0.141095 
182 1 8.05184 5.44962 7.60065 0.0283052 1.52839 0.235729 
183 1 3.24905 3.25604 4.627 -0.761665 -0.776223 0.240271 
184 1 5.33838 6.02129 1.31324 -0.750357 -0.385375 -0.424811 
185 1 1.93813 3.50448 1.22301 -0.431528 -1.67208 -0.725782 
186 1 6.21875 8.08105 2.23525 -0.14292 0.909989 -0.915123 
187 1 2.89848 1.45577 2.25173 0.186694 0.371163 0.272451 
188 1 2.03606 5.96944 0.21182 1.78958 0.428769 -0.130148 
189 1 1.42159 3.39717 2.02854 0.400774 0.915896 0.369345 
190 1 6.72265 7.94429 9.16652 -0.188636 0.551677 -0.225125 
191 1 2.43884 1.82528 3.28397 -1.78837 -0.415232 -1.01091 
192 1 6.50203 5.37232 6.93834 0.0899267 -0.64815 -0.602137 
193 1 3.83508 0.975927 0.427435 -1.22558 -0.0879366 0.332347 
194 1 4.60688 7.7227 4.20866 0.313927 0.0842466 0.102481 
195 1 7.96276 4.64916 7.09792 0.639283 -0.200715 -0.610681 
196 1 3.70287 3.60627 8.81958 0.840675 -0.146265 -0.12757 
197 1 7.50231 2.75778 2.11868 -1.37212 0.377829 0.434805 
198 1 0.22217 0.0213466 0.215519 0.380459 -0.206625 -0.225778 
199 1 0.607627 0.816567 9.26159 0.338935 0.137801 -0.228292 
200 1 8.32029 4.81387 8.83663 0.722117 -0.992279 -2.24026 
201 1 2.30762 5.76469 2.4523 -0.846922 -0.617267 -0.343053 
202 1 1.76587 6.25437 1.83343 0.244054 -0.441449 -0.600302 
203 1 0.258009 7.48287 7.66612 -1.59276 -0.822332 -0.763442 
204 1 5.47673 8.57615 1.06366 -0.701257 -0.725643 -0.269622 
205 1 1.71235 2.07125 0.373494 0.464814 0.138884 0.0742454 
206 1 7.6732 6.34352 0.394905 0.614548 -1.28215 0.639762 
207 1 4.91928 3.59479 1.07183 0.418066 1.21806 -0.819456 
208 1 7.35859 8.8853 1.3508 -0.336076 0.140707 0.0908467 
209 1 0.738445 6.5928 7.82804 -0.524297 -0.104884 -0.690594 
210 1 7.16145 5.59688 7.75545 0.3933 1.25541 -0.279911 
211 1 6.88449 8.21171 5.0291 1.25938 -0.865918 -0.847663 
212 1 7.21923 3.61165 3.36585 -0.442719 0.992437 1.61851 
213 1 5.87035 4.07525 8.84472 0.138713 0.150744 -0.140274 
214 1 3.39281 6.42054 3.89453 0.167317 -1.26243 -0.807803 
215 1 8.59734 7.23027 6.06042 0.562872 -0.163957 0.769584 
216 1 2.27157 0.712114 1.85929 -0.285676 0.829283 -0.0269138 
217 1 8.02653 3.22233 1.41483 -0.327604 -0.59119 0.97502 
218 1 3.40376 7.37405 4.24829 -1.34894 0.280603 0.48734 
219 1 9.19824 6.65063 7.72402 0.44161 -0.165306 0.423758 
220 1 0.54656 8.07063 5.07663 -1.382 -0.448848 -0.32205 
221 1 1.52813 3.95793 0.437817 1.17252 0.733999 -0.689491 
222 1 0.941315 6.9754 3.11007 -0.896146 1.18277 -0.150567 
223 1 7.63587 1.38489 5.29659 0.112895 -0.480895 -0.819368 
224 1 4.44179 2.55135 0.714641 -1.16903 0.931239 -1.13156 
225 1 6.40815 8.94053 5.38431 -0.175451 -0.141373 0.451154 
226 1 8.22026 7.59462 4.40498 1.10808 -1.17645 -2.05693 
227 1 6.71764 8.93377 2.2111 0.336705 -0.959719 -0.991056 
228 1 6.08889 7.98556 5.6066 0.378039 0.331062 -0.133124 
229 1 8.90996 3.12452 1.70241 1.25293 -1.1734 -0.962888 
230 1 4.85982 5.25383 3.98621 -0.0164813 0.916782 -1.9486 
231 1 9.06041 7.61704 0.620792 -0.795583 -0.453957 0.409035 
232 1 2.49351 2.69504 0.430931 0.26833 -1.14817 0.479232 
233 1 8.91467 1.03365 2.77408 1.28206 -0.225023 0.0658354 
234 1 2.02917 7.58227 3.13494 0.579747 0.14743 0.274763 
235 1 4.61655 4.0929 2.68169 -0.66415 -0.470399 0.088224 
236 1 0.536957 7.35202 1.42251 1.47088 -0.503136 0.0346002 
237 1 0.982566 8.8408 1.26389 -1.34772 -1.45307 -0.155998 
238 1 1.79151 1.12886 0.406039 -1.24501 1.14734 2.06099 
239 1 2.41449 9.32674 3.24013 0.840246 -1.2838 0.562973 
240 1 7.41235 1.76442 2.07037 -0.108495 -0.451455 -0.567877 
241 1 8.28719 6.31678 5.95867 -0.0694017 1.2969 0.897051 
242 1 4.72123 8.66222 4.00968 -0.193737 0.292126 0.522962 
243 1 3.02193 3.42646 3.67511 -0.0107203 -0.524751 1.07162 
244 1 0.634736 4.26939 0.506194 -0.168581 -1.29807 0.335273 
245 1 2.21629 7.39851 7.80674 -0.691444 -0.0125676 0.510881 
246 1 6.06563 4.2222 1.79292 -0.290419 -0.711779 -0.757718 
247 1 1.08392 1.66838 9.13347 0.246193 -0.142233 0.350776 
248 1 0.576498 4.96953 8.13252 -0.382972 -0.971236 -0.587093 
249 1 0.973469 7.38408 0.586929 -0.217835 -0.938543 -0.00446953 
250 1 7.92758 1.97655 2.91979 -0.761716 0.408912 -0.0838334 
251 1 1.47719 4.45585 9.01787 0.519498 0.296198 -0.656585 
252 1 7.18607 7.62042 4.36076 0.174596 -0.857715 -0.0290646 
253 1 1.9535 8.13337 2.35088 -0.599928 -0.0957147 -0.609089 
254 1 6.46993 0.693569 0.155214 -0.065318 0.516534 0.100811 
255 1 8.67987 9.09045 7.05253 0.929096 -0.866191 0.512938 
256 1 1.27609 8.62953 8.44585 -0.0886069 0.580181 0.870148 
257 1 8.29266 1.20346 7.78476 1.3243 0.227843 -0.925978 
258 1 1.81631 2.97077 2.7975 0.906093 0.685291 -0.682961 
259 1 5.80961 8.87221 1.92303 -0.115671 1.47535 0.303058 
260 1 7.21246 6.01547 1.17635 -1.6782 -0.436518 0.784982 
261 1 7.91074 2.06236 7.63046 0.336825 -0.48073 0.0627119 
262 1 6.63812 4.09318 2.56003 0.367451 0.329747 0.425141 
263 1 6.81892 3.26769 4.10473 0.190028 -0.411088 -0.608553 
264 1 9.38048 0.214911 7.55356 -0.898549 0.647704 0.252908 
265 1 2.31242 2.21394 2.41595 0.743412 0.424536 -1.25024 
266 1 3.11898 5.33465 2.25404 0.157648 0.667708 0.185277 
267 1 8.15838 3.25494 5.41918 -0.467789 -0.314664 -0.331959 
268 1 8.57491 5.6543 9.20338 1.88352 0.767728 -0.334184 
269 1 3.45371 8.86705 1.25359 -1.04383 1.16929 0.161117 
270 1 7.73338 3.04627 7.50306 -0.780894 0.81006 -0.908111 
271 1 4.81118 6.67982 8.34042 0.482074 0.107959 -0.866794 
272 1 2.40985 7.69869 1.60048 -0.766862 -0.0655858 0.416052 
273 1 9.27715 2.19097 8.67663 -0.380753 -0.699037 -1.80006 
274 1 6.34921 7.08142 9.28114 -0.889542 0.185634 1.13417 
275 1 7.74827 8.42321 4.45512 0.167662 -0.0336748 0.197355 
276 1 8.5861 2.30128 0.784172 -0.652979 0.810221 -0.336708 
277 1 8.30496 6.13702 4.33221 -0.133638 -0.218017 -0.81587 
278 1 6.74951 8.75729 8.17908 0.494621 -0.947322 0.0204687 
279 1 2.95928 1.16772 1.37333 1.35149 -1.10063 -0.668563 
280 1 6.16595 4.96368 2.42892 1.6831 -0.868798 -0.519599 
281 1 4.85678 0.676018 8.50196 0.0266379 0.588505 1.07232 
282 1 5.29126 1.50928 8.72988 -1.63108 -0.749944 0.103228 
283 1 1.59431 6.8249 0.102152 -0.637106 0.342739 0.547674 
284 1 5.33506 5.82501 9.13608 -1.40906 0.501718 0.0477756 
285 1 5.81116 2.29969 8.9072 1.07464 -0.254052 -0.153149 
286 1 0.561705 0.495343 3.58763 0.973239 -1.88925 0.651052 
287 1 6.95527 1.50737 6.82925 0.359975 1.33873 -0.745346 
288 1 7.61499 8.96235 3.66282 -0.0441206 -1.10805 -0.44737 
289 1 9.15488 4.56098 8.4808 -1.23177 1.2623 -0.0428339 
290 1 1.71656 5.67879 4.1859 -0.446978 0.792484 0.751185 
291 1 9.0635 7.5873 3.94691 0.553724 0.476778 0.391015 
292 1 6.48082 2.50381 4.50101 1.38238 -0.943536 0.722076 
293 1 8.38651 8.30188 0.586085 0.227938 0.0606565 0.614882 
294 1 6.88567 4.72046 1.73758 -1.48614 0.211004 0.314883 
295 1 7.76979 6.20071 5.12746 -0.476929 -1.69261 -1.17646 
296 1 3.74475 3.88819 4.06328 0.33901 -2.14569 -0.604547 
297 1 8.40004 0.639557 1.98546 -0.208772 -0.30299 1.20186 
298 1 1.74228 3.92377 2.80481 -0.551675 1.04501 1.00382 
299 1 8.56991 0.961985 4.40158 -0.90249 0.220331 -0.833489 
300 1 7.58811 0.949143 4.44931 0.547681 -0.119833 -0.948922 
301 1 7.76162 4.09762 1.13419 0.357689 -0.475539 1.62896 
302 1 4.71724 1.10327 0.0103886 -1.2149 -2.59721 0.422008 
303 1 4.66482 0.624913 0.823728 1.63078 0.209702 0.406047 
304 1 4.75667 2.51959 1.63236 -0.0257478 -0.448383 -0.408117 
305 1 9.01022 9.10433 8.88437 -0.789711 1.14217 1.59961 
306 1 1.46378 0.963079 1.30887 0.964026 -1.19871 -1.69282 
307 1 5.90825 2.92966 2.61139 -0.326244 -0.762741 -1.21807 
308 1 2.7359 3.82086 8.90887 0.375389 -0.215314 0.15969 
309 1 7.10358 3.53452 8.20714 1.3882 1.34742 0.228172 
310 1 9.1858 5.92935 3.48472 0.671949 -1.12912 -0.406435 
311 1 0.688888 3.28394 0.522487 0.670263 -0.380539 -0.243809 
312 1 7.15633 5.2856 5.04693 -0.0905646 0.111705 0.454346 
313 1 6.77531 3.97164 1.17979 -0.790526 -0.436762 -0.720432 
314 1 0.377596 9.11775 2.03454 0.803337 0.368385 0.259665 
315 1 0.213822 6.2822 4.74267 0.435535 0.8343 0.380008 
316 1 6.27759 5.87587 1.08038 -0.279798 0.139053 1.33609 
317 1 0.475103 5.20645 0.332545 -2.05746 -0.670606 -0.444941 
318 1 4.3687 8.62141 9.32859 -0.0254374 0.00358416 -0.18431 
319 1 2.0053 1.31629 2.56856 -0.224758 1.08626 -0.0542054 
320 1 6.10229 8.60111 8.85486 -1.74862 -0.913376 1.01852 
321 1 3.32721 0.382652 1.88923 1.29255 0.0592949 1.01495 
322 1 8.27084 7.01257 5.18804 -0.115157 0.095522 -0.29845 
323 1 2.19518 9.05257 2.29986 1.19131 -0.127358 0.773897 
324 1 8.25729 1.03716 5.95651 -0.092736 -0.308891 -0.420214 
325 1 5.94217 0.336515 3.58064 -1.64046 0.0294405 -0.455456 
326 1 5.95513 3.79713 6.49155 0.320044 0.263884 0.0778337 
327 1 2.71358 8.50061 9.20383 1.34235 1.20445 0.0280175 
328 1 9.15036 1.11936 6.19493 0.325864 -0.122435 0.0023415 
329 1 2.56919 6.76142 1.77193 -0.00303873 -1.57964 0.791766 
330 1 6.50556 5.30266 3.26642 -0.278718 0.0768981 0.944769 
331 1 6.80142 2.44532 0.217661 0.556811 0.156432 0.64233 
332 1 8.9134 9.41199 4.76417 0.462034 -0.56437 -0.529744 
333 1 5.33249 7.6221 8.13437 -0.79057 -0.383981 0.45996 
334 1 5.29579 3.58686 3.4323 0.619818 -0.0772217 0.500777 
335 1 1.52314 0.218126 3.56649 0.0456103 0.207055 0.625799 
336 1 7.40468 6.22323 6.35473 0.507352 2.00175 -0.847855 
337 1 3.41966 2.9349 8.18534 0.435913 0.219532 2.43105 
338 1 9.35609 3.67781 0.0831692 -0.507168 0.534379 -0.167901 
339 1 3.58263 3.05577 2.99664 -1.14863 0.349044 -0.758683 
340 1 2.01703 2.53987 1.24445 0.596627 -0.800754 0.22876 
341 1 8.81606 3.30601 3.94442 0.397704 -0.398898 -0.75309 
342 1 4.01329 0.537077 8.96374 1.8995 -1.55228 -0.697387 
343 1 0.655696 6.34313 5.58091 -0.415046 -0.395221 0.826875 
344 1 0.391177 4.14396 5.19291 -0.220785 -0.204967 -1.13112 
345 1 5.01896 4.55224 8.75422 0.0898706 -0.724643 -0.941592 
346 1 9.19704 5.02415 7.53967 -0.265701 0.2297 1.1677 
347 1 5.85944 4.04681 4.11413 -1.01506 0.350342 -0.281074 
348 1 4.15492 0.065231 1.37194 -0.172992 0.290201 -0.294346 
349 1 8.15247 6.6761 1.2605 -0.752633 -0.851532 -1.07305 
350 1 0.805482 8.17054 6.05996 -1.02431 -0.275843 0.0917973 
351 1 2.41923 6.39325 4.24399 0.907485 0.00633009 0.240886 
352 1 3.82229 8.23946 3.94622 -0.0335892 -0.677302 -0.415298 
353 1 7.27681 0.378033 9.17635 -1.14994 -1.02638 -1.04385 
354 1 0.251104 7.91005 6.80935 -1.24538 0.921079 0.0293135 
355 1 8.31051 5.621 6.61402 -0.122199 0.463597 -0.0931277 
356 1 1.71947 7.79229 8.52212 1.32916 0.359035 0.851703 
357 1 6.81267 5.48956 8.66168 -1.13726 0.722649 -0.790304 
358 1 2.79508 5.38358 0.0418463 0.229474 0.118725 0.22434 
359 1 6.14673 5.51084 5.56439 -0.18735 1.55926 0.798292 
360 1 0.724933 7.29264 5.6356 -0.104531 0.802311 -0.625599 
361 1 4.30493 5.20452 0.964921 -0.950978 -0.257721 0.253012 
362 1 7.85338 7.30063 3.55243 0.213841 0.0394068 1.46745 
363 1 4.13335 4.35685 9.22803 1.13907 -0.234071 0.00555572 
364 1 9.2328 6.15672 6.05161 -1.22838 -1.26218 0.374787 
365 1 8.30053 2.35925 8.47939 0.0163195 -0.591932 0.169728 
366 1 3.2381 5.37569 8.60831 -0.0242867 -0.298871 -0.767472 
367 1 4.02318 1.82157 2.83426 0.461313 0.457566 0.151713 
368 1 2.56252 6.81314 0.106223 -0.505118 0.878584 -0.140284 
369 1 3.79664 2.62159 1.42369 1.6172 0.0486701 -0.944061 
370 1 6.34977 7.72485 6.54768 -0.322259 0.834377 -0.52761 
371 1 1.57447 4.26396 3.67734 -0.424934 -0.522229 -1.08671 
372 1 6.27254 9.1777 0.178841 0.0594854 -0.365547 -0.102448 
373 1 9.02546 7.12468 1.42419 0.542317 -0.315972 -0.682656 
374 1 0.471135 4.92977 4.62867 0.337593 -0.33999 0.187518 
375 1 6.46243 8.49972 7.30365 -0.127277 0.469354 -1.85175 
376 1 1.39122 7.75804 1.6171 -0.405088 0.223946 -0.060907 
377 1 7.42208 2.60439 4.65942 -0.963523 -0.808583 0.477529 
378 1 7.39511 8.66935 2.80273 -1.887 -0.978144 -0.258702 
379 1 8.20968 8.87656 5.2132 -0.42076 -1.24556 0.559712 
380 1 8.67808 0.442008 8.28424 -0.800118 0.0815008 0.926917 
381 1 9.05134 5.5317 4.43765 0.209038 1.06507 0.117344 
382 1 8.89252 5.1236 3.00706 0.33007 -0.23059 0.607234 
383 1 5.00129 5.38057 8.27922 1.54945 -0.109806 -0.416395 
384 1 7.10414 4.97617 2.60839 -1.30029 0.0509239 -0.0712483 
385 1 0.523265 4.5094 9.00861 0.326727 -0.157803 -0.110193 
386 1 3.18621 4.52959 9.33891 1.39742 -0.126139 -0.187345 
387 1 1.08326 7.75723 2.5375 0.305768 -0.564566 -0.723704 
388 1 7.45517 4.96959 9.12062 0.486606 -0.715893 0.00500777 
389 1 4.84162 4.59818 7.66907 0.919632 0.27232 -2.04742 
390 1 4.18947 6.15029 3.38636 -1.37012 0.104088 -1.15347 
391 1 5.34966 4.98174 5.51945 1.56631 -0.0911608 0.0286551 
392 1 3.24417 5.25382 0.876315 1.07492 -0.118881 -0.82886 
393 1 4.66278 1.57107 1.82706 -0.818546 0.409794 0.93552 
394 1 6.94152 7.67803 2.70192 -0.038854 -0.0603713 0.601502 
395 1 1.29452 1.10591 3.1741 -0.252684 0.012056 0.893364 
396 1 5.98667 9.21994 2.78755 0.495046 0.568711 0.158449 
397 1 7.28771 8.18747 1.99855 0.120374 -1.56879 0.354557 
398 1 8.44885 4.89814 1.27681 -0.69077 -0.24547 0.953139 
399 1 6.8825 5.23509 6.07594 -0.134335 0.282362 0.208104 
400 1 6.16874 1.4506 9.10895 0.77534 -0.220804 -0.335581 
401 1 9.15992 8.45239 3.38224 -0.893137 0.63434 0.0606017 
402 1 4.00784 9.0999 2.24234 1.07208 0.405387 -1.11154 
403 1 8.68216 1.37914 0.578362 0.254026 -1.2724 0.117406 
404 1 1.11753 1.533 2.20326 0.288601 0.00394006 -0.115994 
405 1 5.7754 7.25743 2.08861 0.347617 0.0573368 -0.369437 
406 1 8.2389 8.18076 3.62616 1.10267 0.72742 1.50698 
407 1 1.33458 2.60162 9.07366 0.902005 -0.899238 -0.422643 
408 1 7.10791 3.06104 1.31833 -1.29463 0.876896 -0.484252 
409 1 1.15892 6.6491 1.16092 0.630108 -0.566645 0.52159 
410 1 6.05215 2.5637 8.00102 0.080597 -1.45389 0.822394 
411 1 7.60608 8.05477 0.113256 -0.212337 -0.215679 1.28695 
412 1 5.7466 2.12363 4.03902 0.359862 0.220172 2.20191 
413 1 8.03096 9.36948 4.42201 0.653737 -0.293951 -1.38685 
414 1 6.59475 1.28829 5.66175 1.55979 0.934384 -0.186832 
415 1 7.6566 4.09164 4.07556 -0.0642409 1.05624 0.114223 
416 1 9.00878 8.27496 7.49174 0.51669 -0.749984 0.254399 
417 1 7.49553 0.228481 2.95931 0.587787 -0.944145 -0.339616 
418 1 1.46189 4.84627 4.64573 1.76347 -0.0289442 -0.248551 
419 1 7.80035 3.96686 7.74984 1.26224 -0.493279 0.0146914 
420 1 3.0044 3.92472 1.64887 1.65608 -0.543074 0.849313 
421 1 3.27833 0.378548 0.944586 -0.988038 -0.352448 -0.237395 
422 1 1.02986 5.3113 8.89804 1.02593 0.0705173 0.481853 
423 1 6.17924 5.97921 2.75151 0.453812 1.40511 -0.975704 
424 1 8.8101 4.22587 7.182 -0.155409 -0.331292 -1.27479 
425 1 8.16583 3.71512 3.32104 0.610982 0.315071 -0.776012 
426 1 1.15479 5.72864 7.99631 0.0331473 -0.0805698 1.41872 
427 1 3.5141 4.73306 1.61615 -0.897713 -0.543587 0.894516 
428 1 9.35989 2.66012 2.43061 -0.306419 -0.171231 1.14592 
429 1 6.01481 8.40005 4.66039 0.882166 0.68295 0.165784 
430 1 7.41994 8.17835 8.53118 -0.264904 -0.509136 0.837066 
431 1 4.55913 5.20795 3.06709 -0.255648 1.32449 0.255239 
432 1 8.75131 2.98599 6.1775 0.459976 1.15384 -0.484988 
433 1 0.585317 8.5335 2.83087 -0.611835 0.117487 -0.0840296 
434 1 2.2703 5.257 0.83176 0.160161 0.170059 -0.252363 
435 1 8.72008 5.39793 5.76916 0.213939 -2.48063 0.425746 
436 1 2.66295 5.81549 1.52396 0.744912 -0.622383 -0.912935 
437 1 1.63581 0.0597826 1.60634 0.605311 -0.106655 0.0928909 
438 1 8.46555 6.01145 2.85942 -0.272839 0.481956 0.13278 
439 1 0.796664 7.03346 6.97959 0.915371 0.44186 0.528588 
440 1 8.77256 3.77248 8.03333 -0.733914 -0.0532517 0.854863 
441 1 2.07052 1.64858 1.6787 -0.381875 -1.52305 -0.177576 
442 1 7.36518 6.837 2.78858 -1.11561 0.0654492 -0.250912 
443 1 1.78696 8.68697 9.28153 -0.263784 1.90484 0.66735 
444 1 5.08269 7.14102 3.54337 0.793694 -0.357963 -1.54119 
445 1 3.18478 4.93595 4.64503 1.01814 -0.0242283 0.416795 
446 1 5.61424 3.29818 5.63222 -0.711722 1.33159 0.838894 
447 1 3.41159 2.20123 3.47434 1.78053 -0.0357662 -0.468645 
448 1 4.33507 5.99936 4.32687 0.00516986 -0.136935 -0.945993 
449 1 0.238421 6.73486 3.82887 0.749774 -0.478371 0.143429 
450 1 7.34118 2.38191 6.94397 0.225414 0.29779 0.536948 
451 1 5.53312 6.68453 2.848 -0.48577 -0.305917 0.382267 
452 1 7.05567 8.86016 9.09339 0.0435868 0.368882 -0.869025 
453 1 1.8525 2.52085 3.67675 -0.400038 0.645985 0.808625 
454 1 6.04505 5.89972 3.84427 1.02961 0.847557 -0.18143 
455 1 9.29693 5.76361 2.42173 -0.0777883 0.104214 -0.403576 
456 1 9.38047 0.583097 2.04419 -0.848167 0.240173 -0.718662 
457 1 6.16998 9.23004 1.13152 -0.654858 0.419196 1.8405 
458 1 4.31878 1.52653 8.65619 -0.865435 -0.7108 0.465405 
459 1 4.116 2.80629 9.14165 0.454845 0.167808 0.353988 
460 1 2.68921 5.12922 3.11734 0.949838 -0.737205 0.439793 
461 1 7.61548 2.22355 9.15994 -0.65689 0.450918 0.534667 
462 1 7.27307 6.98021 1.05959 0.28861 -0.990977 -1.22521 
463 1 5.8689 1.18754 3.97049 -0.0081577 0.496143 -0.707875 
464 1 0.548655 0.296949 1.26078 -0.297317 0.393292 -0.583727 
465 1 9.40046 8.92267 1.09207 0.296381 -0.99313 0.887165 
466 1 4.46959 6.5194 1.23517 -0.813043 0.729065 -0.0980197 
467 1 0.984414 3.66428 9.12495 0.834395 0.626584 0.16557 
468 1 0.540427 1.23421 1.49911 1.22629 1.60986 -0.389644 
469 1 1.07682 6.50651 4.31778 0.893239 -0.800133 -0.0457161 
470 1 8.27119 6.92496 2.77804 0.193601 0.190552 -0.82239 
471 1 6.74977 2.06827 8.70003 1.19368 -0.363704 0.0559742 
472 1 3.25355 4.65945 3.74016 0.851567 0.407747 -1.49991 
473 1 3.59087 8.05268 8.84852 -0.0164166 0.328837 -0.666359 
474 1 5.01384 1.97965 0.154533 0.225841 -0.111397 0.940232 
475 1 1.89401 7.64985 4.08217 1.35873 0.217221 -1.22688 
476 1 8.26182 0.558366 0.572367 -1.05574 -0.141398 0.948898 
477 1 3.59822 9.02857 8.90585 0.566195 -0.103658 -0.520883 
478 1 0.642839 5.3665 7.20443 -0.0391573 -0.387698 -0.0636118 
479 1 0.606315 5.07328 2.20058 0.0179844 1.12009 -0.421649 
480 1 6.01904 8.2377 0.374426 0.568495 -0.327271 -0.862433 
481 1 8.77115 8.50517 4.36572 -0.253537 0.933167 1.24849 
482 1 0.710604 9.09871 6.24715 -0.197974 -0.90335 0.757856 
483 1 8.64077 2.87327 7.74583 0.812237 -0.0741003 -0.503252 
484 1 3.33116 7.341 1.80347 1.41926 -0.618044 -1.26425 
485 1 1.70556 6.53989 7.88534 -1.4655 -0.248001 -0.125879 
486 1 4.51839 6.85933 2.84747 -0.445956 0.156431 -0.111616 
487 1 9.00933 4.84349 2.06585 0.611378 0.664323 0.0693947 
488 1 7.05141 4.69229 7.36724 -0.441095 1.28353 -0.472559 
489 1 4.73571 3.9975 4.12774 -1.58092 -0.0582385 -0.380945 
490 1 8.96979 2.18526 1.64154 -0.0545663 0.00784078 0.72917 
491 1 6.63191 7.59198 0.673835 -0.264084 -0.25587 0.470659 
492 1 3.24417 2.29494 2.52958 0.426617 -0.519432 -0.000632947 
493 1 6.89222 7.19526 3.5321 -0.761042 0.0370815 0.333008 
494 1 4.51026 9.16043 8.51768 -1.15957 0.881493 -0.724057 
495 1 9.15224 8.3053 2.40835 0.374064 -2.87988 0.494157 
496 1 4.44799 1.57418 0.874594 -0.698917 -0.408952 0.670334 
497 1 0.511936 5.96348 0.923941 0.00794898 -0.165993 -0.0706216 
498 1 1.24289 7.41208 7.741 0.251578 -0.186261 1.1481 
499 1 5.93731 5.1229 1.51006 -0.297652 -1.02397 0.476852 
500 1 6.12985 4.54981 7.13074 -0.450788 0.813088 0.392973 
501 1 1.01598 3.84733 1.26951 0.1046 0.136263 -0.917273 
502 1 3.55406 6.8757 0.421511 -0.499711 0.402626 0.555139 
503 1 2.8905 3.11708 1.16621 -1.23028 0.361959 -0.474074 
504 1 6.53464 4.75756 9.2056 -0.0155188 0.588494 1.75229 
505 1 1.06119 5.9952 0.152815 -0.78817 -0.741919 0.222669 