ITEM: TIMESTEP
2316
ITEM: NUMBER OF ATOMS
1000
ITEM: BOX BOUNDS pp pp pp
0.0000000000000000e+00 9.4000000000000004e+00
0.0000000000000000e+00 9.4000000000000004e+00
0.0000000000000000e+00 9.4000000000000004e+00
ITEM: ATOMS id type x y z vx vy vz 
1 1 8.79772 4.04153 6.07996 -1.12701 0.584303 -1.04029 
2 1 0.156415 4.53421 6.25166 -0.0511931 1.60238 0.0045895 
3 1 6.18491 5.77566 4.37362 0.383741 -1.229 -0.603978 
4 1 5.76609 0.553132 4.27638 -0.81927 0.898181 1.03184 
5 1 2.50638 8.91935 8.80042 -0.286584 -0.634367 0.574768 
6 1 8.44937 4.31974 0.367236 -0.32154 0.244956 -0.00162848 
7 1 1.91968 2.4168 1.68342 -0.0954841 0.0436865 0.481356 
8 1 8.01378 1.93052 8.54379 0.631753 1.15765 0.735958 
9 1 8.77705 6.14898 5.373 0.283405 0.027328 -1.20914 
10 1 7.8566 5.52765 4.07371 0.834342 -0.427131 1.14399 
11 1 6.87891 7.06773 2.27331 0.666393 -0.600129 -0.0151976 
12 1 3.68497 2.89301 1.71441 -0.500763 0.859383 0.30439 
13 1 7.10676 5.15403 4.47402 -0.495051 -0.646897 -0.640473 
14 1 2.89134 6.95596 3.3783 1.53735 -0.906087 0.600347 
15 1 1.42817 3.22819 1.8627 0.188546 0.060703 -0.868804 
16 1 7.20808 7.43845 7.12297 1.50466 0.540258 1.51655 
17 1 1.1681 8.37513 4.5914 0.376455 -0.0309365 0.689154 
18 1 2.24795 4.04894 3.66681 0.984235 -1.28964 -0.556136 
19 1 4.24577 9.27616 3.34001 1.73123 0.251413 1.35936 
20 1 5.39732 5.94052 4.97164 -0.261493 -0.34528 0.211839 
21 1 7.12688 6.11558 4.32556 -0.220488 1.25591 1.19128 
22 1 2.97204 4.54211 4.16526 0.286122 -0.461692 2.05182 
23 1 0.512482 8.72007 6.31846 -1.35967 -0.978471 -0.568575 
24 1 3.99688 8.10673 8.57684 -0.46013 -0.401129 -0.611389 
25 1 0.950772 3.10541 4.30541 0.705059 0.0220631 -1.16749 
26 1 4.05754 1.18196 1.87026 -0.124343 -1.82095 0.550008 
27 1 2.98162 6.45436 8.41057 -0.0916503 0.531212 -0.16095 
28 1 0.891524 0.0114261 5.76246 -0.0683372 -0.557166 -0.965032 
29 1 5.66883 7.85107 5.1007 0.018433 0.389639 -0.562152 
30 1 4.94945 3.88269 1.46124 -0.558932 -0.0540889 1.96758 
31 1 1.36853 2.5212 5.01105 -0.159122 0.544742 -0.451694 
32 1 1.97579 0.499574 3.56116 0.287609 -1.39061 0.350613 
33 1 1.05417 7.50933 5.22015 0.563221 0.486113 -0.141926 
34 1 1.56682 8.86247 0.739249 -0.394763 0.0335836 0.746541 
35 1 2.94015 9.04857 7.9397 0.49886 -0.32349 0.284925 
36 1 1.32575 4.22607 3.13623 -1.29019 -0.175754 1.80662 
37 1 1.32805 9.21267 7.66341 -0.473901 0.635992 -1.01739 
38 1 5.3487 6.72921 2.26906 1.30919 0.506011 -0.828487 
39 1 7.13261 1.3898 5.38087 0.613693 0.284497 1.26234 
40 1 8.60892 4.92978 6.48207 0.920877 0.678107 -0.722994 
41 1 8.37088 8.88952 3.85161 0.0366736 1.38645 0.0147634 
42 1 4.13104 0.351079 1.29778 0.129997 -0.187128 0.955549 
43 1 7.04689 3.17841 5.69513 0.439709 1.80162 -0.547014 
44 1 4.07424 3.97057 3.77552 0.0726293 0.114125 0.606325 
45 1 4.77513 5.52452 8.54948 0.279905 -0.361071 1.26523 
46 1 6.99464 2.24457 5.76686 -0.92954 0.491221 0.501095 
47 1 2.26931 0.955036 4.35438 0.573615 -0.0261816 1.73892 
48 1 0.0124667 0.160344 6.07042 -1.68858 0.291348 -0.032831 
49 1 5.4459 5.85725 9.21412 0.155942 -0.192513 0.855255 
50 1 3.00533 5.70642 2.00781 -0.476199 -0.404002 -0.264943 
51 1 5.59544 1.29062 1.21979 -1.71344 -0.541049 0.826136 
52 1 6.56673 0.277711 6.53552 -0.83737 -0.258647 -0.423909 
53 1 3.58658 0.943191 2.66324 0.489151 0.156502 -0.533079 
54 1 1.54584 8.23985 3.7287 -1.71085 -0.160821 -0.386714 
55 1 2.40664 8.76181 4.79795 -0.29934 -0.617628 -0.821653 
56 1 1.2312 7.98905 0.493025 -0.130598 0.180985 -1.3276 
57 1 6.99488 6.95642 3.22711 -0.493133 -1.34469 -0.49559 
58 1 5.84395 5.12031 0.28072 -1.20712 -1.054 0.576271 
59 1 7.01483 1.71769 0.529856 0.439492 -0.278667 -0.858272 
60 1 5.05108 2.57987 6.17266 -0.118124 0.237557 -0.863568 
61 1 8.6567 8.31205 7.51827 0.121248 0.104878 -0.266645 
62 1 7.8542 7.20752 0.918028 -0.0590057 -0.742294 0.470363 
63 1 0.162567 7.23347 5.45925 -1.04309 -1.17805 -0.538323 
64 1 8.75933 6.55503 7.68775 -1.18432 -1.45752 0.761763 
65 1 2.85686 0.858931 3.41938 -0.153122 -0.204732 0.787603 
66 1 6.22677 2.90995 0.554106 -0.0569481 -0.254249 -0.226519 
67 1 3.87468 3.74828 0.290367 -0.467899 0.138944 -0.0546432 
68 1 8.95823 4.97306 1.26174 -1.53794 -0.165219 0.470847 
69 1 0.246597 9.0354 0.585729 0.703979 0.0416907 1.07214 
70 1 5.23806 8.5411 0.157861 -0.778496 0.603318 -0.152032 
71 1 3.19223 3.83795 3.5107 1.14893 0.0518011 0.737001 
72 1 2.00393 5.0705 0.948183 0.0813611 -0.359761 -0.142856 
73 1 5.95737 0.492007 8.94815 1.00756 0.903495 1.25356 
74 1 3.80556 4.37098 5.94123 -0.252633 0.895656 -1.70519 
75 1 8.9723 6.80981 4.74166 -0.182563 -0.253059 -0.99521 
76 1 5.83643 4.30564 8.21531 0.130663 -0.20636 -0.637195 
77 1 8.36973 1.64806 4.06745 0.355254 1.03214 -0.04925 
78 1 6.38415 6.488 1.30356 0.365167 -0.179342 -0.890104 
79 1 8.56143 2.47927 6.06103 -0.306987 0.846371 0.035287 
80 1 6.24955 3.97234 3.6276 0.778487 0.34671 0.248277 
81 1 7.84673 0.118054 3.21991 -0.360813 -0.688217 1.06652 
82 1 2.01436 6.3973 5.51793 0.265116 -0.777878 0.305971 
83 1 8.28495 4.25022 8.81571 0.0967366 -0.556755 0.253584 
84 1 1.59279 3.37051 2.81267 -0.0974913 -0.69023 0.424478 
85 1 5.84703 8.22563 8.83913 -0.705272 -1.24289 -0.27958 
86 1 1.30343 0.625436 2.93423 0.155619 -0.229456 0.242722 
87 1 5.99935 1.71236 7.7032 1.54386 -0.443092 -0.379077 
88 1 5.9108 0.186073 3.29856 0.597863 -1.14883 -1.20295 
89 1 8.29053 2.44557 7.00046 0.274691 -0.0623249 -0.693294 
90 1 5.52439 9.0301 4.59661 0.473514 -0.160156 1.5485 
91 1 5.97225 5.9121 5.76172 0.916482 0.582816 0.703383 
92 1 8.00165 3.55966 6.00404 1.18654 0.0503102 0.480248 
93 1 6.70659 1.14819 9.19375 1.24765 1.07856 -1.1432 
94 1 3.91383 5.93074 2.19143 -0.00399437 0.753646 -0.0898653 
95 1 9.04566 0.628001 6.81233 1.28064 -0.701245 0.762937 
96 1 5.94942 7.15132 5.67177 0.588267 -0.837311 1.1208 
97 1 0.768729 6.89332 6.73373 -0.246526 -0.637051 -0.86732 
98 1 5.95749 8.12814 6.04306 1.33312 -1.33378 -0.970046 
99 1 2.8661 3.40533 5.23837 0.324255 -1.0054 -0.137401 
100 1 3.43372 2.04669 4.06975 0.358929 0.614887 1.09511 
101 1 1.78571 7.32381 5.83132 1.01012 0.345985 -0.329171 
102 1 5.55855 5.10224 6.01574 -0.398998 0.880245 -0.310217 
103 1 8.71465 3.38325 7.64173 0.870288 -0.163345 -0.217805 
104 1 1.97887 0.232103 4.9172 1.03975 0.136721 1.13167 
105 1 9.26245 4.5893 4.57109 -0.297172 -1.50105 0.35957 
106 1 4.21838 3.68609 2.1652 -0.259209 -0.47521 -0.189333 
107 1 4.97726 4.26637 2.32974 -1.12614 0.989927 -0.0787875 
108 1 8.69962 7.12765 5.86889 1.50826 -2.22277 -0.300341 
109 1 6.93638 8.19307 4.44746 0.140368 1.37547 0.215335 
110 1 4.53559 6.50329 3.55404 -0.437407 0.894689 0.671264 
111 1 1.34765 0.590325 4.26702 0.17388 0.176189 0.66319 
112 1 7.44127 4.45425 8.42056 -0.00676882 -1.04796 0.444213 
113 1 7.03899 5.23098 7.03963 0.857998 0.491042 0.00165234 
114 1 0.482757 2.26521 4.64705 0.863132 -1.82258 -1.10102 
115 1 3.38865 8.58324 0.286574 0.419415 1.19281 0.466954 
116 1 1.70688 0.876055 2.11441 -0.31345 -0.416681 0.209782 
117 1 4.67408 6.53191 7.79069 0.480919 0.610427 -0.144771 
118 1 1.56789 5.60407 3.95885 0.573717 -0.254114 -0.34167 
119 1 3.90148 4.39463 2.92633 -0.318388 -0.136259 -1.35345 
120 1 4.51382 4.83404 3.66433 -0.533417 -0.0571746 1.32348 
121 1 0.352787 4.37603 1.67993 -0.628155 0.737949 -0.903451 
122 1 4.82272 5.92911 2.44695 -1.20918 0.983988 1.62936 
123 1 3.33038 6.74104 9.25128 -1.33703 0.279408 -0.300221 
124 1 8.6229 4.16512 1.56576 -0.583708 -0.257279 -0.163695 
125 1 3.13969 0.0741357 0.04894 -0.182223 0.315551 0.153079 
126 1 9.36795 2.43448 1.27556 0.256942 -0.662342 0.303427 
127 1 7.52868 7.59706 8.66846 0.120455 0.472662 0.74162 
128 1 8.58703 3.29393 4.55725 -1.53358 -1.23325 -0.315989 
129 1 6.39807 9.17983 4.12303 -0.667039 0.913655 -0.759161 
130 1 0.824654 1.37032 4.48165 0.431851 -1.04776 -0.0925816 
131 1 3.47478 6.78807 2.12549 0.335066 -0.501806 -0.972941 
132 1 5.53546 9.36419 2.02405 -1.06458 -0.631683 0.740512 
133 1 5.47723 2.68686 5.21545 0.343902 -0.743005 0.99168 
134 1 2.65302 3.27523 4.06357 -0.574014 -0.230709 -0.385481 
135 1 7.31202 5.26739 7.93754 -0.664171 -0.748416 1.94907 
136 1 8.03214 7.80917 5.65231 -0.152729 -0.147687 1.18476 
137 1 0.461323 3.40302 1.57529 0.102909 0.546144 0.986519 
138 1 9.05146 4.0833 8.23505 0.259574 0.0478765 0.415807 
139 1 8.37926 1.26453 0.784383 -0.380316 1.00199 -0.245831 
140 1 2.54054 5.43442 4.08189 0.244084 0.920983 -0.48949 
141 1 8.73956 0.394476 2.93221 0.466749 0.742634 -0.820775 
142 1 2.4223 8.36209 5.83447 -0.165108 0.321916 0.637078 
143 1 3.18408 9.35435 1.03619 -0.704045 -0.0228001 -0.282977 
144 1 5.07575 1.47128 1.98791 -0.605495 0.0196599 0.543007 
145 1 7.43731 6.50524 1.70384 0.562469 -1.85481 0.0216148 
146 1 0.294513 0.421694 -0.0123668 0.620076 0.855742 -0.551311 
147 1 7.10049 3.36525 0.508664 -0.0421076 -0.549459 -0.491212 
148 1 7.62079 5.05888 6.33634 -0.436478 -0.496885 1.19168 
149 1 2.81005 6.36702 2.65906 -0.648843 1.38156 1.82887 
150 1 4.20537 5.61751 3.14205 -0.35626 0.799552 1.32 
151 1 4.42538 6.37148 0.863081 -0.921535 -0.646778 -1.1776 
152 1 5.47171 3.38247 5.89582 2.26094 -0.0653646 -1.34744 
153 1 7.73561 1.07025 3.57668 -2.44446 1.04148 -0.804247 
154 1 4.42731 5.34768 4.48215 -0.0526768 0.396621 -0.343929 
155 1 3.58733 1.85103 5.03952 1.40887 -0.0224378 -1.16715 
156 1 7.60902 7.69736 2.75316 1.37476 0.428986 -0.15485 
157 1 6.38385 1.07588 4.8015 0.186075 -0.95398 0.560213 
158 1 7.87297 1.73604 7.55385 0.298345 -0.75626 -0.00505698 
159 1 0.290728 4.59667 7.23098 -0.113553 -1.93437 0.579433 
160 1 4.56611 7.35427 8.29599 0.457957 1.2662 -0.336928 
161 1 6.55917 6.72523 7.17059 0.102618 -1.48463 0.599523 
162 1 2.25069 5.50804 5.75735 -1.52944 0.49205 0.0872822 
163 1 6.02826 7.20431 1.79902 -0.370745 -1.22944 2.2036 
164 1 1.921 7.49367 9.36564 0.517035 -1.22264 -0.163236 
165 1 0.212865 5.53704 7.63396 0.0913803 0.699897 0.269893 
166 1 8.72766 0.147415 5.38903 -0.30316 -0.968899 -0.689248 
167 1 2.05737 6.03425 8.61653 -0.454686 -0.144268 0.640145 
168 1 1.78474 0.389784 5.88411 -1.00875 0.424263 0.023844 
169 1 6.4477 5.79052 9.2609 -0.789806 -1.05983 0.108712 
170 1 6.16834 1.98648 0.934559 -0.202983 -0.109868 -0.162735 
171 1 3.20707 7.78915 6.02776 0.970193 0.821425 -0.274404 
172 1 4.48839 2.2883 0.801223 -0.675674 -0.260585 -0.539643 
173 1 7.35623 6.12788 9.3233 -0.426682 1.84585 1.01398 
174 1 7.57834 1.56614 2.74744 -0.825625 0.0737996 -1.08175 
175 1 1.64829 5.60021 6.48533 -0.61094 -0.299982 -0.109677 
176 1 3.74002 6.95842 3.75933 -0.803883 1.98448 1.06505 
177 1 8.37656 6.65649 1.926 -0.0951408 0.0177491 -0.547316 
178 1 7.14777 6.68594 5.03813 -1.08284 0.329123 1.46438 
179 1 6.77573 3.05188 8.2719 1.75957 0.348048 0.638562 
180 1 0.545502 7.30228 8.34888 -0.537416 0.814139 1.80148 
181 1 1.97803 6.19632 2.25358 -0.0312164 0.539199 -1.20928 
182 1 0.982167 3.39504 5.22336 -0.387385 0.433593 0.789202 
183 1 2.75744 7.36576 2.47044 0.026062 -0.017583 -2.24677 
184 1 6.09464 9.27373 8.17663 0.33018 -0.105655 0.130444 
185 1 3.39207 5.30156 4.5819 0.277296 -0.506761 -0.507111 
186 1 4.52583 5.96338 9.40008 -0.38582 -1.03727 0.885362 
187 1 8.42969 2.4807 1.68702 0.177001 0.563422 0.641746 
188 1 6.42156 0.755423 5.69969 -0.234891 0.712603 0.558481 
189 1 5.24008 5.09345 1.97487 0.26531 0.822743 0.101705 
190 1 4.25516 9.27355 4.31438 0.0904743 -0.320017 -0.018699 
191 1 4.93948 5.02714 0.00910501 -1.10427 -0.0251659 0.203101 
192 1 6.5147 7.55774 3.80457 0.353879 0.413731 0.514604 
193 1 6.72152 0.281881 7.53807 -0.476355 1.29026 -0.138867 
194 1 0.0948793 8.95167 9.00624 0.0975779 -0.844633 0.682845 
195 1 8.22084 0.829334 7.27779 -0.228528 -0.333895 0.0428519 
196 1 6.75609 4.30321 1.78155 -0.74567 0.878073 -0.423148 
197 1 6.43478 9.03174 0.873706 -0.719702 -0.451469 0.078314 
198 1 5.80614 7.93038 3.30221 -0.925094 -0.00778525 -1.09827 
199 1 4.62448 4.30611 0.657879 -0.532492 -1.18713 -1.63092 
200 1 7.12106 3.71474 8.9592 0.683707 -0.159138 -0.572449 
201 1 3.44305 8.01796 2.13231 -0.750299 -0.155862 -0.221024 
202 1 5.93828 1.88819 1.91018 -0.516588 0.688876 1.10401 
203 1 4.46378 4.23659 5.20838 0.792188 0.0291659 0.108898 
204 1 5.49691 4.59482 3.61619 0.891562 0.712758 0.938405 
205 1 0.320599 8.13037 0.162707 -0.552255 -0.790261 -0.869102 
206 1 4.65046 4.88582 7.68893 -1.18216 -1.94495 0.559265 
207 1 4.34545 1.13028 0.222854 -0.545073 -1.00418 -0.993601 
208 1 4.41759 6.91744 5.30069 0.215119 1.19939 0.0318362 
209 1 7.94564 4.2312 6.68652 0.620618 0.14091 -0.734391 
210 1 6.13338 4.93174 6.80733 0.0303682 0.596714 -0.273481 
211 1 8.76638 8.33358 9.36239 -1.7686 0.314528 -1.11945 
212 1 5.00074 6.61643 6.74896 -0.308091 0.248086 0.00798816 
213 1 5.92414 6.60629 8.93627 0.0624554 -0.673772 0.14517 
214 1 5.2069 6.49476 5.81403 -0.459508 -1.30605 0.427417 
215 1 1.19592 0.779934 5.19024 0.288002 0.301864 0.355091 
216 1 4.62931 2.25614 8.32574 0.712655 0.852386 -0.37025 
217 1 1.83585 3.26634 4.66343 0.0870511 -0.311632 -0.465097 
218 1 2.00602 7.15077 4.90408 0.625898 2.34109 0.633012 
219 1 5.20189 8.4097 2.06191 -0.0884022 0.246184 0.0671039 
220 1 3.57122 7.67924 9.32869 -1.49151 -0.643499 -0.0378679 
221 1 1.02627 8.05909 8.86956 1.20879 1.58759 2.4795 
222 1 7.30896 0.00442981 0.79061 -1.12353 1.31592 -1.58368 
223 1 1.55899 4.90135 5.52923 1.32587 0.669615 0.307119 
224 1 6.29692 1.03261 7.06704 -0.394913 0.103425 -0.117527 
225 1 8.44842 8.15069 8.45162 0.903053 0.635585 1.09432 
226 1 8.00937 4.78368 1.07921 -0.520097 -1.43273 0.304713 
227 1 8.99153 4.85846 5.53997 -0.171408 1.13194 -0.377882 
228 1 2.91789 0.528879 4.96582 -0.486225 -0.178739 -0.177408 
229 1 1.65791 4.88732 2.48651 -0.708784 -0.750101 -0.61891 
230 1 2.38841 2.46831 2.60238 0.20966 0.201396 -0.78346 
231 1 5.80133 4.31295 4.64709 -0.392961 0.115078 -0.288959 
232 1 7.32325 5.10282 2.15777 0.329114 -0.320873 0.379842 
233 1 4.0501 3.66621 1.23417 0.0472516 0.36911 0.255115 
234 1 7.62942 7.038 0.0191484 -0.591497 -0.759075 -1.19256 
235 1 3.53765 9.33223 2.73013 0.522855 -0.504644 1.11073 
236 1 2.8279 0.817092 0.806735 -0.699659 -0.123878 -1.42205 
237 1 9.12177 4.69479 2.30179 1.01172 0.589482 -0.0908935 
238 1 0.636125 8.7074 7.28843 -0.447679 0.885617 -0.0611361 
239 1 7.36781 3.44093 2.50183 0.255565 -0.552935 1.08492 
240 1 7.69497 0.301355 1.59676 1.81785 0.135546 1.17511 
241 1 4.01523 2.68956 4.77637 1.63262 -1.2914 -0.329805 
242 1 5.43139 9.08747 8.82541 -0.335318 0.0280674 -0.0836912 
243 1 2.51472 3.30397 3.09286 -0.461001 0.398062 0.447766 
244 1 6.16905 1.06169 2.9634 0.764921 -0.5333 1.46117 
245 1 8.88769 8.82756 6.23515 -1.67727 -0.00666533 0.549865 
246 1 1.06168 0.265163 0.571475 -0.957424 -0.714268 0.0488785 
247 1 8.90035 0.822795 4.68541 0.548185 0.00942789 -0.185538 
248 1 5.36761 0.755974 2.53493 0.605256 -0.765564 -1.34489 
249 1 8.27145 4.99067 1.99646 -0.563694 -0.0774491 -0.176114 
250 1 2.37398 3.32011 2.13707 -0.121774 -0.443804 -0.236388 
251 1 5.69886 7.32865 4.22794 0.659153 -0.237136 0.289759 
252 1 6.80995 5.59052 3.64588 -1.30673 1.23201 0.646049 
253 1 7.30421 2.71822 4.84474 0.199739 -0.0289377 -1.03707 
254 1 2.85546 6.46917 0.67258 -0.979499 0.763202 0.565219 
255 1 5.84706 5.47318 3.48074 0.214358 -0.0844763 -1.21805 
256 1 8.87152 5.73614 8.2015 1.22763 -0.0428608 0.673844 
257 1 8.44833 3.09133 2.69541 -0.295185 -1.10485 -1.59506 
258 1 6.7661 4.95491 0.297589 -0.755499 -0.15223 -0.884633 
259 1 5.39271 7.64657 0.453145 -0.0128066 0.884467 0.0518334 
260 1 2.9779 7.30672 4.31366 -1.30977 -0.508187 0.252305 
261 1 0.504805 7.09669 4.55789 -0.124598 0.889334 -1.29509 
262 1 8.00316 8.93364 0.24221 -0.611859 -0.220858 -0.895015 
263 1 7.77188 5.63971 1.45647 -0.15486 -0.611998 1.29932 
264 1 7.95602 3.82645 0.976038 0.686695 -1.01521 -0.964976 
265 1 2.02771 0.321705 0.73732 -1.05568 0.879419 0.545406 
266 1 0.75129 0.996472 3.596 1.11754 -0.420279 -0.132847 
267 1 3.63255 9.35039 5.4955 -0.575189 1.05613 0.181745 
268 1 1.95881 0.0274237 2.39536 0.921913 0.563581 -2.13776 
269 1 1.58568 1.39715 3.805 -0.0810063 1.234 -0.569186 
270 1 8.26708 8.99289 6.97558 -0.370464 -0.29529 0.190348 
271 1 4.27898 6.53212 6.14709 -1.44909 -0.0766803 -1.40586 
272 1 8.83034 4.17009 7.05675 1.03617 -0.32703 0.989172 
273 1 3.37955 8.85698 3.6647 -0.44302 -0.814195 -0.985108 
274 1 8.91337 6.56329 8.68338 -0.0410771 -2.02479 0.23177 
275 1 8.82937 6.71902 3.79639 1.10654 1.22098 -0.0827273 
276 1 2.8548 6.31275 7.46241 -0.843923 -0.364987 0.531676 
277 1 8.31765 8.00321 3.42632 0.206734 0.422725 1.39655 
278 1 7.4485 0.915232 7.84908 -1.43372 -0.65502 -0.898278 
279 1 0.731195 3.54533 3.48517 0.363401 -0.402054 0.647988 
280 1 0.864656 5.71852 4.64723 -0.110757 -0.532715 0.311884 
281 1 1.30946 1.71782 1.95939 0.92704 0.504162 -0.558345 
282 1 7.37985 5.06447 5.38262 0.226521 0.00611921 -0.427683 
283 1 0.0408837 6.28226 7.01732 0.420555 0.628231 0.399215 
284 1 0.515604 5.78201 2.68562 -0.37594 -0.107986 -0.0634025 
285 1 5.67188 7.96132 1.33284 -0.998308 -0.451241 -1.09007 
286 1 4.22146 2.68361 2.45213 0.0757276 1.06181 1.61259 
287 1 7.04795 2.39832 3.01101 0.740004 -0.8811 0.483359 
288 1 5.5936 7.4438 6.60746 -0.237191 -0.579409 -0.975657 
289 1 1.52735 5.72318 2.97514 0.960232 -0.295398 1.22732 
290 1 2.69296 7.32825 8.71907 0.794403 -0.981927 0.288052 
291 1 6.76108 8.67381 2.57496 -0.936641 0.96183 1.63259 
292 1 5.72502 3.74722 2.83395 -0.0115958 1.42412 -0.750293 
293 1 8.97127 5.77592 9.20838 0.000354488 0.00861732 0.871433 
294 1 0.710098 1.05531 2.29119 0.49601 0.100369 -0.00353792 
295 1 7.40176 7.87781 3.66322 -0.421707 0.167061 0.848473 
296 1 4.00861 8.39597 5.82789 -1.55769 -0.366056 -0.229069 
297 1 7.69302 1.85496 4.74786 -0.741862 0.0675391 -0.718595 
298 1 2.80299 7.36796 0.413211 1.2254 -0.488129 -0.225865 
299 1 7.961 7.28773 6.54243 1.02218 0.451396 -0.520871 
300 1 1.43899 2.47804 2.51685 0.452198 -0.17705 0.0833798 
301 1 8.10804 5.9087 8.76678 -1.09011 0.636231 -0.579851 
302 1 7.34706 0.688763 5.9934 0.37362 -0.239621 0.807872 
303 1 3.67438 5.30339 1.44937 0.0339763 0.247369 0.389496 
304 1 5.50046 3.30079 1.99314 -1.56648 -1.25755 0.108819 
305 1 8.21431 5.43541 5.68923 1.20962 0.152001 1.20959 
306 1 3.35153 9.16044 4.60085 -0.129942 -0.195307 0.148913 
307 1 0.54673 1.91313 3.68632 -0.630672 1.4207 0.210258 
308 1 8.9197 1.13808 2.31114 0.0063246 1.64314 0.443935 
309 1 3.64467 2.99366 3.85657 -0.241716 -0.117142 -1.29833 
310 1 4.40569 1.68072 2.64024 -0.409911 -0.242153 1.21108 
311 1 3.98946 6.35625 8.59095 0.0349295 0.599129 1.05194 
312 1 5.91744 3.14224 6.9424 -1.21153 0.594492 1.39028 
313 1 2.67726 1.76935 4.76121 -2.11021 1.78954 -2.21831 
314 1 2.76461 5.6576 1.09691 -0.0687877 0.10124 -0.822662 
315 1 6.72429 0.257827 1.56406 -1.38506 0.658638 -1.40147 
316 1 8.33841 0.900359 8.28225 -0.633009 -1.61124 -0.0220823 
317 1 5.61383 4.32601 9.19047 0.178475 -0.80911 0.392652 
318 1 0.162419 1.83866 2.09042 0.389317 0.112297 -0.527943 
319 1 7.54609 1.09372 8.77578 -0.129741 -1.11194 0.303577 
320 1 7.54065 6.23533 3.45994 0.058098 0.606105 0.236811 
321 1 7.25068 6.13038 8.37746 -0.30349 -0.252055 -0.121514 
322 1 2.1869 1.08249 5.32408 0.395191 -0.290928 -0.382392 
323 1 7.20177 3.43015 1.4999 -1.15297 0.886243 -0.501834 
324 1 3.91832 3.40303 3.01836 -1.46923 -0.25923 1.40375 
325 1 0.124446 1.02467 1.54722 -0.802397 -1.47229 1.44845 
326 1 6.2085 5.08213 1.89914 -0.380471 0.833592 0.939008 
327 1 7.69862 4.36948 4.79008 0.363719 0.043825 -0.800956 
328 1 0.49085 0.159043 1.35078 0.477839 0.744386 -0.0310009 
329 1 4.80379 9.22829 0.671827 0.289208 1.02748 0.235237 
330 1 2.86827 4.74157 1.32107 -1.78521 -1.01661 0.975253 
331 1 5.96741 9.18419 5.87195 0.287893 1.22073 -0.507293 
332 1 7.97267 2.91971 0.969252 0.0148603 -0.225725 -0.202703 
333 1 5.06345 0.0886406 3.8247 0.328122 1.00003 -0.0290196 
334 1 1.12141 1.66303 2.94804 0.404802 -0.156743 1.17566 
335 1 2.41416 3.99683 4.66021 1.06333 -1.69252 0.381231 
336 1 7.33547 8.45421 5.446 0.214496 0.602096 -1.97891 
337 1 4.93143 8.3631 3.10345 0.469765 -0.975628 -1.06862 
338 1 5.3833 6.29343 3.13727 0.402013 0.0879345 -0.951926 
339 1 2.31299 8.75376 6.74379 0.585339 0.717822 0.200978 
340 1 4.98751 5.74869 7.37425 0.34288 0.535842 1.46793 
341 1 5.36433 4.28051 5.54307 -0.012652 -0.557383 -0.814338 
342 1 6.6178 4.13588 2.69854 -0.0689077 -0.201464 0.727358 
343 1 6.95287 3.59626 4.84415 0.870615 1.62373 1.63836 
344 1 3.21879 7.3414 6.88789 1.63367 -0.379162 -1.44644 
345 1 6.71149 1.96912 4.7516 0.0332884 0.585014 -0.479821 
346 1 5.35736 3.71457 3.92166 0.613943 0.383937 1.02188 
347 1 1.769 3.12848 3.71784 -0.499211 1.31696 0.159367 
348 1 8.60489 2.23288 0.713416 -0.820155 0.376593 -0.886753 
349 1 8.55078 0.7154 1.5657 0.0356642 -0.68342 -0.0536193 
350 1 4.81129 8.25042 0.93525 -0.624199 0.185173 0.423807 
351 1 4.4507 9.07883 8.42091 -2.27658 -1.66322 -0.403654 
352 1 1.24706 5.17944 0.384891 1.29381 0.861774 -0.227122 
353 1 7.84814 8.14125 7.04081 0.54049 0.496951 0.137138 
354 1 6.0279 2.58913 5.98879 -0.347937 -0.351133 -0.52863 
355 1 2.02263 6.89979 2.93166 -0.229228 -0.773372 -1.09626 
356 1 7.12992 9.0643 4.75598 -0.871516 0.598558 -0.774415 
357 1 7.90116 8.38945 4.63049 -0.871957 0.445603 1.43422 
358 1 0.232234 6.39735 8.05639 -0.25148 0.162671 1.40472 
359 1 7.66971 2.72922 6.29503 -1.58056 0.279745 -0.0667859 
360 1 6.70002 7.79053 2.90559 -0.336455 0.748471 0.0535882 
361 1 4.53748 6.58277 1.77418 -1.23615 1.24613 1.10897 
362 1 5.15562 2.42228 2.24026 -0.940692 0.0583769 -0.491916 
363 1 7.99261 0.743989 2.44821 0.317669 -0.21573 0.151491 
364 1 8.16522 5.06917 8.29137 -0.0351671 -0.44049 0.22722 
365 1 3.61655 7.23091 8.48467 0.644987 -0.702875 0.100447 
366 1 4.17981 7.11513 6.96387 -0.173581 0.0711448 -0.0340782 
367 1 6.15237 3.68624 5.32049 1.63692 -0.130802 -0.122121 
368 1 7.1045 0.736426 2.93545 0.546797 -0.626184 0.800523 
369 1 3.29766 5.17903 0.444749 -0.19216 -0.0910386 0.892168 
370 1 1.09689 5.48539 8.0342 0.588648 0.186777 -0.132706 
371 1 5.97354 6.34844 0.476815 0.351336 0.281577 0.953009 
372 1 4.58195 5.65039 1.52617 -0.192937 1.15403 0.0105796 
373 1 1.48397 7.2715 8.55265 -0.162399 1.26349 -0.0376885 
374 1 1.64135 6.55105 6.43156 0.0454133 0.98478 -1.78374 
375 1 3.854 5.67958 6.0944 -0.551013 -1.08485 -0.866013 
376 1 0.035068 6.5089 6.0799 1.2258 -0.186892 0.335584 
377 1 7.75003 7.40771 1.85394 0.511722 0.177634 -1.06575 
378 1 6.15603 1.99787 6.75862 -0.346425 1.78224 -0.987732 
379 1 0.904875 0.119687 2.23169 0.325505 -0.331778 -1.20246 
380 1 5.85691 0.371779 1.17298 0.0235309 -0.408888 -0.182064 
381 1 8.68834 7.42947 7.21575 -0.161198 -0.5217 -0.889618 
382 1 6.47101 8.05435 6.99247 0.328658 0.0448371 0.579345 
383 1 3.05454 8.12414 8.30777 -0.676856 -0.0515279 0.0542406 
384 1 8.41417 3.3418 8.57888 -0.512383 0.993513 -0.1222 
385 1 7.22538 2.2286 8.07908 -0.801959 -0.43151 0.101485 
386 1 6.70799 3.97163 8.08645 0.00567505 -0.274638 -0.356796 
387 1 5.97015 3.37684 7.87376 -0.586716 -0.193124 0.431344 
388 1 0.50017 6.48793 8.96615 0.339177 -0.881981 0.29477 
389 1 5.70285 5.12638 8.69563 0.15189 -0.151867 -0.43915 
390 1 3.82242 3.54679 5.3545 0.453852 -0.576496 -0.694319 
391 1 4.8992 8.29155 8.69683 -1.45597 1.97341 -0.489572 
392 1 8.06868 6.43752 5.97463 0.425457 0.68608 0.750296 
393 1 2.38478 6.65222 9.26013 1.00762 1.33038 -0.246087 
394 1 0.186672 5.59531 5.78252 0.251616 -0.447367 0.848526 
395 1 7.30216 4.30017 7.41434 1.5628 0.340821 0.829119 
396 1 5.03622 3.18784 7.69142 0.182421 -0.991113 0.301191 
397 1 5.46536 5.998 1.68693 -0.0120483 -0.0298013 -0.533984 
398 1 8.58214 8.82179 2.93051 0.418583 0.98963 1.97253 
399 1 3.55367 0.36918 3.82885 0.575153 0.160261 -0.152653 
400 1 8.57511 1.63898 5.03015 0.600268 -1.04623 0.706852 
401 1 7.26595 7.07172 4.15515 1.51758 -0.140665 1.44761 
402 1 5.42144 5.18666 4.35988 0.462061 -0.910074 -0.0294366 
403 1 6.13421 0.95079 1.95784 0.787503 -1.1999 0.39914 
404 1 5.43574 7.85136 8.082 -0.0504216 -0.773542 0.565902 
405 1 8.25341 5.10864 9.25929 -0.124371 1.07582 -0.336486 
406 1 8.36869 6.47621 0.0893632 0.0543166 0.683836 0.873224 
407 1 4.53215 4.24131 6.86853 0.760664 1.44955 1.17563 
408 1 8.48084 7.46372 2.48197 -0.881603 0.433777 -0.458833 
409 1 2.98552 6.1182 5.80741 -0.0440367 0.496494 0.658847 
410 1 1.40947 9.10303 6.51186 0.524069 -0.214666 -0.15158 
411 1 6.84534 6.74381 0.466505 0.893281 0.497182 0.546552 
412 1 4.60558 1.37339 1.13243 -0.213887 0.306439 0.783545 
413 1 3.90662 0.379403 8.84421 0.597647 0.547725 0.23431 
414 1 0.779528 6.00341 6.44156 0.261165 1.40989 0.527799 
415 1 6.59093 5.3253 2.74152 -0.157349 0.250635 0.914444 
416 1 0.690151 3.23031 2.52365 -0.610328 0.716919 -0.529537 
417 1 3.77045 8.61785 7.79009 0.414251 0.421565 0.122606 
418 1 4.64199 1.56596 3.54154 -0.849618 -0.388997 0.250816 
419 1 5.16325 1.66284 0.44341 -0.813484 0.425341 0.964452 
420 1 2.32663 8.92352 1.33531 -0.255732 -0.860928 -0.164826 
421 1 5.35262 2.40247 7.12907 -0.385476 0.0516954 -1.04857 
422 1 6.98495 7.66794 0.402047 -1.19912 -0.213734 -0.423832 
423 1 7.57824 3.548 8.10339 0.882562 0.933965 -1.30095 
424 1 6.37781 6.47663 8.0864 0.088608 -0.957596 0.840729 
425 1 2.21282 2.44332 4.25553 -0.137563 0.228124 0.0313454 
426 1 4.63293 3.82185 6.01609 -0.179286 0.00827331 -0.75342 
427 1 2.89978 5.85579 9.24261 0.395762 0.0782325 0.184873 
428 1 5.79483 4.20855 1.81173 0.809307 1.65266 -1.42655 
429 1 5.36651 2.55039 0.368109 -0.886057 0.00811603 1.14468 
430 1 8.77812 7.67961 5.08563 0.265283 0.21108 0.262347 
431 1 9.00217 2.0918 3.48279 -1.3551 -0.182507 -0.0890954 
432 1 3.89636 0.636984 4.77798 1.04183 -0.308818 -0.679288 
433 1 6.36554 8.58578 5.16868 -0.444252 -0.378701 0.161627 
434 1 6.39749 0.180079 2.47146 -0.250513 -1.10609 0.260687 
435 1 5.74955 1.89017 4.75119 -0.67951 1.01594 1.02335 
436 1 1.8696 6.04284 1.26898 -0.360378 -1.33137 0.194716 
437 1 4.37726 2.36013 3.97325 -0.191707 -0.675874 0.400274 
438 1 7.12482 1.25927 4.27942 0.595919 -0.925794 0.590969 
439 1 7.54076 4.44285 0.0406577 -0.575255 0.971142 -0.386234 
440 1 0.607788 7.891 3.91228 -0.722345 -0.168464 0.729874 
441 1 7.09746 8.59447 0.323929 -0.141474 1.7895 -1.93795 
442 1 7.78828 5.92777 5.00772 0.392091 1.2965 0.661693 
443 1 4.55642 5.90035 5.43551 -0.888537 -0.495505 0.603074 
444 1 2.63163 0.100296 4.11127 -0.220474 0.0587933 -0.0794063 
445 1 9.19803 4.11489 9.22238 0.207263 -1.46122 0.413024 
446 1 6.16922 6.51444 4.97786 0.118703 -0.116761 -0.500785 
447 1 6.96988 8.92224 8.24367 -1.10149 0.374801 0.177247 
448 1 4.73439 7.90114 6.69348 0.651862 -0.652653 0.153351 
449 1 7.90113 1.85079 5.7179 -0.421456 0.53863 -0.517561 
450 1 9.18483 9.11947 7.14255 0.0506658 -0.461279 -0.722594 
451 1 1.68682 8.92871 5.48544 -0.331361 -0.247049 -1.12598 
452 1 5.25445 4.95799 1.03736 -0.900599 0.643909 0.334446 
453 1 3.63379 2.01226 1.28934 0.265519 0.157171 0.767773 
454 1 8.35958 5.78202 3.32666 -0.792897 -0.708752 -0.814247 
455 1 8.09057 3.36323 1.85292 -1.56151 -0.930265 -0.620695 
456 1 9.14792 2.34131 5.30706 -0.370919 1.8791 0.028676 
457 1 3.72243 4.49398 0.926327 0.498596 -0.468191 -0.817106 
458 1 7.5454 1.85052 6.62468 0.369698 0.742334 -0.585348 
459 1 8.02163 5.91001 7.80127 -0.505547 1.16843 -0.417188 
460 1 5.21126 2.85678 4.31136 -1.00115 0.154071 -0.310837 
461 1 0.469697 5.72281 0.182668 0.0311644 -2.11985 0.967044 
462 1 5.08725 8.02453 4.02302 0.350512 -0.108076 0.707456 
463 1 8.90182 3.27752 1.35798 -0.102657 0.749477 -1.30879 
464 1 0.401247 4.40417 3.73762 0.926647 1.41575 0.506904 
465 1 9.31352 1.55635 0.678904 -0.00733192 2.11504 -0.15553 
466 1 7.44846 0.833153 0.297369 0.801596 -0.339435 -0.616816 
467 1 8.69638 7.37719 0.469105 1.07167 -1.38395 -0.745833 
468 1 1.88429 2.2108 3.35287 -0.595662 -0.870665 -0.319272 
469 1 7.76579 4.62829 3.72918 0.535397 -0.501995 -0.433414 
470 1 3.74042 2.86056 0.743113 -0.858903 -0.388895 -0.694791 
471 1 3.3964 6.46749 6.59941 -0.291183 -0.236212 0.0644958 
472 1 6.43397 3.4462 2.10787 0.00677904 -1.38561 0.29344 
473 1 6.38851 6.6491 4.02372 -0.643049 -0.2461 -0.730018 
474 1 0.903577 0.123802 8.66682 -0.842223 0.200767 0.296561 
475 1 6.28842 4.87462 4.09619 0.635342 0.0197595 -0.706781 
476 1 8.87165 8.39488 4.4881 -0.842965 -1.22372 0.0820546 
477 1 5.44232 6.41305 4.1115 0.228106 -0.532547 -0.476996 
478 1 2.48664 4.88967 5.01303 0.283177 -0.918344 0.101162 
479 1 7.29187 0.876568 6.91746 0.744705 0.807978 -1.5133 
480 1 3.14762 8.39501 1.24246 0.718538 -0.986367 0.266486 
481 1 1.92809 4.72937 4.28768 -0.585845 -1.0674 0.0247482 
482 1 2.19208 4.12467 2.70857 -0.474287 0.986058 -0.00725496 
483 1 6.57184 7.30977 6.40189 -0.614753 -0.65956 0.148292 
484 1 8.0526 2.70655 7.91244 0.197654 0.00982846 1.0666 
485 1 0.139807 6.66467 2.73487 0.0255897 0.926157 -0.382092 
486 1 6.81005 0.467205 8.49846 0.227712 0.742445 0.214202 
487 1 1.4546 6.55566 9.24843 0.899305 -1.17533 -0.508074 
488 1 1.24919 6.56838 4.91366 -0.0311477 0.846454 -0.228925 
489 1 2.30668 7.7707 3.3038 0.610061 0.805114 -0.168298 
490 1 2.06192 7.68862 7.57107 0.707174 -0.676297 -1.10358 
491 1 6.81296 5.7915 1.75024 0.320548 0.575845 -0.0453113 
492 1 9.33467 8.21728 6.85834 -0.370555 0.0785131 0.78198 
493 1 7.00952 7.97309 1.99855 1.07187 -0.584767 -0.68383 
494 1 1.30009 2.24679 4.11761 -0.60315 0.901646 -1.48325 
495 1 1.72095 1.65769 4.72507 -1.13579 1.16325 -0.0224914 
496 1 9.33368 8.09269 5.80229 1.50231 0.0530173 0.310924 
497 1 4.29557 5.29379 0.686507 0.766026 0.834872 -1.20354 
498 1 9.20983 3.72868 2.19025 -0.238015 -0.220632 0.864557 
499 1 7.19687 3.80953 3.38501 0.38841 -0.0973729 0.906446 
500 1 0.100219 3.99351 5.39015 -0.400147 1.76138 -1.54565 
501 1 0.242313 5.40379 1.79043 0.592943 0.28604 0.156512 
502 1 4.46131 4.68728 1.50666 0.595356 1.06173 -1.39074 
503 1 1.00247 4.82928 4.34741 1.05133 -0.307428 0.564409 
504 1 2.062 0.15701 8.24848 0.10057 -0.434726 0.593134 
505 1 8.58484 7.94848 6.40265 0.13831 1.70057 -1.05316 
506 1 3.57179 6.25658 1.3407 0.8459 -0.0974704 0.586158 