ITEM: TIMESTEP
1457
ITEM: NUMBER OF ATOMS
1000
ITEM: BOX BOUNDS pp pp pp
0.0000000000000000e+00 9.4000000000000004e+00
0.0000000000000000e+00 9.4000000000000004e+00
0.0000000000000000e+00 9.4000000000000004e+00
ITEM: ATOMS id type x y z vx vy vz 
1 1 5.70101 0.794902 1.29084 0.607633 -0.689315 0.160313 
2 1 2.76893 1.0507 0.188952 -0.490403 -0.000666198 -0.970652 
3 1 5.63446 2.05245 4.88991 -0.133516 0.563143 1.13391 
4 1 1.37858 9.18594 2.93641 0.335402 0.987594 -0.357242 
5 1 4.71469 1.42023 6.36737 0.954969 -0.0837951 0.831894 
6 1 8.51855 7.78208 1.10452 -0.937503 -5.75262e-05 -1.09218 
7 1 4.99383 4.84461 8.76394 0.582521 -0.812778 -0.664652 
8 1 0.67402 0.660775 4.78179 0.209232 0.326276 -0.0606639 
9 1 6.69 5.3099 6.97025 -0.191978 -0.260508 0.53433 
10 1 7.92362 2.94197 3.73586 0.429251 0.398595 1.82989 
11 1 5.35607 6.37744 6.12019 -0.178932 0.771933 -1.1751 
12 1 7.8924 8.20511 6.8821 -0.421492 0.616486 -1.3405 
13 1 8.6061 1.83266 5.18932 0.420962 0.794387 0.939044 
14 1 5.37384 4.28599 1.05452 0.431495 1.21608 -1.18658 
15 1 3.23253 2.20169 5.17771 1.33549 -0.106663 0.017696 
16 1 0.78787 8.08681 6.81371 0.00622379 -0.901022 0.0574089 
17 1 7.24164 2.99535 7.21816 -0.584147 -2.09311 -0.711085 
18 1 8.39453 4.82942 2.47516 -1.22269 0.0821116 -0.26879 
19 1 2.09772 2.68652 5.01949 0.367544 0.613485 -0.509048 
20 1 6.47959 0.429048 8.11904 -0.12685 -0.932313 0.277568 
21 1 3.27156 9.22805 1.30745 1.79332 0.0916735 1.13979 
22 1 7.32041 8.68513 8.88437 0.405375 0.35299 0.140885 
23 1 5.69345 7.63959 1.56512 -0.833427 -1.03352 0.939285 
24 1 8.43454 7.53152 3.02261 -1.18252 0.772996 -0.0639699 
25 1 7.35936 2.62765 9.11903 0.976642 0.0746422 -0.360744 
26 1 7.15942 6.12993 3.47796 0.551691 -0.173314 -1.14231 
27 1 6.05527 5.39327 3.47934 0.342307 -0.232276 0.599129 
28 1 5.38334 9.26605 5.99555 2.41043 -1.33296 -0.592095 
29 1 1.36495 8.64881 7.34666 1.05185 -0.12179 0.282458 
30 1 4.28363 1.69 2.07139 -0.195181 1.00495 -1.76461 
31 1 0.285755 2.17834 5.3152 -0.667686 0.124719 -0.827241 
32 1 2.38567 3.36263 4.34062 -0.680647 -1.10456 0.124258 
33 1 4.15439 1.90005 3.00032 1.21743 1.00019 -0.42626 
34 1 2.92652 5.26473 5.36782 -2.42323 -0.0982207 -0.626875 
35 1 5.9374 5.67767 6.47976 0.00841541 1.88478 -0.676318 
36 1 4.88021 5.38514 2.46518 1.21651 -0.789945 0.610325 
37 1 2.53531 0.207153 9.13903 1.00867 -1.41663 0.0512876 
38 1 0.977691 9.25957 1.47509 -1.11357 -0.777315 -0.328692 
39 1 3.2715 5.03876 4.52182 -0.368774 0.636647 -0.213127 
40 1 2.84851 5.73819 1.39257 1.58084 0.802149 -0.272042 
41 1 3.72927 3.18088 3.26201 0.856635 -0.595517 0.299677 
42 1 7.20955 7.70543 6.44056 -0.530073 1.2681 -1.05523 
43 1 8.70278 6.79551 4.65266 -1.26645 -0.269585 1.47938 
44 1 2.86989 0.0329339 8.25546 0.296976 -1.00214 1.70519 
45 1 4.86221 9.22991 2.42855 0.109349 -0.0974332 -0.449093 
46 1 9.11379 7.07771 7.99595 -0.181417 0.447918 -0.212236 
47 1 3.74021 1.09341 2.63597 0.417152 0.120888 0.21683 
48 1 1.94735 8.29138 5.54047 0.113561 -0.604439 0.0145947 
49 1 2.18413 0.73909 5.4437 0.142566 -1.46062 -0.834517 
50 1 2.82296 0.12538 3.52853 -0.250477 -1.00562 0.469521 
51 1 1.7327 4.87509 3.57196 0.372422 -0.663435 -0.225994 
52 1 6.35221 5.01133 4.61337 -0.905055 -0.208842 0.321825 
53 1 6.78201 4.7807 5.44782 1.11388 0.947434 -0.437738 
54 1 4.60002 1.27522 0.172589 0.521448 -0.367553 1.31812 
55 1 5.83872 3.25226 7.24274 0.745149 -1.71349 0.480357 
56 1 5.07208 0.347989 9.37797 -0.375783 0.196619 0.158566 
57 1 9.10728 6.21006 3.05795 -0.7249 0.759136 -0.408652 
58 1 6.27519 8.73122 7.80273 1.04126 0.407707 0.575259 
59 1 2.68096 8.00745 0.028416 0.468883 -0.0939215 1.53452 
60 1 4.90528 4.40047 7.91641 0.386485 -0.515923 -0.554658 
61 1 3.13512 0.651204 7.51667 0.0658678 0.296663 1.11015 
62 1 6.06236 2.22407 6.02497 -0.729546 0.443227 0.249465 
63 1 7.42513 1.33281 6.30736 0.504193 1.0534 -0.0550566 
64 1 4.20999 2.94255 6.51551 0.198301 -1.40817 0.110248 
65 1 7.3301 6.06041 2.50283 -1.18331 0.304027 -0.461895 
66 1 0.746336 1.66176 4.68809 -0.921956 -0.560115 -0.543566 
67 1 2.65389 6.15771 9.04556 0.0631929 0.764623 1.20492 
68 1 5.82376 2.96998 4.60064 -0.272557 1.08919 0.638454 
69 1 5.22359 5.71663 1.62567 -0.858832 -0.010424 -0.520192 
70 1 4.04676 5.57997 6.8124 0.661683 0.410425 0.447016 
71 1 2.42024 7.4955 5.11391 0.375105 0.691262 0.361163 
72 1 3.00101 0.0788507 6.70042 -0.329117 -0.616627 -0.572457 
73 1 4.77491 2.80826 8.33795 1.17384 -0.647909 1.20746 
74 1 6.88142 6.71913 5.17233 0.870102 0.961543 0.392062 
75 1 6.24412 8.42634 1.56405 -0.892964 1.38242 -0.296279 
76 1 0.841522 0.20634 0.562488 -0.0525793 0.705947 -0.195058 
77 1 6.77619 5.52462 6.05213 -0.300733 -1.33083 -0.125695 
78 1 9.1586 7.32415 0.563758 0.288142 -1.91423 2.07887 
79 1 4.23767 2.0312 7.86933 1.34059 1.27129 -0.0348004 
80 1 6.08273 4.04567 0.457581 -1.49428 -0.13675 -0.734125 
81 1 2.54169 7.51501 4.12132 -0.0716778 0.214892 0.0355659 
82 1 0.456922 8.06376 4.26392 0.446707 0.836527 -0.270122 
83 1 2.42355 8.84851 0.292455 -0.00259834 0.500263 0.950326 
84 1 1.30675 1.09751 8.31202 -0.531371 1.70785 0.109849 
85 1 2.91184 4.3076 5.35879 -1.8495 -0.0152653 0.128511 
86 1 6.47347 2.78748 8.76531 -2.33114 1.18511 -0.0929164 
87 1 5.77064 4.85074 9.37292 0.464257 0.626332 -0.593793 
88 1 6.0462 0.198591 2.7328 0.929483 -1.20789 -0.795317 
89 1 1.70719 7.24984 4.53137 0.104541 0.662104 1.48489 
90 1 7.58636 9.02813 4.54868 0.778805 -1.00444 -0.560219 
91 1 6.09441 6.39587 4.77211 0.0309281 -0.777314 -0.0893369 
92 1 2.28524 6.55376 0.649456 0.208536 0.266573 0.240142 
93 1 8.24155 7.51512 6.32024 -0.228445 0.940783 -0.296087 
94 1 1.53477 4.99205 2.64691 1.63036 -1.10803 0.693267 
95 1 2.84712 6.68678 7.46635 0.810514 0.20196 -0.139748 
96 1 5.99599 6.8235 7.57214 -0.330779 0.534118 0.79492 
97 1 0.552927 7.86756 2.352 -0.0166388 -0.122578 2.22786 
98 1 5.96935 6.01208 2.14234 0.529302 -0.526439 0.84537 
99 1 3.11655 8.9196 4.84898 0.132855 -0.559324 -0.870737 
100 1 3.2871 9.21022 0.355819 -0.0178027 0.231335 -0.411497 
101 1 6.28167 4.15484 1.42166 2.22478 0.510039 -1.31083 
102 1 2.27159 8.14555 1.80126 0.382288 -0.779657 1.41866 
103 1 1.82434 5.1964 6.14581 0.167113 0.476483 -0.141127 
104 1 4.54139 5.76455 5.83923 -0.0726511 0.437971 -0.199295 
105 1 4.52496 9.15134 8.88862 0.128762 0.455503 -0.327931 
106 1 9.24105 9.17924 6.37087 -0.178465 -0.346356 -0.913327 
107 1 7.86783 1.89987 6.93295 0.769686 0.570016 -1.97572 
108 1 0.664797 6.96592 2.03268 1.1737 0.600396 -0.367247 
109 1 8.83459 6.0072 4.0095 0.681933 0.187831 -0.023036 
110 1 5.90172 8.09287 8.70779 -0.00657488 1.14339 0.593097 
111 1 5.82781 3.11643 6.29264 -1.2527 1.27506 -0.0809484 
112 1 7.59472 8.1538 0.346588 1.01599 0.653026 0.861522 
113 1 6.69058 6.64792 9.23899 -0.247911 0.280242 -1.21006 
114 1 6.52633 4.38267 7.10364 -0.0581714 -1.36433 -0.542416 
115 1 5.6633 3.45285 1.65304 0.568634 2.05263 0.199577 
116 1 5.45834 7.1936 0.673287 -0.107288 0.265847 0.458382 
117 1 2.67051 4.95226 3.73486 2.43062 -0.981873 0.876253 
118 1 5.77026 7.28633 3.93013 -1.06502 -1.19734 -0.211688 
119 1 3.07425 8.30283 7.03135 0.423599 0.404563 0.615152 
120 1 4.39645 8.1337 4.90337 0.804795 -0.910957 -0.216917 
121 1 8.57995 1.85535 7.53725 0.0957688 0.801963 -0.354442 
122 1 5.74345 4.95089 7.0864 -0.0623306 0.0695987 0.336428 
123 1 3.67722 6.0358 3.60165 0.146715 -0.548204 -0.826936 
124 1 6.53759 7.15037 5.93477 -0.714598 0.471089 -0.661331 
125 1 8.183 7.48887 4.10041 -0.458635 -1.08544 -0.938963 
126 1 2.62924 4.69942 6.15734 -0.10639 0.348097 -0.387559 
127 1 2.91634 8.75815 3.01903 0.87476 0.749201 1.19745 
128 1 0.750291 8.9272 6.41792 -0.959514 -0.448159 0.362159 
129 1 2.62274 6.94139 2.19924 0.555784 0.484356 0.748791 
130 1 7.29628 2.8859 1.38909 -1.16542 0.595789 -0.690056 
131 1 0.474392 0.894499 7.3285 -0.863656 -0.927374 -0.0130349 
132 1 7.23124 3.08402 8.22179 0.138732 -0.583989 -0.135341 
133 1 9.39319 0.485164 0.26382 0.136332 0.114374 -0.815306 
134 1 4.71696 0.495125 6.52496 -0.118891 -0.142384 -1.45272 
135 1 4.93155 7.20103 1.88529 -1.42294 0.353071 -1.06382 
136 1 1.48399 7.61017 6.40295 0.380554 0.0138564 -0.507153 
137 1 2.35261 6.53397 4.84565 1.16742 -0.0189145 0.335225 
138 1 4.46265 5.49487 3.35154 0.250329 -0.367626 0.0119546 
139 1 4.47737 6.42957 6.54782 -0.932826 -1.34017 -0.394238 
140 1 7.72442 9.05309 5.45553 0.913427 0.591921 -0.655797 
141 1 8.24248 5.75204 2.38811 -0.714782 -0.265116 -0.516136 
142 1 2.84724 1.26997 6.81196 0.786999 -0.533721 0.53006 
143 1 9.06711 4.47887 4.89819 0.24607 -0.6813 0.287049 
144 1 2.12947 6.60168 3.94432 0.73489 -0.0549835 -1.52368 
145 1 6.00436 7.03247 8.50985 -0.268201 -0.713543 -1.52961 
146 1 9.3919 5.60632 6.02761 0.212932 -0.727328 -0.63947 
147 1 7.84582 9.04194 6.3721 1.22528 -0.130516 0.711113 
148 1 7.7723 3.65998 3.1416 0.427615 0.887017 -0.478666 
149 1 3.6881 9.0832 3.38266 -1.13732 0.46925 1.25449 
150 1 3.49107 0.609144 1.82108 0.143492 0.587728 -1.02031 
151 1 3.48317 3.48996 6.61214 -0.618681 -0.733719 0.861335 
152 1 4.5553 5.56031 0.963639 -0.348995 0.77711 -0.518456 
153 1 7.27307 5.22817 4.59754 -0.932131 0.888967 0.00453105 
154 1 3.49958 4.31339 6.18287 0.890925 0.568209 -0.827437 
155 1 3.76422 7.63393 5.35841 -0.261001 0.964744 0.0300973 
156 1 5.55737 2.62448 8.80509 -1.21043 1.02393 -0.233715 
157 1 7.58687 6.30175 7.30433 0.216559 -1.09467 -0.899646 
158 1 3.09487 9.23619 5.73199 -0.815854 0.00944623 -1.21093 
159 1 9.15798 8.70578 4.5407 0.802833 0.664785 -1.17303 
160 1 7.77557 8.09235 2.62393 0.682652 0.719176 -0.73584 
161 1 5.36212 5.98848 5.26538 1.27633 0.0182618 0.467503 
162 1 0.891539 4.09474 6.00568 -0.138372 -0.319649 0.167264 
163 1 6.23333 8.78207 0.669805 0.225708 0.859307 0.814264 
164 1 6.31369 1.78858 2.41524 -0.375164 -0.949843 1.51829 
165 1 6.10856 7.40894 9.37334 -0.653679 0.290205 -0.610082 
166 1 4.73946 7.15184 3.84527 0.0669995 -0.561575 -0.176484 
167 1 4.8124 8.88563 0.378425 -0.462535 -0.474481 1.15734 
168 1 5.33668 1.72763 5.7102 0.186298 0.701186 -0.271118 
169 1 0.673548 8.94663 4.80281 1.24333 0.395547 -1.31685 
170 1 3.73005 8.82996 8.35322 -0.620726 -0.646606 -1.54868 
171 1 4.85534 0.667346 0.850514 -0.533435 -0.0524751 1.12061 
172 1 8.09157 2.15404 5.99185 -1.26823 0.207114 -0.114888 
173 1 1.33043 7.55886 7.3452 0.298974 0.622499 -1.44384 
174 1 4.16201 7.75345 1.96061 0.500569 0.262088 0.639327 
175 1 6.61421 8.20643 9.36606 -1.14249 0.0729176 0.311336 
176 1 4.41368 6.2562 0.339718 0.685083 -0.904306 0.57573 
177 1 5.86104 1.67407 1.57953 -1.96971 0.695946 -0.310888 
178 1 4.54906 8.98677 6.40577 -0.10989 1.32221 -0.43841 
179 1 3.1496 6.45358 2.92735 0.790753 0.569849 0.121116 
180 1 4.42839 0.603918 2.04548 0.428296 -1.49358 -0.0663937 
181 1 6.66762 0.0292644 7.18355 1.41811 -0.660123 0.388111 
182 1 2.9698 6.68907 1.2814 -0.474708 -0.659837 0.159863 
183 1 9.14757 8.17733 2.78101 -0.377317 -0.143129 -0.37446 
184 1 1.38909 1.18086 5.17814 -0.204874 0.106025 -0.289393 
185 1 1.03877 5.55986 3.29652 0.119194 -0.338989 -0.48543 
186 1 2.00952 0.876517 4.50918 -0.968643 -0.085382 1.07595 
187 1 5.79637 0.342505 8.76554 -0.286678 -1.45888 0.0647152 
188 1 1.95573 0.527505 3.6113 -0.244312 -0.219918 0.199444 
189 1 5.41176 8.56317 4.80677 -0.242486 -0.450274 0.725461 
190 1 7.60206 8.06018 3.59946 -0.249232 0.491854 0.330105 
191 1 5.05729 1.83638 3.31152 -1.60145 -0.621493 1.13695 
192 1 7.82724 8.88172 0.912947 0.437149 0.950471 0.827222 
193 1 3.36371 4.03304 7.38189 0.619019 -0.0690485 -0.221994 
194 1 0.995138 2.44392 4.18541 -0.195565 0.519161 -0.880694 
195 1 3.22815 8.00903 4.59376 0.0611732 -1.00869 -0.303811 
196 1 3.57268 0.159853 8.92552 0.948257 -1.57515 -1.30112 
197 1 6.91819 7.04679 7.58531 0.0416996 0.0629713 -0.806392 
198 1 5.82949 4.32468 5.6028 -0.339288 0.316939 0.494054 
199 1 6.22453 9.0345 6.36616 1.9279 0.407325 -1.38067 
200 1 5.40901 8.97632 6.89241 0.0842619 -0.648541 -0.668444 
201 1 1.97435 3.37204 6.24927 -1.0666 0.436561 -0.930294 
202 1 4.84404 2.3782 6.15925 -0.86375 0.758254 0.973932 
203 1 4.46139 3.09378 5.6055 0.36633 0.522466 -0.566742 
204 1 5.63821 1.45676 6.62602 0.115027 0.768266 0.146841 
205 1 2.73746 5.89773 3.79383 0.846607 0.260414 0.0131597 
206 1 6.63911 6.7569 4.04641 0.0371838 1.10191 1.13667 
207 1 6.48527 4.51936 8.08588 0.727303 0.825069 0.876967 
208 1 2.19077 6.80286 5.76755 -0.348793 0.551024 -0.649748 
209 1 4.24319 0.309335 2.94691 -0.658746 1.0547 1.49863 
210 1 3.01463 0.87337 8.64629 0.397777 -0.305332 -0.537869 
211 1 1.81325 9.20808 1.96087 1.53982 0.323651 0.50252 
212 1 5.26903 6.60189 7.01853 0.895383 -0.0289341 0.471085 
213 1 5.19776 3.40964 2.51453 -0.622849 0.44786 0.372874 
214 1 5.77512 0.435715 6.63013 0.0939173 -0.300111 -0.176919 
215 1 7.73727 1.43713 5.41904 -0.336661 -0.647633 0.38932 
216 1 1.82558 4.23663 5.91244 0.140677 -1.03017 1.09159 
217 1 3.55271 8.41753 1.69737 0.721647 0.289397 0.854559 
218 1 7.5721 7.12782 5.79718 -1.17206 -0.754556 0.0721201 
219 1 6.41879 8.96118 8.73945 -1.72039 0.750891 0.760207 
220 1 4.38525 5.61228 8.98281 0.264702 -0.477035 -0.137033 
221 1 0.972389 7.29572 3.87223 -0.210494 -0.181164 -0.195358 
222 1 1.29092 3.3412 5.5306 0.221836 -2.05974 -0.189983 
223 1 4.5278 6.1915 4.90817 -0.825227 0.04745 -0.798831 
224 1 0.655629 7.01921 0.436298 -1.08546 0.594802 -0.154376 
225 1 5.33109 4.89467 6.19691 0.2534 -1.04508 0.24686 
226 1 7.59103 5.64591 6.55382 0.66848 0.366487 0.526283 
227 1 0.310776 6.34073 4.6891 0.999759 0.173962 1.29169 
228 1 6.87203 3.46914 3.50127 0.77202 -0.316548 -0.807809 
229 1 3.72857 1.16172 8.08436 1.31258 -0.398879 -0.845009 
230 1 4.76728 7.33027 6.48354 -0.692268 0.258537 -0.47047 
231 1 5.30019 6.18696 0.706797 -0.715542 0.0416632 -0.675593 
232 1 7.68338 5.29277 3.07009 0.775611 -0.738254 0.236345 
233 1 5.79787 6.34825 3.80889 -1.1269 -0.371067 -0.559199 
234 1 8.94318 1.69304 4.2268 0.476589 0.0722213 0.0418085 
235 1 2.68425 0.96658 3.11132 -1.20509 0.618035 0.197533 
236 1 6.81631 8.12071 8.34801 -1.51013 0.530931 -0.469079 
237 1 5.19406 7.3585 9.08005 -1.52378 0.720364 -1.74029 
238 1 3.23753 6.08427 4.57575 -0.281088 0.531256 0.623204 
239 1 7.60479 8.99117 7.30783 -0.920379 -0.601752 -0.00657783 
240 1 2.6417 1.44176 4.93505 -0.0518355 -0.591899 -0.658813 
241 1 3.2583 0.248625 2.69586 -0.430942 1.72324 0.550575 
242 1 4.65318 6.77965 5.68043 -1.73372 -0.105309 -0.443049 
243 1 8.58625 8.76364 7.90803 -0.499606 0.937642 0.553112 
244 1 6.94263 8.56959 5.6029 -0.950573 1.6873 -0.754853 
245 1 8.38064 7.80308 7.66834 -1.44926 0.451717 -0.471469 
246 1 2.5535 5.95288 2.32626 -0.98402 -0.966073 -0.473439 
247 1 4.49492 7.95956 0.264022 1.36919 -0.132098 -1.3553 
248 1 1.96917 6.13429 6.37425 -0.0235646 -1.1687 0.187965 
249 1 5.61327 5.62022 4.41527 -0.76604 0.544627 -0.0718032 
250 1 3.57961 5.23178 6.05391 0.00693351 1.64837 -1.44928 
251 1 5.4057 8.60411 1.07708 -0.251369 -0.32103 0.597341 
252 1 7.05654 1.86409 3.06934 -0.0659428 -1.13722 -0.109147 
253 1 3.90296 5.88727 2.70516 0.873845 -0.947311 0.661372 
254 1 4.79282 4.44112 5.52424 0.108591 0.205368 -0.0318651 
255 1 2.78824 3.99466 3.7711 -0.503299 -1.73525 -0.474751 
256 1 5.08842 0.0388713 1.53027 0.04413 0.776752 1.25103 
257 1 2.97756 6.22056 5.49753 0.584818 -0.524668 0.224161 
258 1 5.97526 3.74676 3.99237 -0.264563 0.910553 0.494528 
259 1 1.44292 6.55694 0.214919 0.767992 0.128384 0.140361 
260 1 1.57861 5.91127 0.927743 0.327981 -0.161736 -1.52258 
261 1 3.83434 7.07996 3.35906 0.107182 -0.701972 0.448743 
262 1 1.4181 5.6758 4.91582 -0.245633 -0.778987 0.250494 
263 1 6.04976 1.9491 3.34212 0.201664 0.15584 1.27907 
264 1 4.58784 8.85839 3.32774 -0.0106677 0.570813 0.13508 
265 1 3.40964 1.56603 0.790415 0.203399 0.962521 0.459156 
266 1 4.74865 0.040873 7.36093 0.0309459 -0.550974 1.46158 
267 1 5.9526 5.29577 5.52741 0.917919 1.18676 0.281945 
268 1 4.51273 8.66554 1.6654 -0.780852 0.00315865 0.24397 
269 1 1.92364 2.60184 3.96453 -0.237551 0.26357 0.17683 
270 1 7.55999 7.49922 8.09338 0.0258218 -0.660718 1.34432 
271 1 3.68262 6.16182 6.12317 -0.0451095 -0.499564 -0.376607 
272 1 5.60529 0.0681613 0.70965 -0.0701089 -0.792387 0.428625 
273 1 5.71478 1.09673 8.06111 1.01616 1.21272 1.86208 
274 1 5.27954 5.66318 9.27647 0.83684 -0.027901 -0.029275 
275 1 0.104055 9.16631 1.08341 0.608621 0.205434 -1.99952 
276 1 4.60295 7.34744 2.78131 1.32519 0.242157 -0.807655 
277 1 8.5614 6.16457 7.257 -0.458612 0.00939344 -0.126073 
278 1 4.14222 4.61226 4.37728 -1.05392 0.115024 -0.960447 
279 1 8.54178 6.17733 1.56634 -1.3597 -0.95946 -0.0896882 
280 1 3.09486 7.59145 1.65581 1.23743 -0.368484 -0.456946 
281 1 6.22251 1.78789 0.666641 -1.20607 0.57401 -1.36626 
282 1 7.3995 0.312909 0.688459 -0.100998 0.50047 0.779783 
283 1 1.40151 6.42988 8.05771 -1.37974 0.758723 0.744791 
284 1 2.87177 6.52136 6.45104 -0.64563 0.369964 2.16344 
285 1 8.5409 0.871402 0.579244 0.406038 0.76227 -0.132728 
286 1 4.10254 4.6715 7.26507 0.268016 -1.00378 0.253992 
287 1 3.99696 1.97417 5.82468 1.01191 0.978757 -0.320584 
288 1 5.67182 7.38207 6.24738 -0.4283 0.979229 0.540217 
289 1 5.61321 6.9644 5.38576 -1.88185 -0.635328 0.196376 
290 1 7.96702 1.98159 8.64877 0.100635 -0.786485 0.614249 
291 1 5.75625 4.64817 3.97896 0.931224 0.124535 0.0814914 
292 1 5.63333 5.02346 8.05299 0.892865 0.221059 -0.651848 
293 1 2.90107 7.45239 0.752613 0.286885 1.27142 -0.557276 
294 1 5.29877 7.64289 4.66168 -0.40561 -0.123517 -0.111307 
295 1 4.52465 6.4476 3.16806 0.135243 0.394282 -0.607582 
296 1 2.32617 2.03245 6.47443 -0.262709 0.871979 0.23457 
297 1 2.03753 1.44887 7.29588 0.0416648 -1.47625 -0.0877622 
298 1 6.32972 6.16834 2.99374 -0.128858 -0.858969 -1.03394 
299 1 4.67376 0.632373 4.70594 0.0127499 0.534995 -0.286836 
300 1 6.44021 2.69123 7.81197 -0.805857 -1.79855 1.09406 
301 1 0.128966 8.94715 8.00439 -0.732217 0.582403 0.237601 
302 1 2.86523 7.03301 9.319 0.494058 0.429367 -0.699507 
303 1 3.94775 7.58648 4.19463 0.022126 0.296593 -0.236162 
304 1 2.29717 0.119026 2.73696 -0.392908 -0.567923 -0.333841 
305 1 6.26999 4.78547 6.2896 0.513503 0.0619112 1.17222 
306 1 8.16924 1.05773 7.15875 0.279358 -0.106761 -0.14946 
307 1 1.40199 8.17115 3.11179 -0.73669 0.226918 0.463264 
308 1 1.62024 2.54812 5.9842 1.44347 -0.8665 0.130116 
309 1 0.843643 4.71983 3.81553 1.35308 0.22173 1.11507 
310 1 2.60533 2.61418 5.79714 1.1022 -0.826465 -0.33613 
311 1 6.62149 3.63122 7.69009 -0.234595 0.0499242 1.13804 
312 1 8.95947 4.721 6.35383 0.526658 0.698283 0.845122 
313 1 2.72574 2.93412 6.68956 -0.358877 0.0798784 -0.529891 
314 1 4.86635 0.994788 3.72055 0.916085 0.0457372 0.715447 
315 1 3.69348 3.69909 5.48389 -0.552863 -1.45718 1.50361 
316 1 6.84003 9.35818 5.06269 0.684232 -0.853977 -0.418861 
317 1 0.369333 4.37183 6.75981 0.227333 0.831676 0.368745 
318 1 0.735628 5.50559 2.33154 0.464382 0.0950738 -1.12658 
319 1 1.73058 4.03026 4.06129 -0.484144 1.80111 0.392282 
320 1 7.76673 6.74755 1.75925 1.49365 -0.265749 1.89915 
321 1 2.40218 0.0112365 4.36629 -0.80092 0.858537 1.08094 
322 1 1.34138 6.60215 7.10902 -0.843103 -0.925986 0.63014 
323 1 9.09089 1.10299 6.80337 0.10226 0.454192 -0.59182 
324 1 8.07016 4.74246 4.96686 0.131494 0.288411 -0.343187 
325 1 6.12735 6.59989 6.6186 0.150775 0.560048 0.417676 
326 1 8.0024 3.66995 5.04067 -0.547719 0.46796 -0.132449 
327 1 2.27348 9.14453 5.26191 1.15757 0.604356 -0.39639 
328 1 2.37701 1.64916 3.94031 -0.0702503 0.220243 0.581049 
329 1 6.45963 5.46685 7.89708 0.572054 1.56966 0.155833 
330 1 9.29262 3.71033 4.37101 0.468595 -0.187971 0.275721 
331 1 1.37167 5.63134 6.88146 1.2786 0.649634 -1.15197 
332 1 8.30632 6.82297 0.875413 -1.44103 0.307218 0.23415 
333 1 8.42003 7.41767 8.58524 -0.765177 -0.401413 0.00865715 
334 1 8.18663 6.82224 7.85797 0.0208078 -0.634956 0.173377 
335 1 6.93583 7.39153 0.458284 -1.59639 -0.523168 -0.253598 
336 1 1.63163 9.10979 0.656133 0.124985 -0.508825 1.39298 
337 1 9.35573 8.92923 2.03365 -1.88461 0.65858 0.365611 
338 1 0.215291 9.39474 8.87488 0.306704 -0.42042 0.863776 
339 1 6.6574 1.93589 9.20505 0.0395973 -1.25645 0.4264 
340 1 8.16896 0.349099 1.27758 -0.388285 0.511487 1.05889 
341 1 0.155072 0.101317 4.17735 0.436253 0.0878786 -0.0985748 
342 1 3.89135 8.58418 4.17334 -0.141366 -1.06208 -1.08023 
343 1 2.00831 8.94201 3.60466 0.361852 1.06658 -0.00490539 
344 1 4.24613 7.97514 3.38251 0.763843 0.361132 -1.76155 
345 1 8.98929 9.1928 2.89988 1.43945 0.351159 -0.672132 
346 1 6.07448 3.49806 2.93536 -0.474723 -0.187108 0.381019 
347 1 7.31225 7.5551 1.98305 1.54143 -0.490472 -0.59414 
348 1 2.23042 0.524077 7.06383 0.166535 -0.512712 0.933147 
349 1 2.89909 8.24115 5.44341 0.0833681 0.118844 -1.30159 
350 1 3.89677 0.236777 6.99473 0.566667 -0.329266 0.687613 
351 1 6.77499 1.31066 1.25145 -0.689742 0.535358 -0.894105 
352 1 4.93368 4.10529 4.11479 -1.35669 -0.346502 -1.03376 
353 1 3.81237 8.63791 5.47694 1.17344 -0.147508 0.393443 
354 1 5.87774 8.22856 4.0471 0.301929 0.708409 -1.061 
355 1 7.80985 0.545765 5.92675 -0.112567 -0.256812 0.153676 
356 1 4.38919 4.82906 6.3281 0.217467 1.39844 -1.70424 
357 1 1.98648 9.14564 7.92579 1.35432 0.461881 -0.161434 
358 1 3.31393 7.94525 3.52347 0.913773 -0.0926284 1.52354 
359 1 0.106137 7.62686 7.33564 -0.330209 -0.420728 1.43688 
360 1 4.35258 0.674089 8.80408 -0.0705502 -0.179956 -0.0593534 
361 1 1.44161 9.07308 5.73825 1.47262 -0.0577617 -0.680621 
362 1 8.23588 4.46203 3.33382 0.566305 -0.0445458 0.671022 
363 1 8.11277 2.81123 6.73869 -0.762938 -0.804107 -0.533702 
364 1 2.84366 8.92106 2.10549 -0.259276 1.4235 -0.232289 
365 1 0.283844 1.07504 4.02868 -0.426593 1.80975 -1.04613 
366 1 4.65326 6.42831 1.40645 -0.746273 -0.5249 -0.0478978 
367 1 2.02246 7.36295 0.282921 0.463282 -0.913172 -0.44472 
368 1 6.01758 9.34692 1.6949 0.730161 0.549792 0.0133135 
369 1 9.11286 3.04677 6.557 -0.959473 -0.830723 -1.20989 
370 1 9.13145 8.00307 1.81571 0.119597 -1.36299 -0.355447 
371 1 7.70695 7.009 2.68081 -1.18354 1.17591 0.62453 
372 1 0.684852 9.3248 7.30832 -1.90042 0.196687 -0.782815 
373 1 1.98484 7.62775 2.5598 0.452135 0.309081 0.61336 
374 1 9.32453 3.85529 6.03997 -1.02779 0.58565 0.175383 
375 1 3.58924 7.09211 8.68073 -1.03074 -0.343572 -0.857273 
376 1 4.56378 1.22984 5.43635 -0.478428 -0.210692 0.5408 
377 1 3.36019 7.94855 6.18398 -0.314073 -1.44346 1.16331 
378 1 8.09477 6.25568 3.19621 0.38278 0.295425 -0.0541286 
379 1 8.52779 6.65184 2.41192 -0.198289 0.785488 0.720138 
380 1 6.15611 8.02118 3.16109 0.0263261 1.25848 -0.850725 
381 1 0.587308 8.38725 1.55742 -0.415557 -1.32872 -0.88397 
382 1 7.55897 1.72928 0.116024 -1.16354 0.103518 -0.452875 
383 1 0.526135 0.141672 3.31029 1.22908 0.221551 -0.427913 
384 1 5.21177 3.22597 3.84519 -0.273068 -0.721629 0.0751746 
385 1 4.17147 0.122365 1.2666 -0.218239 -0.882704 -0.225209 
386 1 6.17929 7.85035 0.798246 1.37775 0.0391468 0.113463 
387 1 1.72467 0.52702 0.190181 -0.318383 -0.269943 0.787596 
388 1 8.56298 3.87069 2.61939 -0.632915 0.114606 -0.3601 
389 1 1.42079 6.55088 5.23514 -0.734696 2.61339 0.383704 
390 1 7.41785 0.59225 7.91963 1.31282 1.47108 -0.21101 
391 1 3.84229 0.132903 5.09152 0.716825 0.294679 -0.201644 
392 1 4.07358 5.58438 4.31912 -1.3891 1.06615 0.298512 
393 1 8.02563 2.21353 2.32972 0.693872 -0.525473 1.02043 
394 1 5.52158 8.92037 8.37617 0.473596 0.423665 -0.288378 
395 1 9.26135 0.275006 5.07807 -0.23454 0.0520436 0.29791 
396 1 8.92486 7.77883 4.65745 0.367806 -0.58411 0.0878949 
397 1 6.07894 8.31124 6.98549 -0.715702 -0.398327 0.526314 
398 1 9.3368 8.21651 0.889213 -0.549212 -0.407463 0.215424 
399 1 7.53681 2.91664 4.61696 -1.41252 0.622635 -0.0326218 
400 1 8.23433 5.95644 5.77426 -1.30346 1.13214 -0.439948 
401 1 4.55435 2.67355 3.39238 -0.212634 0.111674 0.282687 
402 1 2.19323 8.08289 0.855303 -1.37329 1.48514 0.618618 
403 1 4.70789 2.23111 5.21035 0.644485 0.745651 -1.14962 
404 1 9.02746 6.12536 5.29139 -0.0975862 -0.197339 0.904465 
405 1 7.154 1.07674 4.54227 -1.24385 -1.4476 0.913048 
406 1 8.55005 8.90771 6.99159 -0.620386 -0.012196 0.61597 
407 1 3.36266 2.41392 2.81341 0.452892 -0.599153 1.27339 
408 1 5.02342 3.49038 7.69099 -0.125595 -0.733368 0.636564 
409 1 3.62863 0.730762 3.53117 0.0895175 -0.439498 -0.31235 
410 1 7.08812 9.10847 8.06897 0.32594 1.08587 1.10737 
411 1 1.53494 7.44583 5.48184 -0.734856 0.732671 0.0828941 
412 1 1.07905 7.26258 2.86828 -0.338115 1.09701 -0.670013 
413 1 5.15542 2.45145 0.584282 -0.587077 0.314893 -1.66315 
414 1 3.96882 2.51648 8.71909 0.238825 2.38612 0.595741 
415 1 3.02287 5.81507 7.10109 -1.19447 -0.664613 0.0710071 
416 1 3.093 6.77111 3.86262 -1.29873 1.06096 -0.236644 
417 1 1.15603 4.91345 5.51766 -1.10296 -0.0192662 0.0863721 
418 1 9.11977 4.57021 3.0796 -0.127281 -0.740362 0.0656402 
419 1 2.10824 7.74937 8.75343 -1.67816 0.0994779 0.642982 
420 1 5.73269 0.121435 7.61116 0.393784 -0.096779 -0.526088 
421 1 1.33281 6.48233 3.40184 0.323613 1.21604 0.153902 
422 1 6.39986 7.75841 2.23679 -0.82341 0.213236 0.419951 
423 1 6.59902 3.73152 8.64091 1.15383 -0.572868 0.167109 
424 1 1.1664 3.26688 3.67765 -0.431138 -0.758774 0.648952 
425 1 4.88197 1.55185 4.51746 -0.309342 -0.0604658 0.98794 
426 1 7.8377 5.62698 3.92688 1.10611 -0.825907 0.836824 
427 1 9.26508 5.40723 4.61021 0.382772 0.176964 -0.631769 
428 1 6.41324 2.58265 6.86121 -0.390351 -1.41755 -0.436711 
429 1 2.2379 0.712348 8.00608 0.528813 0.911257 0.700073 
430 1 7.63884 6.83531 0.0738379 0.823422 0.499081 1.55146 
431 1 5.34857 5.91085 3.10871 -0.232083 -0.028752 -1.19551 
432 1 8.39156 2.94474 2.89371 0.338201 -0.455999 -0.590981 
433 1 3.98982 3.15329 7.94599 -1.48995 -0.0909179 1.26348 
434 1 4.58006 3.61534 3.23498 -1.32345 -0.378092 1.45836 
435 1 1.15181 0.235863 4.0708 0.643737 -1.06135 -0.0277365 
436 1 6.61261 7.25847 1.41436 1.57265 -0.812801 0.118646 
437 1 6.9159 9.08043 1.29859 1.74089 0.111064 0.0180526 
438 1 1.0314 1.81584 5.78434 -0.375816 0.321989 -0.748117 
439 1 1.35833 0.588529 5.95714 0.308759 0.0207887 -1.3202 
440 1 5.04264 2.20895 1.58244 -0.0758719 0.497822 0.00463389 
441 1 4.22328 6.653 2.2701 0.311176 -1.02784 0.21727 
442 1 6.16741 0.349754 5.66695 0.123071 0.191302 0.017236 
443 1 6.62913 6.1807 7.2859 -0.513581 -0.895443 0.483538 
444 1 0.810366 5.75212 8.43288 -0.205535 -1.21621 0.673401 
445 1 1.61952 6.84619 2.19317 0.233468 -0.0562593 -0.532944 
446 1 3.30489 1.62149 3.36491 -0.723005 0.329185 -0.934043 
447 1 3.99356 6.62632 4.25498 -0.118852 1.14111 -0.670639 
448 1 6.96172 0.871123 5.50355 -1.10636 -0.604838 0.0286357 
449 1 6.6477 4.48738 9.23179 -1.04995 0.282755 0.0943434 
450 1 2.80139 1.48482 7.9421 -0.460039 -0.301351 1.15701 
451 1 7.87325 6.56052 5.09746 -0.180725 -0.311167 -0.57054 
452 1 6.93669 5.66511 0.901306 -0.406912 -0.597033 -0.239077 
453 1 4.96207 4.3226 6.9498 -1.14653 0.255681 -0.102077 
454 1 3.06889 7.13629 5.731 0.156142 1.45601 0.24379 
455 1 6.85873 1.04923 0.271682 -0.676758 1.35265 -0.42456 
456 1 7.43116 7.07361 3.57681 1.17375 0.103255 -0.713336 
457 1 2.79993 2.80785 3.49804 -1.0127 -0.369726 -0.976268 
458 1 1.70656 5.73853 3.97546 0.370085 -0.0137454 -0.448096 
459 1 7.25338 2.38517 6.45201 -0.347786 -0.246338 0.318048 
460 1 8.50132 3.19924 4.39311 -0.00202213 1.19089 -0.486408 
461 1 8.81457 2.56688 3.72181 -0.426222 0.0255388 -0.399408 
462 1 8.08782 1.29892 4.55807 1.61107 0.12553 -1.04753 
463 1 5.35389 1.6995 2.398 0.637786 -1.54943 0.52273 
464 1 8.5549 9.38115 5.71054 -0.145019 -0.23974 -1.07561 
465 1 3.89999 2.84331 4.87161 -0.466669 0.127156 -0.685672 
466 1 6.74539 4.3036 3.98404 0.752221 -0.436078 -1.02938 
467 1 8.29867 8.44068 4.18846 1.74197 0.785485 0.737672 
468 1 2.1345 7.01063 6.77167 -0.536508 -0.81681 0.0277897 
469 1 0.870006 0.646575 9.07107 -1.40509 0.861275 -0.243821 
470 1 4.47504 2.36176 4.26771 0.317205 -0.543726 -0.066116 
471 1 8.8478 7.7911 5.61038 0.202354 0.380482 1.01736 
472 1 1.45941 3.24718 4.58968 0.472809 0.951142 -0.696142 
473 1 2.84601 3.55474 5.92179 0.273316 0.607951 -0.0186836 
474 1 3.72346 4.0345 3.69225 -1.06394 -0.476303 1.30719 
475 1 4.99252 5.70855 8.25474 -1.25831 -0.630393 -1.02459 
476 1 6.96141 5.17783 3.69292 -0.751757 0.275832 -1.04552 
477 1 0.745012 5.15142 6.35583 0.932751 -0.627633 1.14179 
478 1 8.51377 0.857321 5.29958 -0.406916 0.112674 0.629151 
479 1 5.64815 8.93872 9.30771 -0.546617 1.00887 -0.384561 
480 1 6.32117 1.11405 8.85279 -1.14287 0.117007 0.947242 
481 1 7.03048 0.00904586 6.01902 0.755129 1.09948 -0.741985 
482 1 5.82775 3.45455 9.16797 1.74077 -0.171271 0.726938 
483 1 3.73215 8.36777 2.67008 -0.0586903 -0.161447 0.0463937 
484 1 3.8938 3.99074 2.7136 0.54266 0.487319 -0.605101 
485 1 6.6678 0.737476 6.45378 0.466887 0.0295728 1.69604 
486 1 7.68697 4.18773 2.32648 0.122332 0.876526 0.225753 
487 1 6.0381 1.85137 7.43082 0.848136 -0.918622 -0.642747 
488 1 7.78297 0.754757 9.36103 -1.35725 0.342637 0.972963 
489 1 3.77795 6.11321 1.11941 -0.736547 0.570941 0.390884 
490 1 5.25169 6.7051 4.54035 -0.303305 -0.779989 -0.655529 
491 1 5.53624 1.07555 5.01191 0.521448 0.27867 0.0261121 
492 1 4.91655 3.12828 9.32444 -1.03847 -0.19563 -0.208411 
493 1 1.67714 8.52861 6.45619 -0.0198711 1.71854 -0.855691 
494 1 6.6372 5.40144 1.84627 1.0427 -1.07831 1.09421 
495 1 3.40214 4.05162 4.6069 1.31318 0.336868 -0.532491 
496 1 4.76968 2.4671 2.4774 -1.01095 -0.0931385 -1.19521 
497 1 2.17803 3.65066 5.23034 0.322284 -0.720743 -0.872637 
498 1 6.35156 0.829408 1.98914 -0.830502 -0.433192 0.411449 
499 1 3.35879 4.8526 7.89105 -1.214 -0.253762 0.962314 
500 1 0.521796 5.57706 5.24519 -0.615603 0.531278 -0.286545 
501 1 8.39665 8.51191 3.24669 -0.483621 -1.11322 -0.202772 
502 1 7.7253 8.4123 8.05176 0.918489 1.81396 -0.157658 
503 1 1.47905 0.00956436 6.76404 -0.2867 -0.122082 0.171977 
504 1 8.8248 0.72436 4.34843 0.671887 -0.0101301 0.953799 
505 1 5.44144 0.0948391 5.06924 0.253516 -1.16581 2.86507 
506 1 4.68634 1.13166 8.01114 -0.305343 -0.142003 -1.16048 
507 1 6.5068 3.07924 1.94956 -0.542661 -0.542188 -0.633178 