LAMMPS data file from restart file: timestep = 19, procs = 1

462 atoms

1 atom types

0.0000000000000000e+00 4.4210242714838003e+01 xlo xhi
0.0000000000000000e+00 4.8729155080812802e+01 ylo yhi
0.0000000000000000e+00 2.4611940040680800e+00 zlo zhi

Masses

1 55.845

Atoms

1 1 2.1307617921515590e-14 4.8632834338367772e+01 2.1960832715597842e+00 0 -1 -1
2 1 1.0765732281378452e-14 2.2396851044404347e+00 5.1065012334943272e-01 0 0 0
4 1 2.0004708823099353e+00 1.0716728428954618e+00 1.3655754945215592e+00 0 0 -1
6 1 1.9964893989441732e+00 3.4105142608039873e+00 2.1284484513830937e+00 0 0 -1
43 1 4.0080566803207018e+00 4.8639418113083998e+01 2.2290678404298907e+00 0 -1 -1
44 1 3.9961309124367506e+00 2.2420405449540537e+00 5.4791888527651100e-01 0 0 0
46 1 6.0036761380538390e+00 1.0837721507205234e+00 1.4373818486779073e+00 0 0 -1
48 1 5.9894412894339260e+00 3.4135540859724571e+00 2.2098636668308376e+00 0 0 -1
85 1 8.0202628871895580e+00 4.8672035450039203e+01 2.3340779017528384e+00 0 -1 -1
86 1 7.9983031982071280e+00 2.2651955240199371e+00 6.6697340019921836e-01 0 0 0
88 1 1.0015852105665871e+01 1.1389409412373483e+00 1.5870892075147494e+00 0 0 -1
90 1 9.9942734176229546e+00 3.4580843743730920e+00 2.3889501084760445e+00 0 0 -1
127 1 1.2037100390691023e+01 2.3037975651109356e-02 3.9410543674337356e-02 0 0 0
128 1 1.2012133290826400e+01 2.3457849202976102e+00 8.6246960243197879e-01 0 0 0
130 1 1.4034326312044518e+01 1.2212215221445766e+00 1.7642988979681891e+00 0 0 -1
132 1 1.4012239037844978e+01 3.5435268979211294e+00 1.4880932242156836e-01 0 0 0
169 1 1.6058948877085040e+01 8.3670528942148159e-02 1.7901526744870211e-01 0 0 0
170 1 1.6038147353211240e+01 2.4014269625750351e+00 1.0220034148481263e+00 0 0 0
172 1 1.8065361440595670e+01 1.2525101694966303e+00 1.8710777926002715e+00 0 0 -1
174 1 1.8052760225109616e+01 3.5619585542574881e+00 2.7402609489003216e-01 0 0 0
211 1 2.0088927312126586e+01 9.9808637845732420e-02 2.4460955541860052e-01 0 0 0
212 1 2.0080821950490662e+01 2.4109339444145932e+00 1.0957181090573569e+00 0 0 0
214 1 2.2105121357419023e+01 1.2574730954659961e+00 1.9044600733639254e+00 0 0 -1
216 1 2.2105121357419023e+01 3.5614973537613284e+00 3.1340684066573665e-01 0 0 0
253 1 2.4121315402711453e+01 9.9808637845733794e-02 2.4460955541859947e-01 0 0 0
254 1 2.4129420764347373e+01 2.4109339444145927e+00 1.0957181090573553e+00 0 0 0
256 1 2.6144881274242373e+01 1.2525101694966305e+00 1.8710777926002697e+00 0 0 -1
258 1 2.6157482489728423e+01 3.5619585542574876e+00 2.7402609489003227e-01 0 0 0
295 1 2.8151293837752998e+01 8.3670528942155570e-02 1.7901526744870216e-01 0 0 0
296 1 2.8172095361626798e+01 2.4014269625750346e+00 1.0220034148481252e+00 0 0 0
298 1 3.0175916402793526e+01 1.2212215221445775e+00 1.7642988979681891e+00 0 0 -1
300 1 3.0198003676993064e+01 3.5435268979211321e+00 1.4880932242156739e-01 0 0 0
337 1 3.2173142324147015e+01 2.3037975651111060e-02 3.9410543674338577e-02 0 0 0
338 1 3.2198109424011633e+01 2.3457849202976080e+00 8.6246960243197912e-01 0 0 0
340 1 3.4194390609172167e+01 1.1389409412373452e+00 1.5870892075147487e+00 0 0 -1
342 1 3.4215969297215082e+01 3.4580843743730947e+00 2.3889501084760472e+00 0 0 -1
379 1 3.6189979827648479e+01 4.8672035450039203e+01 2.3340779017528370e+00 0 -1 -1
380 1 3.6211939516630913e+01 2.2651955240199397e+00 6.6697340019922113e-01 0 0 0
382 1 3.8206566576784191e+01 1.0837721507205309e+00 1.4373818486779086e+00 0 0 -1
384 1 3.8220801425404112e+01 3.4135540859724567e+00 2.2098636668308376e+00 0 0 -1
421 1 4.0202186034517339e+01 4.8639418113083998e+01 2.2290678404298929e+00 0 -1 -1
422 1 4.0214111802401291e+01 2.2420405449540608e+00 5.4791888527650767e-01 0 0 0
424 1 4.2209771832528105e+01 1.0716728428954685e+00 1.3655754945215575e+00 0 0 -1
426 1 4.2213753315893861e+01 3.4105142608039851e+00 2.1284484513830959e+00 0 0 -1
7 1 2.0011685920806109e-14 6.9288996311519240e+00 1.9911921849052066e+00 0 0 -1
9 1 2.0719776153650662e-14 4.5836703807486145e+00 1.2599899301749911e+00 0 0 -1
11 1 1.9997969695951989e+00 5.7555593962135143e+00 4.0520550563370172e-01 0 0 0
49 1 4.0037774761055802e+00 6.9269356624970522e+00 2.0219811581857861e+00 0 0 -1
51 1 3.9924628044293513e+00 4.5809791330550143e+00 1.2998649756579790e+00 0 0 -1
53 1 5.9886346409712843e+00 5.7503019662921702e+00 4.8815468933209172e-01 0 0 0
91 1 7.9842845548987276e+00 6.9184370039162406e+00 2.1605944394925842e+00 0 0 -1
93 1 7.9835210129765537e+00 4.5888002494296050e+00 1.4370298875755338e+00 0 0 -1
95 1 9.9796084837569428e+00 5.7745657328414230e+00 7.1216409633190569e-01 0 0 0
133 1 1.1979100376728374e+01 6.9914486237912188e+00 8.2919501407651586e-02 0 0 0
135 1 1.1991893880423406e+01 4.6693142382969803e+00 1.6939455416212423e+00 0 0 -1
137 1 1.3998554018525736e+01 5.8633415762678327e+00 1.0234324958080809e+00 0 0 0
175 1 1.6029060234720511e+01 7.0141116196024473e+00 3.5137424716951543e-01 0 0 0
177 1 1.6024260231925002e+01 4.7135715184808822e+00 1.8944847586898341e+00 0 0 -1
179 1 1.8052134984253147e+01 5.8608830427324721e+00 1.1744141395865413e+00 0 0 0
217 1 2.0083744062113620e+01 7.0020716123100764e+00 4.3928667502325530e-01 0 0 0
219 1 2.0077801826607686e+01 4.7105799262485171e+00 1.9818829675439946e+00 0 0 -1
221 1 2.2105121357419019e+01 5.8550797954695728e+00 1.2171968028906941e+00 0 0 0
259 1 2.4126498652724418e+01 7.0020716123100790e+00 4.3928667502325563e-01 0 0 0
261 1 2.4132440888230352e+01 4.7105799262485135e+00 1.9818829675439953e+00 0 0 -1
263 1 2.6158107730584895e+01 5.8608830427324694e+00 1.1744141395865419e+00 0 0 0
301 1 2.8181182480117535e+01 7.0141116196024482e+00 3.5137424716951499e-01 0 0 0
303 1 2.8185982482913037e+01 4.7135715184808777e+00 1.8944847586898330e+00 0 0 -1
305 1 3.0211688696312308e+01 5.8633415762678283e+00 1.0234324958080814e+00 0 0 0
343 1 3.2231142338109663e+01 6.9914486237912179e+00 8.2919501407650906e-02 0 0 0
345 1 3.2218348834414627e+01 4.6693142382969839e+00 1.6939455416212441e+00 0 0 -1
347 1 3.4230634231081090e+01 5.7745657328414248e+00 7.1216409633190547e-01 0 0 0
385 1 3.6225958159939317e+01 6.9184370039162362e+00 2.1605944394925847e+00 0 0 -1
387 1 3.6226721701861486e+01 4.5888002494296058e+00 1.4370298875755341e+00 0 0 -1
389 1 3.8221608073866754e+01 5.7503019662921728e+00 4.8815468933209122e-01 0 0 0
427 1 4.0206465238732456e+01 6.9269356624970468e+00 2.0219811581857856e+00 0 0 -1
429 1 4.0217779910408687e+01 4.5809791330550169e+00 1.2998649756579783e+00 0 0 -1
431 1 4.2210445745242836e+01 5.7555593962135161e+00 4.0520550563370272e-01 0 0 0
8 1 1.7890703674995084e-14 9.2713583765946765e+00 2.5363908344205094e-01 0 0 0
10 1 2.0070387135464602e+00 8.1002052338671913e+00 1.1277360373545027e+00 0 0 -1
12 1 2.0102775413876515e+00 1.0441961803039348e+01 1.8458955030004298e+00 0 0 -1
50 1 4.0182260345069771e+00 9.2711746617682866e+00 2.6490067283760960e-01 0 0 0
52 1 6.0115755900303576e+00 8.0966458879509560e+00 1.1805807305012241e+00 0 0 -1
54 1 6.0289474426833314e+00 1.0441961803039804e+01 1.8458955030155051e+00 0 0 -1
92 1 8.0201570489779357e+00 9.2653878846806759e+00 3.2725895508808611e-01 0 0 0
94 1 9.9789555814778232e+00 8.0914038435734295e+00 1.4359374333175732e+00 0 0 -1
96 1 9.9940802649272573e+00 1.0441961803039563e+01 1.8458955030395854e+00 0 0 -1
134 1 1.2000859371401758e+01 9.2863800591234593e+00 1.0265428373485068e+00 0 0 0
136 1 1.4009149142207919e+01 8.1692488128889735e+00 1.9665892572041774e+00 0 0 -1
138 1 1.4045346857470379e+01 1.0441961803026093e+01 6.1529850104852124e-01 0 0 0
176 1 1.6058013888926176e+01 9.2983564096743976e+00 1.3373251109170377e+00 0 0 0
178 1 1.8068547949696548e+01 8.1498441325116548e+00 2.1150515695021639e+00 0 0 -1
180 1 1.8078866487012192e+01 1.0441961803022577e+01 6.1529850105541717e-01 0 0 0
218 1 2.0091142599088499e+01 9.2942236529530895e+00 1.3757800526711188e+00 0 0 0
220 1 2.2105121357419019e+01 8.1470845944160430e+00 2.1433102862591467e+00 0 0 -1
222 1 2.2105121357419019e+01 1.0441961803014372e+01 6.1529850106432771e-01 0 0 0
260 1 2.4119100115749543e+01 9.2942236529530842e+00 1.3757800526711181e+00 0 0 0
262 1 2.6141694765141491e+01 8.1498441325116566e+00 2.1150515695021634e+00 0 0 -1
264 1 2.6131376227825854e+01 1.0441961803022574e+01 6.1529850105541684e-01 0 0 0
302 1 2.8152228825911859e+01 9.2983564096743994e+00 1.3373251109170368e+00 0 0 0
304 1 3.0201093572630125e+01 8.1692488128889700e+00 1.9665892572041774e+00 0 0 -1
306 1 3.0164895857367661e+01 1.0441961803026096e+01 6.1529850104852024e-01 0 0 0
344 1 3.2209383343436286e+01 9.2863800591234593e+00 1.0265428373485086e+00 0 0 0
346 1 3.4231287133360212e+01 8.0914038435734312e+00 1.4359374333175727e+00 0 0 -1
348 1 3.4216162449910776e+01 1.0441961803039563e+01 1.8458955030395847e+00 0 0 -1
386 1 3.6190085665860103e+01 9.2653878846806776e+00 3.2725895508808722e-01 0 0 0
388 1 3.8198667124807685e+01 8.0966458879509577e+00 1.1805807305012259e+00 0 0 -1
390 1 3.8181295272154713e+01 1.0441961803039797e+01 1.8458955030155042e+00 0 0 -1
428 1 4.0192016680331065e+01 9.2711746617682902e+00 2.6490067283760910e-01 0 0 0
430 1 4.2203204001291574e+01 8.1002052338671877e+00 1.1277360373545011e+00 0 0 -1
432 1 4.2199965173450387e+01 1.0441961803039355e+01 1.8458955030004307e+00 0 0 -1
13 1 1.8274671043456122e-14 1.3955023974918566e+01 1.7005988211036542e+00 0 0 -1
15 1 1.7400915843089835e-14 1.1612565229489565e+01 9.7695791848585656e-01 0 0 -1
17 1 2.0070387135522956e+00 1.2783718372211410e+01 1.0286096458199408e-01 0 0 0
55 1 4.0037774761085387e+00 1.3956987943582041e+01 1.6698098478294328e+00 0 0 -1
57 1 4.0182260345037575e+00 1.1612748944304892e+01 9.6569632910901571e-01 0 0 -1
59 1 6.0115755900305903e+00 1.2787277718128269e+01 5.0016271459029864e-02 0 0 0
97 1 7.9842845549068731e+00 1.3965486602155710e+01 1.5311965665625342e+00 0 0 -1
99 1 8.0201570489834371e+00 1.1618535721393982e+01 9.0333804688411024e-01 0 0 -1
101 1 9.9789555814866517e+00 1.2792519762498959e+01 2.2558535727594400e+00 0 0 -1
139 1 1.1979100376738630e+01 1.3892474982267458e+01 1.1476775006439754e+00 0 0 0
141 1 1.2000859371395789e+01 1.1597543546933096e+01 2.0405416470014620e-01 0 0 0
143 1 1.4009149142213756e+01 1.2714674793165994e+01 1.7252017489487115e+00 0 0 0
181 1 1.6029060234724863e+01 1.3869811986446622e+01 8.7922275492849600e-01 0 0 0
183 1 1.6058013888927995e+01 1.1585567196372789e+01 2.3544658952568889e+00 0 0 -1
185 1 1.8068547949699692e+01 1.2734079473527746e+01 1.5767394366756273e+00 0 0 0
223 1 2.0083744062115926e+01 1.3881851993728187e+01 7.9131032708995552e-01 0 0 0
225 1 2.0091142599088485e+01 1.1589699953081563e+01 2.3160109535171802e+00 0 0 -1
227 1 2.2105121357419016e+01 1.2736839011616540e+01 1.5484807199308004e+00 0 0 0
265 1 2.4126498652722116e+01 1.3881851993728189e+01 7.9131032708995452e-01 0 0 0
267 1 2.4119100115749553e+01 1.1589699953081567e+01 2.3160109535171807e+00 0 0 -1
269 1 2.6141694765138350e+01 1.2734079473527750e+01 1.5767394366756284e+00 0 0 0
307 1 2.8181182480113183e+01 1.3869811986446622e+01 8.7922275492849733e-01 0 0 0
309 1 2.8152228825910043e+01 1.1585567196372788e+01 2.3544658952568889e+00 0 0 -1
311 1 3.0201093572624288e+01 1.2714674793165997e+01 1.7252017489487128e+00 0 0 0
349 1 3.2231142338099403e+01 1.3892474982267457e+01 1.1476775006439759e+00 0 0 0
351 1 3.2209383343442255e+01 1.1597543546933098e+01 2.0405416470014609e-01 0 0 0
353 1 3.4231287133351380e+01 1.2792519762498955e+01 2.2558535727594395e+00 0 0 -1
391 1 3.6225958159931167e+01 1.3965486602155716e+01 1.5311965665625344e+00 0 0 -1
393 1 3.6190085665854603e+01 1.1618535721393979e+01 9.0333804688410957e-01 0 0 -1
395 1 3.8198667124807450e+01 1.2787277718128276e+01 5.0016271459028816e-02 0 0 0
433 1 4.0206465238729507e+01 1.3956987943582043e+01 1.6698098478294323e+00 0 0 -1
435 1 4.0192016680334284e+01 1.1612748944304887e+01 9.6569632910901781e-01 0 0 -1
437 1 4.2203204001285748e+01 1.2783718372211409e+01 1.0286096458199556e-01 0 0 0
14 1 2.0140152448275310e-14 1.6300253225331090e+01 2.4318010758502835e+00 0 0 -1
16 1 1.9997969695964390e+00 1.5128364209865509e+01 8.2539149631414788e-01 0 0 -1
18 1 1.9964893989536596e+00 1.7473409345270330e+01 1.5633425546520532e+00 0 0 -1
21 1 1.9731935748059013e-14 1.8644238501631726e+01 7.1994687862008244e-01 0 0 -1
56 1 3.9924628044434893e+00 1.6302944473020048e+01 2.3919260303746155e+00 0 0 -1
58 1 5.9886346409839355e+00 1.5133621639784762e+01 7.4244231264489535e-01 0 0 -1
60 1 5.9894412894541107e+00 1.7470369520101027e+01 1.4819273392245793e+00 0 0 -1
63 1 3.9961309124509485e+00 1.8641883061111077e+01 6.8267811670222045e-01 0 0 -1
98 1 7.9835210129985024e+00 1.6295123356639241e+01 2.2547611184946357e+00 0 0 -1
100 1 9.9796084837737151e+00 1.5109357873230493e+01 5.1843290568634448e-01 0 0 -1
102 1 9.9942734176490600e+00 1.7425839231693654e+01 1.3028408976138151e+00 0 0 -1
105 1 7.9983031982319899e+00 1.8618728082053572e+01 5.6362360181357929e-01 0 0 -1
140 1 1.1991893880446957e+01 1.6214609367769359e+01 1.9978454644907226e+00 0 0 0
142 1 1.3998554018537799e+01 1.5020582029790903e+01 2.0716450625996519e-01 0 0 0
144 1 1.4012239037872726e+01 1.7340396708142663e+01 1.0817876796361159e+00 0 0 0
147 1 1.2012133290858824e+01 1.8538138685767436e+01 3.6812739961053609e-01 0 0 0
182 1 1.6024260231943295e+01 1.6170352087569491e+01 1.7973062474557864e+00 0 0 0
184 1 1.8052134984259414e+01 1.5023040563310330e+01 5.6182862514883233e-02 0 0 0
186 1 1.8052760225125770e+01 1.7321965051794500e+01 9.5657090719112592e-01 0 0 0
189 1 1.6038147353233988e+01 1.8482496643479458e+01 2.0859358721551208e-01 0 0 0
224 1 2.0077801826611715e+01 1.6173343679793138e+01 1.7099080386193224e+00 0 0 0
231 1 2.0080821950502322e+01 1.8472989661637264e+01 1.3487889301776596e-01 0 0 0
226 1 2.2105121357419019e+01 1.5028843810567029e+01 1.3400199214047340e-02 0 0 0
228 1 2.2105121357419016e+01 1.7322426252279904e+01 9.1719016141857990e-01 0 0 0
266 1 2.4132440888226331e+01 1.6173343679793138e+01 1.7099080386193235e+00 0 0 0
273 1 2.4129420764335716e+01 1.8472989661637268e+01 1.3487889301776562e-01 0 0 0
268 1 2.6158107730578621e+01 1.5023040563310328e+01 5.6182862514882588e-02 0 0 0
270 1 2.6157482489712269e+01 1.7321965051794496e+01 9.5657090719112692e-01 0 0 0
308 1 2.8185982482894747e+01 1.6170352087569491e+01 1.7973062474557848e+00 0 0 0
315 1 2.8172095361604050e+01 1.8482496643479461e+01 2.0859358721551191e-01 0 0 0
310 1 3.0211688696300246e+01 1.5020582029790903e+01 2.0716450625996416e-01 0 0 0
312 1 3.0198003676965318e+01 1.7340396708142663e+01 1.0817876796361150e+00 0 0 0
350 1 3.2218348834391072e+01 1.6214609367769356e+01 1.9978454644907229e+00 0 0 0
357 1 3.2198109423979211e+01 1.8538138685767439e+01 3.6812739961053653e-01 0 0 0
352 1 3.4230634231064329e+01 1.5109357873230492e+01 5.1843290568634526e-01 0 0 -1
354 1 3.4215969297188977e+01 1.7425839231693661e+01 1.3028408976138159e+00 0 0 -1
392 1 3.6226721701839537e+01 1.6295123356639241e+01 2.2547611184946361e+00 0 0 -1
399 1 3.6211939516606044e+01 1.8618728082053565e+01 5.6362360181357796e-01 0 0 -1
394 1 3.8221608073854100e+01 1.5133621639784760e+01 7.4244231264489580e-01 0 0 -1
396 1 3.8220801425383932e+01 1.7470369520101031e+01 1.4819273392245793e+00 0 0 -1
434 1 4.0217779910394555e+01 1.6302944473020052e+01 2.3919260303746124e+00 0 0 -1
441 1 4.0214111802387080e+01 1.8641883061111074e+01 6.8267811670222101e-01 0 0 -1
436 1 4.2210445745241600e+01 1.5128364209865508e+01 8.2539149631414888e-01 0 0 -1
438 1 4.2213753315884368e+01 1.7473409345270326e+01 1.5633425546520534e+00 0 0 -1
19 1 1.2024412229590109e-14 2.0980244348507828e+01 1.4957077344981740e+00 0 0 -1
22 1 2.0076586819760678e+00 2.2142585513580869e+01 6.5646292948937135e-01 0 0 -1
23 1 2.0004708823171939e+00 1.9812250763168478e+01 2.3262155115280896e+00 0 0 -1
61 1 4.0080566803374493e+00 2.0973660573791630e+01 1.4627231656424391e+00 0 0 -1
64 1 6.0239839908535551e+00 2.2125720052957629e+01 5.9109514327184376e-01 0 0 -1
65 1 6.0036761380763108e+00 1.9800151455346668e+01 2.2544091573926295e+00 0 0 -1
103 1 8.0202628872212767e+00 2.0941043236840137e+01 1.3577131043379578e+00 0 0 -1
106 1 1.0041566857229670e+01 2.2065757986452041e+01 4.5413505411926930e-01 0 0 -1
107 1 1.0015852105699249e+01 1.9744982664831397e+01 2.1047017985809657e+00 0 0 -1
145 1 1.2037100390724090e+01 2.0860885630417187e+01 1.1911864583624805e+00 0 0 0
148 1 1.4059675668154226e+01 2.1985174729860120e+01 2.9318195593472024e-01 0 0 0
149 1 1.4034326312073814e+01 1.9662702083919221e+01 1.9274921081478036e+00 0 0 0
187 1 1.6058948877110428e+01 2.0800253077121432e+01 1.0515817345964851e+00 0 0 0
190 1 1.8081515059887440e+01 2.1949665607908308e+01 1.9269879558893868e-01 0 0 0
191 1 1.8065361440612410e+01 1.9631413436565648e+01 1.8207132135304578e+00 0 0 0
229 1 2.0088927312134793e+01 2.0784114968213100e+01 9.8598744663328819e-01 0 0 0
232 1 2.2105121357419019e+01 2.1942159147059307e+01 1.6141921576422963e-01 0 0 0
233 1 2.2105121357419023e+01 1.9626450510587350e+01 1.7873309327701443e+00 0 0 0
271 1 2.4121315402703246e+01 2.0784114968213096e+01 9.8598744663328919e-01 0 0 0
274 1 2.6128727654950598e+01 2.1949665607908308e+01 1.9269879558893824e-01 0 0 0
275 1 2.6144881274225629e+01 1.9631413436565648e+01 1.8207132135304582e+00 0 0 0
313 1 2.8151293837727611e+01 2.0800253077121432e+01 1.0515817345964835e+00 0 0 0
316 1 3.0150567046683818e+01 2.1985174729860123e+01 2.9318195593472196e-01 0 0 0
317 1 3.0175916402764230e+01 1.9662702083919221e+01 1.9274921081478043e+00 0 0 0
355 1 3.2173142324113954e+01 2.0860885630417187e+01 1.1911864583624807e+00 0 0 0
358 1 3.4168675857608370e+01 2.2065757986452041e+01 4.5413505411927013e-01 0 0 -1
359 1 3.4194390609138786e+01 1.9744982664831397e+01 2.1047017985809640e+00 0 0 -1
397 1 3.6189979827616760e+01 2.0941043236840141e+01 1.3577131043379578e+00 0 0 -1
400 1 3.8186258723984487e+01 2.2125720052957629e+01 5.9109514327184276e-01 0 0 -1
401 1 3.8206566576761730e+01 1.9800151455346668e+01 2.2544091573926290e+00 0 0 -1
439 1 4.0202186034500585e+01 2.0973660573791630e+01 1.4627231656424400e+00 0 0 -1
442 1 4.2202584032861978e+01 2.2142585513580869e+01 6.5646292948937268e-01 0 0 -1
443 1 4.2209771832520843e+01 1.9812250763168485e+01 2.3262155115280896e+00 0 0 -1
20 1 1.5317655351837565e-14 2.3306425646527480e+01 2.3011646379662429e+00 0 0 -1
24 1 2.0162023403341385e+00 2.4463954294309218e+01 1.4765564270218847e+00 0 0 -1
27 1 2.1144420144651406e-14 2.5622094719068507e+01 6.7519944858458392e-01 0 0 -1
62 1 4.0236235667168723e+00 2.3298869476908884e+01 2.2698664357443663e+00 0 0 -1
66 1 6.0462109371258368e+00 2.4447913956451938e+01 1.4109473790858538e+00 0 0 -1
69 1 4.0398028777703230e+00 2.5617094542434195e+01 6.4181518891056222e-01 0 0 -1
104 1 8.0454720059903941e+00 2.3263250612381167e+01 2.1692966843135726e+00 0 0 -1
108 1 1.0068051874082869e+01 2.4387434974376340e+01 1.2713554599360033e+00 0 0 -1
111 1 8.0708370354646970e+00 2.5585711068727171e+01 5.3502741177531654e-01 0 0 -1
146 1 1.2063575992469282e+01 2.3182530429222428e+01 2.0082029029927253e+00 0 0 0
150 1 1.4084886000130846e+01 2.4307401471662192e+01 1.1047986477948026e+00 0 0 0
153 1 1.2089291712141028e+01 2.5503331196696063e+01 3.5782278685528085e-01 0 0 0
188 1 1.6081146073623490e+01 2.3122428987295088e+01 1.8711924365292527e+00 0 0 0
192 1 1.8097069422131188e+01 2.4274863273049682e+01 9.9976806559458353e-01 0 0 0
195 1 1.6101446873535302e+01 2.5448056774662742e+01 2.0809408869567556e-01 0 0 0
230 1 2.0097450205842932e+01 2.3105487203474688e+01 1.8058065812428210e+00 0 0 0
237 1 2.0104643606765485e+01 2.5435904017410863e+01 1.3625768618378961e-01 0 0 0
234 1 2.2105121357419019e+01 2.4268314233948459e+01 9.6679854296398993e-01 0 0 0
272 1 2.4112792508995106e+01 2.3105487203474691e+01 1.8058065812428217e+00 0 0 0
279 1 2.4105599108072553e+01 2.5435904017410859e+01 1.3625768618379089e-01 0 0 0
276 1 2.6113173292706851e+01 2.4274863273049682e+01 9.9976806559458486e-01 0 0 0
314 1 2.8129096641214549e+01 2.3122428987295098e+01 1.8711924365292532e+00 0 0 0
321 1 2.8108795841302740e+01 2.5448056774662739e+01 2.0809408869567508e-01 0 0 0
318 1 3.0125356714707195e+01 2.4307401471662192e+01 1.1047986477948004e+00 0 0 0
356 1 3.2146666722368757e+01 2.3182530429222432e+01 2.0082029029927262e+00 0 0 0
363 1 3.2120951002697012e+01 2.5503331196696060e+01 3.5782278685527896e-01 0 0 0
360 1 3.4142190840755170e+01 2.4387434974376340e+01 1.2713554599360029e+00 0 0 -1
398 1 3.6164770708847648e+01 2.3263250612381171e+01 2.1692966843135704e+00 0 0 -1
405 1 3.6139405679373340e+01 2.5585711068727171e+01 5.3502741177531710e-01 0 0 -1
402 1 3.8164031777712204e+01 2.4447913956451934e+01 1.4109473790858544e+00 0 0 -1
440 1 4.0186619148121160e+01 2.3298869476908887e+01 2.2698664357443672e+00 0 0 -1
447 1 4.0170439837067725e+01 2.5617094542434195e+01 6.4181518891056177e-01 0 0 -1
444 1 4.2194040374503899e+01 2.4463954294309222e+01 1.4765564270218843e+00 0 0 -1
25 1 2.2929842907831558e-14 2.7925994321590156e+01 1.5450051890614078e+00 0 0 -1
28 1 2.0273213471080362e+00 2.9074992014174928e+01 7.5220566201220018e-01 0 0 -1
29 1 2.0243324517905710e+00 2.6775216282826428e+01 2.3273280055379089e+00 0 0 -1
67 1 4.0523772804162581e+00 2.7926446225857344e+01 1.5055970787719837e+00 0 0 -1
70 1 6.0808437284978485e+00 2.9077989209796979e+01 6.6478844336110920e-01 0 0 -1
71 1 6.0670566520532887e+00 2.6765774275957476e+01 2.2536584999662659e+00 0 0 -1
109 1 8.0929326571887046e+00 2.7907994412030629e+01 1.3803733710521988e+00 0 0 -1
112 1 1.0113249795908764e+01 2.9033809736423478e+01 4.6423840372335617e-01 0 0 -1
113 1 1.0093090692231765e+01 2.6710269948475677e+01 2.0942421248140022e+00 0 0 -1
151 1 1.2110922722594678e+01 2.7822510521338749e+01 1.1593747993054639e+00 0 0 0
154 1 1.4121633277496835e+01 2.8953330019555459e+01 2.0723687452629838e-01 0 0 0
155 1 1.4106893435221485e+01 2.6629723360268926e+01 1.8988014458220819e+00 0 0 0
193 1 1.6115745595085755e+01 2.7777946247757811e+01 9.8028237896342552e-01 0 0 0
196 1 1.8112687076347722e+01 2.8945527442491578e+01 6.9961128776675208e-02 0 0 0
197 1 1.8109019892895379e+01 2.6606577676252115e+01 1.7797692219934353e+00 0 0 0
235 1 2.0108670674721488e+01 2.7774881834736931e+01 8.9889854539303360e-01 0 0 0
238 1 2.2105121357419019e+01 2.8948243239414374e+01 3.0045494535569175e-02 0 0 0
239 1 2.2105121357419023e+01 2.6604250461179202e+01 1.7424922528198346e+00 0 0 0
277 1 2.4101572040116547e+01 2.7774881834736934e+01 8.9889854539303538e-01 0 0 0
280 1 2.6097555638490320e+01 2.8945527442491578e+01 6.9961128776674028e-02 0 0 0
281 1 2.6101222821942660e+01 2.6606577676252115e+01 1.7797692219934345e+00 0 0 0
319 1 2.8094497119752283e+01 2.7777946247757811e+01 9.8028237896342518e-01 0 0 0
322 1 3.0088609437341209e+01 2.8953330019555452e+01 2.0723687452629869e-01 0 0 0
323 1 3.0103349279616555e+01 2.6629723360268926e+01 1.8988014458220821e+00 0 0 0
361 1 3.2099319992243352e+01 2.7822510521338749e+01 1.1593747993054651e+00 0 0 0
364 1 3.4096992918929274e+01 2.9033809736423478e+01 4.6423840372335623e-01 0 0 -1
365 1 3.4117152022606277e+01 2.6710269948475673e+01 2.0942421248140048e+00 0 0 -1
403 1 3.6117310057649334e+01 2.7907994412030629e+01 1.3803733710521979e+00 0 0 -1
406 1 3.8129398986340199e+01 2.9077989209796982e+01 6.6478844336110954e-01 0 0 -1
407 1 3.8143186062784750e+01 2.6765774275957479e+01 2.2536584999662632e+00 0 0 -1
445 1 4.0157865434421780e+01 2.7926446225857347e+01 1.5055970787719852e+00 0 0 -1
448 1 4.2182921367730003e+01 2.9074992014174928e+01 7.5220566201219952e-01 0 0 -1
449 1 4.2185910263047461e+01 2.6775216282826424e+01 2.3273280055379075e+00 0 0 -1
26 1 2.1666987854360014e-14 3.0219480489017304e+01 2.4487486667564404e+00 0 0 -1
30 1 2.0213854074906918e+00 3.1366566603457422e+01 1.6705313451540200e+00 0 0 -1
33 1 1.2232765816668504e-14 3.2511552070591158e+01 9.1306193760471610e-01 0 0 -1
35 1 2.0139643285509634e+00 3.3658836303915578e+01 1.4533815223586616e-01 0 0 0
68 1 4.0529424602867508e+00 3.0225280452457980e+01 2.4059381853346187e+00 0 0 -1
72 1 6.0760334490320584e+00 3.1378607403768843e+01 1.5826642441051577e+00 0 0 -1
75 1 4.0365628756567213e+00 3.2514346088470212e+01 8.8479212279515451e-01 0 0 -1
77 1 6.0470725655211313e+00 3.3662966834671430e+01 1.0686282948581576e-01 0 0 0
110 1 8.1064950312960846e+00 3.0227744964538296e+01 2.2549245855927840e+00 0 0 -1
114 1 1.0126007160272007e+01 3.1355925730307348e+01 1.3143114053595135e+00 0 0 -1
117 1 8.0959744477079258e+00 3.2533752597343813e+01 7.3637622877542619e-01 0 0 -1
119 1 1.0104233189953280e+01 3.3651008295084097e+01 2.2573020784692321e+00 0 0 -1
152 1 1.2125487684054569e+01 3.0139021011616880e+01 1.9435248613223794e+00 0 0 0
156 1 1.4120828272562738e+01 3.1282973024946962e+01 9.3059884544014426e-01 0 0 0
159 1 1.2126154507971938e+01 3.2455959483009714e+01 2.0582301267260236e-01 0 0 0
161 1 1.4084945630110365e+01 3.3629957930877644e+01 1.5580310018234786e+00 0 0 0
194 1 1.6116465939776049e+01 3.0114807385760820e+01 1.7194205223432542e+00 0 0 0
198 1 1.8101356903134050e+01 3.1291443322766863e+01 7.9183808334756678e-01 0 0 0
201 1 1.6093552689688941e+01 3.2461255823282407e+01 2.4117110268175508e+00 0 0 -1
203 1 1.8086872017931547e+01 3.3635716208635138e+01 1.4956932152759208e+00 0 0 0
236 1 2.0105333242784070e+01 3.0120063705090715e+01 1.6364335315248406e+00 0 0 0
243 1 2.0098077429350397e+01 3.2464827985478138e+01 2.3588787728308445e+00 0 0 -1
240 1 2.2105121357419016e+01 3.1293445133419272e+01 7.6097024165735905e-01 0 0 0
245 1 2.2105121357419016e+01 3.3635899354663266e+01 1.4844196931755715e+00 0 0 0
278 1 2.4104909472053968e+01 3.0120063705090711e+01 1.6364335315248422e+00 0 0 0
285 1 2.4112165285487645e+01 3.2464827985478138e+01 2.3588787728308431e+00 0 0 -1
282 1 2.6108885811703992e+01 3.1291443322766867e+01 7.9183808334756445e-01 0 0 0
287 1 2.6123370696906491e+01 3.3635716208635138e+01 1.4956932152759210e+00 0 0 0
320 1 2.8093776775061993e+01 3.0114807385760820e+01 1.7194205223432533e+00 0 0 0
327 1 2.8116690025149097e+01 3.2461255823282407e+01 2.4117110268175521e+00 0 0 -1
324 1 3.0089414442275302e+01 3.1282973024946962e+01 9.3059884544014448e-01 0 0 0
329 1 3.0125297084727684e+01 3.3629957930877644e+01 1.5580310018234809e+00 0 0 0
362 1 3.2084755030783469e+01 3.0139021011616880e+01 1.9435248613223783e+00 0 0 0
369 1 3.2084088206866106e+01 3.2455959483009721e+01 2.0582301267260253e-01 0 0 0
366 1 3.4084235554566021e+01 3.1355925730307348e+01 1.3143114053595135e+00 0 0 -1
371 1 3.4106009524884755e+01 3.3651008295084097e+01 2.2573020784692330e+00 0 0 -1
404 1 3.6103747683541954e+01 3.0227744964538289e+01 2.2549245855927835e+00 0 0 -1
411 1 3.6114268267130115e+01 3.2533752597343820e+01 7.3637622877542486e-01 0 0 -1
408 1 3.8134209265805993e+01 3.1378607403768843e+01 1.5826642441051555e+00 0 0 -1
413 1 3.8163170149316919e+01 3.3662966834671430e+01 1.0686282948581803e-01 0 0 0
446 1 4.0157300254551281e+01 3.0225280452457977e+01 2.4059381853346191e+00 0 0 -1
453 1 4.0173679839181311e+01 3.2514346088470205e+01 8.8479212279515407e-01 0 0 -1
450 1 4.2188857307347355e+01 3.1366566603457432e+01 1.6705313451540209e+00 0 0 -1
455 1 4.2196278386287084e+01 3.3658836303915564e+01 1.4533815223586696e-01 0 0 0
31 1 1.7880085127502934e-14 3.4806539343419111e+01 1.8458955030944699e+00 0 0 -1
32 1 1.3951257072081163e-14 3.7101526616250908e+01 3.1753506450949565e-01 0 0 0
34 1 2.0139643285509599e+00 3.5954242382928932e+01 1.0852588498771316e+00 0 0 -1
73 1 4.0262304321921576e+00 3.4806539343427666e+01 1.8458955030864586e+00 0 0 -1
74 1 4.0365628756536784e+00 3.7098732598379335e+01 3.4580487930817272e-01 0 0 0
76 1 6.0470725655194935e+00 3.5950111852186581e+01 1.1237341726149868e+00 0 0 -1
115 1 8.0597591719103843e+00 3.4806539343431538e+01 1.8458955030802930e+00 0 0 -1
116 1 8.0959744477020603e+00 3.7079326089522247e+01 4.9422077330637598e-01 0 0 0
118 1 1.0104233189959350e+01 3.5962070391784742e+01 1.4344889276473742e+00 0 0 -1
157 1 1.2111048220768907e+01 3.4806539343445941e+01 6.1529850100657468e-01 0 0 0
158 1 1.2126154507962820e+01 3.7157119203875723e+01 1.0247739893383505e+00 0 0 0
160 1 1.4084945630104944e+01 3.5983120756011104e+01 2.1337600042205187e+00 0 0 -1
199 1 1.6076137925581758e+01 3.4806539343447362e+01 6.1529850098431271e-01 0 0 0
200 1 1.6093552689688448e+01 3.7151822863611692e+01 1.2800799792175606e+00 0 0 0
202 1 1.8086872017934791e+01 3.5977362478253234e+01 2.1960977907457222e+00 0 0 -1
241 1 2.0094812516772535e+01 3.4806539343447405e+01 6.1529850097003380e-01 0 0 0
242 1 2.0098077429344333e+01 3.7148250701416259e+01 1.3329122331830647e+00 0 0 0
244 1 2.2105121357419019e+01 3.5977179332236929e+01 2.2073713128281764e+00 0 0 -1
283 1 2.4115430198065503e+01 3.4806539343447412e+01 6.1529850097003369e-01 0 0 0
284 1 2.4112165285493706e+01 3.7148250701416259e+01 1.3329122331830614e+00 0 0 0
286 1 2.6123370696903248e+01 3.5977362478253234e+01 2.1960977907457222e+00 0 0 -1
325 1 2.8134104789256281e+01 3.4806539343447369e+01 6.1529850098431138e-01 0 0 0
326 1 2.8116690025149587e+01 3.7151822863611685e+01 1.2800799792175612e+00 0 0 0
328 1 3.0125297084733099e+01 3.5983120756011097e+01 2.1337600042205151e+00 0 0 -1
367 1 3.2099194494069138e+01 3.4806539343445941e+01 6.1529850100657513e-01 0 0 0
368 1 3.2084088206875222e+01 3.7157119203875723e+01 1.0247739893383523e+00 0 0 0
370 1 3.4106009524878687e+01 3.5962070391784749e+01 1.4344889276473729e+00 0 0 -1
409 1 3.6150483542927645e+01 3.4806539343431538e+01 1.8458955030802942e+00 0 0 -1
410 1 3.6114268267135984e+01 3.7079326089522247e+01 4.9422077330637793e-01 0 0 0
412 1 3.8163170149318546e+01 3.5950111852186588e+01 1.1237341726149876e+00 0 0 -1
451 1 4.0184012282645874e+01 3.4806539343427659e+01 1.8458955030864603e+00 0 0 -1
452 1 4.0173679839184352e+01 3.7098732598379343e+01 3.4580487930817250e-01 0 0 0
454 1 4.2196278386287084e+01 3.5954242382928932e+01 1.0852588498771345e+00 0 0 -1
36 1 2.0213854074881374e+00 3.8246512083390293e+01 2.0212596610188127e+00 0 0 -1
39 1 1.1582410605710082e-14 3.9393598197829057e+01 1.2430423394085963e+00 0 0 -1