LAMMPS (29 Nov 2010)
Running on 2 partitions of processors
Setting up regular NEB ...
Step MaxReplicaForce MaxAtomForce GradV0 GradV1 GradVc RD1 PE1 RD2 PE2 ... RDN PEN
0 0.0959676 0.0108739 0.0778308 0.0959676 0.0959676 0 -1898.9 0 -1898.9 
1000 0.0886402 0.00975774 0.0733787 0.0886402 0.0886402 0 -1898.9 0 -1898.9 
2000 0.0739682 0.00708741 0.0639027 0.0739682 0.0739682 0 -1898.9 0 -1898.9 
3000 0.0644709 0.00546529 0.0560966 0.0644709 0.0644709 0 -1898.9 0 -1898.9 
4000 0.0603265 0.00499204 0.0516039 0.0603265 0.0603265 0 -1898.9 0 -1898.9 
5000 0.0575198 0.00456825 0.0489768 0.0575198 0.0575198 0 -1898.9 0 -1898.9 
6000 0.0548912 0.00420717 0.0471817 0.0548912 0.0548912 0 -1898.9 0 -1898.9 
7000 0.0522282 0.00394249 0.0457094 0.0522282 0.0522282 0 -1898.9 0 -1898.9 
8000 0.0495156 0.00369325 0.0443139 0.0495156 0.0495156 0 -1898.9 0 -1898.9 
9000 0.046795 0.00343529 0.0428851 0.046795 0.046795 0 -1898.9 0 -1898.9 
10000 0.0441136 0.00317166 0.0413798 0.0441136 0.0441136 0 -1898.91 0 -1898.91 
11000 0.0415054 0.00297377 0.0397848 0.0415054 0.0415054 0 -1898.91 0 -1898.91 
12000 0.0389847 0.00284695 0.0380989 0.0389847 0.0389847 0 -1898.91 0 -1898.91 
13000 0.0365461 0.00271425 0.036324 0.0365461 0.036324 0 -1898.91 0 -1898.91 
14000 0.0344633 0.00257672 0.0344633 0.0341703 0.0344633 0 -1898.91 0 -1898.91 
15000 0.03252 0.00243503 0.03252 0.0318305 0.03252 0 -1898.91 0 -1898.91 
16000 0.0304978 0.00231291 0.0304978 0.0294988 0.0304978 0 -1898.91 0 -1898.91 
17000 0.0284016 0.00219363 0.0284016 0.0271523 0.0284016 0 -1898.91 0 -1898.91 
18000 0.0262363 0.00204905 0.0262363 0.0247745 0.0262363 0 -1898.91 0 -1898.91 
19000 0.024008 0.0018832 0.024008 0.0223559 0.024008 0 -1898.91 0 -1898.91 
20000 0.0217231 0.00170002 0.0217231 0.0198912 0.0217231 0 -1898.91 0 -1898.91 
Setting up climbing ...
Climbing replica = 1
Step MaxReplicaForce MaxAtomForce GradV0 GradV1 GradVc RD1 PE1 RD2 PE2 ... RDN PEN
20000 0.0217231 0.00170002 0.0217231 0.0198912 0.0217231 0 -1898.91 0 -1898.91 
21000 0.0216938 0.001698 0.0216938 0.0198648 0.0216938 0 -1898.91 0 -1898.91 
22000 0.0216059 0.00169193 0.0216059 0.0197857 0.0216059 0 -1898.91 0 -1898.91 
23000 0.0214597 0.00168182 0.0214597 0.0196542 0.0214597 0 -1898.91 0 -1898.91 
24000 0.0212556 0.00166765 0.0212556 0.0194705 0.0212556 0 -1898.91 0 -1898.91 
25000 0.0209942 0.00164943 0.0209942 0.0192353 0.0209942 0 -1898.91 0 -1898.91 
26000 0.0206763 0.00162716 0.0206763 0.0189491 0.0206763 0 -1898.91 0 -1898.91 
27000 0.0203028 0.00160083 0.0203028 0.0186127 0.0203028 0 -1898.91 0 -1898.91 
28000 0.0198747 0.00157047 0.0198747 0.0182272 0.0198747 0 -1898.91 0 -1898.91 
29000 0.0193933 0.00153608 0.0193933 0.0177935 0.0193933 0 -1898.91 0 -1898.91 
30000 0.0188599 0.00149771 0.0188599 0.0173128 0.0188599 0 -1898.91 0 -1898.91 
31000 0.0182762 0.0014554 0.0182762 0.0167864 0.0182762 0 -1898.91 0 -1898.91 
32000 0.0176436 0.00140923 0.0176436 0.0162158 0.0176436 0 -1898.91 0 -1898.91 
33000 0.0169641 0.00135927 0.0169641 0.0156024 0.0169641 0 -1898.91 0 -1898.91 
34000 0.0162396 0.00130562 0.0162396 0.0149478 0.0162396 0 -1898.91 0 -1898.91 
35000 0.015472 0.00124839 0.015472 0.0142538 0.015472 0 -1898.91 0 -1898.91 
36000 0.0146635 0.00118772 0.0146635 0.0135224 0.0146635 0 -1898.91 0 -1898.91 
37000 0.0138162 0.00112374 0.0138162 0.0127554 0.0138162 0 -1898.91 0 -1898.91 
38000 0.0129328 0.00105661 0.0129328 0.011955 0.0129328 0 -1898.91 0 -1898.91 
39000 0.0120156 0.000986527 0.0120156 0.0111235 0.0120156 0 -1898.91 0 -1898.91 
40000 0.0110672 0.000913673 0.0110672 0.0102631 0.0110672 0 -1898.91 0 -1898.91 
