ITEM: TIMESTEP
71070000
ITEM: NUMBER OF ATOMS
1000
ITEM: BOX BOUNDS pp pp pp
0.0000000000000000e+00 9.4000000000000004e+00
0.0000000000000000e+00 9.4000000000000004e+00
0.0000000000000000e+00 9.4000000000000004e+00
ITEM: ATOMS id type x y z vx vy vz
1 1 6.59037 7.78888 4.24282 -1.38704 0.252593 0.405749
2 1 2.02064 3.7996 1.39301 0.181739 0.691769 -0.792581
3 1 3.89768 2.86687 4.29287 0.643729 0.599639 0.337944
4 1 1.0293 5.24892 0.201342 -0.173085 0.519748 0.723973
5 1 2.18186 0.124414 5.99198 0.091398 0.993279 -0.276108
6 1 5.38804 6.644 5.05447 1.01063 -1.55908 0.419051
7 1 6.34599 6.83107 4.53256 0.566623 -0.629509 0.586668
8 1 3.47039 1.3156 6.59554 0.917235 0.497757 -0.846066
9 1 1.23128 4.7895 5.25343 -0.905914 -0.262112 0.554918
10 1 8.8026 3.29335 9.00391 -0.900476 -0.197694 -0.180891
11 1 4.81987 9.04161 5.94356 0.635008 0.651559 0.115353
12 1 7.4316 1.45399 1.1013 -0.790898 0.484913 -0.152286
13 1 8.3877 9.42738 4.91787 0.301285 0.681732 0.390734
14 1 3.93572 3.97247 8.14626 -0.0668394 0.830561 0.0461226
15 1 0.339402 9.31297 7.99536 -0.155126 -0.241889 0.137084
16 1 1.25712 9.07907 6.64618 0.0908546 0.535412 -0.394482
17 1 7.17413 4.14614 1.8449 -0.452611 -0.349085 0.491442
18 1 5.18265 7.33283 6.1782 -0.707446 -0.261536 -0.649234
19 1 4.75403 6.66587 6.94245 0.376832 1.36708 0.127767
20 1 8.64808 3.30853 7.97539 1.25195 -0.370078 -0.0486459
21 1 8.34533 5.07264 7.0768 1.38481 -0.373496 -0.583427
22 1 8.88584 2.35456 8.26333 0.11037 -0.0420292 -0.526953
23 1 6.40784 9.34279 0.0720018 -1.16786 0.278577 -0.0964766
24 1 8.10868 7.50735 5.68409 -1.13337 -0.347362 -0.771612
25 1 7.51748 1.13157 2.12976 -0.476288 0.878047 0.342492
26 1 4.97858 3.21054 4.1549 -0.170682 0.64577 0.224762
27 1 1.81335 0.825592 2.28374 0.70491 -0.349718 0.265098
28 1 4.59833 1.74082 2.77556 -0.063497 -0.999905 -0.594844
29 1 8.90151 2.01458 3.55936 -0.296347 1.03624 0.385545
30 1 8.04279 4.35803 5.43666 -0.595309 -0.139241 -0.642302
31 1 2.46285 2.95806 1.7041 0.973496 -0.351512 -0.761574
32 1 2.44921 4.05851 6.51346 -1.36605 -0.587571 0.741943
33 1 5.25776 -0.00386434 0.234516 0.933733 -0.319999 0.313578
34 1 5.28277 0.0508384 2.31231 0.929068 -0.880573 1.24333
35 1 2.85575 3.91847 4.0529 0.53274 -0.582088 -0.995031
36 1 3.91371 2.04409 3.59742 0.682359 -1.01341 -0.694751
37 1 5.50242 5.13235 7.73148 0.599342 0.288944 -1.41721
38 1 0.72005 1.5714 0.296164 -0.131274 -0.197993 -1.2502
39 1 6.72088 8.2898 0.904143 0.41637 -0.506814 -1.16708
40 1 1.34686 6.8057 8.75892 -0.150318 0.368371 -0.39943
41 1 5.78804 1.52179 8.58628 0.936427 -0.777357 0.629487
42 1 1.89793 0.921111 3.29853 -1.10989 -0.539124 -1.30851
43 1 2.78356 8.58923 7.47605 1.40202 0.135437 0.664954
44 1 3.08448 0.168628 6.39878 0.0419204 1.4277 0.00545351
45 1 1.91057 8.27077 3.96135 -0.415602 -0.131257 -0.322174
46 1 9.27026 6.84073 2.57127 0.365945 0.222665 -0.144551
47 1 1.78452 1.78199 1.78818 -1.25156 0.306959 1.05926
48 1 5.60212 7.65817 4.6986 -0.600118 0.569649 -0.389834
49 1 1.99681 4.51437 4.46286 0.519875 -0.810699 -2.07764
50 1 8.40074 4.58915 4.47601 0.866333 -0.0806516 0.0325833
51 1 8.57022 5.49361 3.93743 0.973873 1.26659 1.07354
52 1 6.88862 9.09472 2.72379 1.04551 0.266815 0.179687
53 1 2.59754 0.69978 3.99634 0.698535 0.617094 1.27945
54 1 8.64071 7.42111 7.66464 0.725026 0.301656 -0.739961
55 1 0.995032 4.08807 4.45283 0.650882 -0.356733 0.496829
56 1 1.52078 6.40632 3.87011 0.57937 0.219671 -0.356355
57 1 2.89885 6.82026 5.73088 -0.354394 -0.6736 0.542175
58 1 6.22489 5.12512 3.44066 -0.653126 0.486559 1.44676
59 1 5.71809 8.99491 6.39279 0.489712 -0.330893 -0.88659
60 1 2.26232 8.53604 4.88109 1.30317 -0.752467 -0.136892
61 1 1.70719 8.12782 0.541216 -0.902919 0.0582561 -0.665898
62 1 8.07959 1.00867 0.471359 0.17674 -0.0157932 -0.474652
63 1 6.3232 4.31798 6.48238 0.138236 0.002019 0.138327
64 1 1.23348 7.52507 1.33768 0.645483 1.17067 0.401815
65 1 6.08333 0.705415 3.87 0.373102 -0.53765 -1.02672
66 1 3.33703 2.53027 0.785334 -0.867051 -0.927659 -0.0700891
67 1 7.10432 7.37506 0.468608 -0.509665 -1.40988 -0.574438
68 1 4.24688 6.90489 7.81697 0.0974888 0.490773 0.479972
69 1 6.98165 6.35036 0.780007 1.20277 -1.42408 -0.354875
70 1 7.13867 4.32529 3.36038 0.0358417 -0.287751 0.111091
71 1 8.77219 2.3508 9.34272 -0.206251 -0.873539 0.353873
72 1 5.5782 1.92664 2.51933 1.72903 0.60796 0.79568
73 1 3.78827 7.14199 5.36558 0.17117 -0.833009 -0.847547
74 1 4.71301 1.02187 2.05609 -0.40988 2.2739 0.425373
75 1 6.74709 3.21342 1.85811 -0.813709 -0.365964 1.25286
76 1 9.28154 8.84471 1.4386 0.514638 -0.757614 1.11307
77 1 0.273733 1.46645 4.28406 0.117811 0.446787 0.0945596
78 1 2.86891 7.72841 2.06547 -0.950893 0.762624 0.0356588
79 1 6.95928 1.58463 8.58707 -0.577734 0.0564154 -0.000164587
80 1 0.946091 0.0980438 8.72797 2.02048 -0.0593681 -0.054519
81 1 2.35451 7.8306 6.95891 -0.0311768 0.629623 0.298033
82 1 6.75893 0.847148 2.79595 -0.110764 0.507015 -0.228947
83 1 4.74891 5.89787 4.58458 0.379576 -0.130822 0.760649
84 1 1.63806 3.52435 5.89364 0.623068 -0.613335 0.92945
85 1 3.49164 1.31552 7.61773 -0.273186 0.718492 -1.07642
86 1 3.02814 1.98057 8.29448 -0.284669 -1.64237 0.047886
87 1 3.57822 3.46061 3.40774 1.58883 1.17981 -1.61323
88 1 9.01864 1.38122 0.157849 -0.995083 0.184068 -0.724765
89 1 5.64913 3.8131 4.92372 0.24487 0.0414968 0.173122
90 1 5.96703 7.30562 1.83663 0.3446 -1.15328 0.505867
91 1 0.393578 5.34848 4.8632 -0.384145 -0.949845 1.63577
92 1 8.24338 8.49976 0.103756 -0.505672 0.318365 -0.050249
93 1 3.84867 0.40681 7.12266 0.357267 0.448105 -1.76744
94 1 1.19669 6.54703 6.03791 0.794594 -0.563731 -1.26108
95 1 8.01452 8.48927 5.33868 -0.424129 -0.701204 0.184443
96 1 6.53426 7.11886 8.06089 0.154293 0.425489 -1.7269
97 1 0.548716 4.5571 2.18316 0.281883 -0.576175 0.535152
98 1 5.92536 9.34762 3.10403 0.328033 -0.169766 -0.184069
99 1 4.59716 8.69154 6.96352 0.978244 0.591915 0.343356
100 1 9.37285 8.37434 7.81643 0.582724 0.201262 -0.494255
101 1 5.6702 5.26594 6.56341 -0.0272253 -0.678733 0.181192
102 1 2.08106 2.60994 2.62317 1.07237 -0.176501 -0.899496
103 1 3.655 8.22358 6.97445 0.769642 -0.579291 1.39978
104 1 3.69365 6.42919 3.10486 0.846471 0.104501 -1.00097
105 1 0.50649 9.31921 3.9002 1.12116 -0.300166 -0.605235
106 1 7.98919 1.62644 5.26654 0.26202 -0.364866 -0.66746
107 1 6.62953 5.94427 2.7358 0.222558 -0.917288 0.298237
108 1 8.10106 0.86723 4.2226 0.830644 0.382759 -0.232846
109 1 7.99002 8.87121 2.37044 0.248391 -0.509067 0.289678
110 1 7.92202 3.74711 8.78687 1.48421 -0.136773 1.43791
111 1 9.25052 1.91512 6.46312 -0.250584 -0.559694 -0.0111002
112 1 5.70504 2.00635 1.36613 0.999711 0.104357 -0.200142
113 1 2.89206 3.94166 1.97666 -0.747532 -0.638966 -0.338443
114 1 3.00537 4.8244 2.42067 0.150431 -0.384838 -0.0542138
115 1 5.02288 8.9333 4.83903 -0.420591 0.968155 -0.308144
116 1 6.98686 1.56188 7.50459 0.243736 0.610015 -0.889043
117 1 7.02658 8.26617 9.23815 0.7653 1.13302 0.371079
118 1 7.60369 1.99559 6.81735 -0.432684 0.0243161 0.643635
119 1 3.983 2.50721 6.6245 -0.151279 -0.936721 0.537553
120 1 1.5101 7.68181 8.17617 -0.172764 0.342757 1.54917
121 1 3.93556 9.03694 6.35037 -0.918474 0.264671 -0.330209
122 1 1.95003 8.24471 1.60674 -0.424112 -0.825191 0.42096
123 1 2.97597 5.08892 5.91954 -0.47574 0.540025 0.570593
124 1 1.61421 1.55394 5.38515 0.407003 -0.0452487 0.385016
125 1 5.17541 4.81824 4.752 0.186706 0.0407707 1.45867
126 1 7.38242 4.76772 4.3608 -0.609827 -0.55714 0.0533446
127 1 4.63048 8.24416 3.66534 -0.630216 0.13678 -0.92029
128 1 5.97995 6.33908 8.50821 -0.185981 0.336044 -0.00604705
129 1 0.410043 7.54475 8.14368 0.175477 -0.0995404 0.710725
130 1 2.94834 2.34387 3.28107 0.869679 0.489417 0.121154
131 1 9.05402 2.93186 2.39606 0.55866 -0.16304 0.0624367
132 1 8.56235 9.16167 3.56639 1.19994 -0.292342 0.466169
133 1 5.66046 0.914194 2.81872 0.305212 -0.950733 -0.552117
134 1 0.339812 6.62302 1.39241 0.77799 0.219747 0.417032
135 1 7.93735 5.44872 5.06401 0.326038 1.06077 1.13432
136 1 7.41584 8.53577 7.35826 -2.24055 0.793885 -1.47729
137 1 1.76399 4.095 8.16377 0.327075 -1.246 0.0181401
138 1 4.06438 1.79325 1.79308 -1.07128 -0.112526 0.0944445
139 1 0.105927 1.87243 7.57345 0.146293 0.39021 -0.521025
140 1 7.0857 3.59817 2.6995 1.46061 -0.272544 -0.717848
141 1 2.60522 0.159643 1.63711 0.39171 -0.208499 0.604141
142 1 4.12414 8.00517 0.415586 2.15041 0.265444 0.402582
143 1 4.62678 4.78195 8.17006 -0.83539 0.0942098 -0.492051
144 1 2.00159 2.66789 3.65539 1.59754 0.265935 -0.0959588
145 1 8.02868 4.58743 0.242325 -0.395095 0.0142742 0.552416
146 1 4.9406 0.289259 1.29122 0.0618382 0.689641 -0.0180354
147 1 4.0313 4.23722 7.14905 1.39543 0.291027 -0.7869
148 1 2.86847 6.85952 6.86297 -0.424572 -0.327771 0.686408
149 1 2.62803 8.97674 3.6751 0.618875 -0.507379 0.991496
150 1 0.178426 6.60779 4.30114 0.371755 0.214727 -0.204729
151 1 8.86729 8.89441 5.81118 0.0037211 -0.711595 0.319911
152 1 8.39247 8.42824 7.7371 -1.07458 1.71132 0.77242
153 1 2.03146 6.07205 8.39904 -0.945714 -0.166038 -1.09173
154 1 4.95348 7.13459 1.675 -0.361315 -0.653664 -0.814353
155 1 8.98512 6.29796 3.45489 -0.0813536 0.675683 -0.102663
156 1 7.7181 7.57234 4.77403 -0.959567 -0.471643 -0.389173
157 1 7.26381 4.80246 6.44564 0.726944 -0.829387 0.322813
158 1 2.68218 6.90081 8.73757 1.0501 0.0782113 -0.284631
159 1 1.33521 7.17717 7.19646 -0.431759 0.0804417 -0.263745
160 1 2.48461 4.9416 8.05534 -0.692788 0.87398 -0.055587
161 1 1.83827 1.84137 6.43726 -0.748874 -0.598284 -1.26349
162 1 9.23612 5.6528 8.99177 1.3071 0.392345 0.16881
163 1 0.0614285 2.60013 4.27045 -0.609537 0.788702 1.28406
164 1 3.29495 0.762804 0.178746 -0.703828 1.44897 -0.709439
165 1 4.79968 6.08492 0.889644 0.0456141 1.00874 -0.130412
166 1 5.93399 5.8896 0.968593 1.43122 0.159437 -0.156997
167 1 2.72256 6.86164 2.73621 0.919772 -0.295654 0.631858
168 1 6.76883 5.39719 1.5383 0.723219 -0.743768 -1.08752
169 1 1.13027 5.59625 8.63815 -0.0192124 0.105773 -1.53083
170 1 9.32774 3.60953 4.07264 0.356484 0.537697 1.18899
171 1 5.43415 6.28154 0.0540405 -0.435968 -0.6982 -0.018734
172 1 0.87074 4.73827 8.14193 0.286957 -0.314296 -0.818344
173 1 6.25244 4.8702 0.685786 -0.0407823 -0.0247064 0.0811471
174 1 3.87813 6.08192 7.1672 -0.302763 -1.15179 -0.758383
175 1 5.82096 4.39388 8.38502 -0.0682852 -0.151327 0.176528
176 1 4.47601 1.67309 6.07428 0.0449776 0.0206175 0.0415397
177 1 4.58719 7.84902 2.65005 0.0156409 -0.171074 0.156512
178 1 6.92962 4.90512 2.52759 1.48315 1.45508 -0.980366
179 1 6.06514 1.27493 5.78527 -0.619068 0.351352 0.266329
180 1 1.17887 8.03773 2.33127 1.19207 0.268758 -1.23933
181 1 7.68409 6.4081 1.47394 0.456213 -0.423317 0.403358
182 1 1.30119 1.9945 3.87478 -0.112559 -1.70692 -0.52732
183 1 2.2132 3.10703 0.619276 0.329636 0.538954 0.204451
184 1 5.78005 7.87413 8.0613 -0.524593 -0.0921304 -0.766664
185 1 1.4336 7.94424 6.42103 -0.880122 1.22191 0.453537
186 1 1.61619 4.49383 3.45542 0.531708 -0.462387 -0.432333
187 1 0.583772 1.03764 5.24061 0.908347 1.0869 0.857923
188 1 1.99458 7.20642 2.02364 0.114053 -0.325243 0.149145
189 1 4.69431 6.70878 2.66487 -0.503177 0.00576287 -0.79756
190 1 5.75381 8.12575 3.71256 -1.56782 0.912126 -1.08669
191 1 3.46167 5.24189 6.81778 0.0816669 0.542176 -0.621561
192 1 0.341426 0.571394 0.302809 0.343945 -0.425567 0.000263563
193 1 3.28508 8.57302 0.0804846 -0.600286 -1.29929 -0.0924954
194 1 7.65867 8.67332 3.31963 -1.79202 -0.491114 -0.243547
195 1 7.62436 0.25775 3.33811 -0.79413 -0.0616227 0.129075
196 1 0.213831 0.306859 3.01608 0.153617 -0.485189 -0.322254
197 1 6.22563 4.78306 4.38656 -0.263146 -0.166978 0.135208
198 1 7.88474 1.91178 9.12531 0.766119 0.424648 1.16794
199 1 6.56178 0.198779 6.22903 -0.0969507 -0.842196 -0.160872
200 1 3.3014 1.72552 9.33772 -1.55517 0.0604947 -0.0903696
201 1 5.53664 2.79028 5.07706 -1.71854 -0.941452 0.476258
202 1 1.08801 6.84032 4.69708 -0.865262 -0.212849 0.497662
203 1 5.48748 9.22752 7.81133 0.657782 -0.38686 2.22614
204 1 6.00325 2.21007 0.353322 -0.679514 0.553763 -0.240216
205 1 4.88072 0.325917 6.69615 -0.548705 -0.461063 -0.130886
206 1 1.44388 8.69172 5.67081 -0.295759 0.753637 0.196297
207 1 5.5115 2.44322 3.53228 0.233214 0.779453 -0.230387
208 1 9.05304 4.69396 2.81581 1.15878 -0.446737 -0.0996595
209 1 7.61481 0.191111 6.52507 0.661997 0.813439 0.27012
210 1 2.42545 2.86018 8.34796 0.509554 -1.69334 -0.522386
211 1 8.79974 8.02305 0.917505 -0.82213 -0.124137 0.0498113
212 1 6.46863 7.08415 3.4294 1.15783 0.698683 0.145492
213 1 1.24264 5.30706 4.14479 -0.877511 0.00303798 -0.365767
214 1 0.136214 1.1959 1.07967 -1.01419 0.488956 0.144523
215 1 5.86778 5.76301 4.58273 0.458098 0.443944 -0.151597
216 1 5.53614 8.35961 7.18599 0.843546 -0.320319 0.815116
217 1 3.40846 1.35317 5.51714 -0.531805 0.247494 -0.473545
218 1 3.56266 1.81092 2.69987 0.895285 0.175503 1.09197
219 1 7.61767 5.54395 0.339016 -0.442855 -0.128824 -0.488898
220 1 1.37461 1.3621 7.29035 0.0745947 0.226765 -0.324731
221 1 8.03186 7.75209 6.83858 -1.24056 0.676275 -0.0098205
222 1 4.77466 5.4504 0.168048 -0.406919 -0.0869974 -0.985454
223 1 0.56042 0.944595 7.89171 0.139504 0.0240549 -0.731055
224 1 7.30572 5.99278 5.7502 1.47149 0.890299 0.523436
225 1 8.85222 4.32145 8.60734 -0.822803 0.371496 -0.171926
226 1 3.32133 8.93354 5.43139 -0.276454 0.325644 -0.585383
227 1 7.04369 6.98516 5.34619 1.25804 -1.60264 -0.89131
228 1 8.62974 0.320886 6.56933 -0.536986 0.585935 0.453561
229 1 2.37459 2.06025 0.958347 -0.417829 0.17696 0.262604
230 1 4.78202 8.36788 8.02693 -0.0687892 -0.344386 0.368112
231 1 5.42709 6.29347 6.3208 0.0837974 0.414958 -0.0703493
232 1 4.4272 4.43219 1.3343 0.61144 -0.868502 1.15917
233 1 6.85025 8.07133 3.16554 0.038643 -0.608981 0.26576
234 1 5.78158 8.70078 0.857207 -0.672046 0.625682 1.14671
235 1 7.7539 6.72832 6.34809 0.584106 -0.510018 0.0245761
236 1 8.87269 4.98346 5.42818 -0.260989 0.600892 0.00207092
237 1 8.54536 1.19501 1.50994 0.788175 -0.133677 1.56831
238 1 7.06136 3.94216 7.20781 -0.265432 -0.0275959 -0.978388
239 1 4.71727 7.65623 7.27371 -0.396244 0.805811 1.81706
240 1 2.50908 1.66308 7.16993 0.0587453 -0.640247 -0.0108378
241 1 3.97143 4.47774 2.30362 0.210703 1.05825 -0.25543
242 1 5.32736 5.51622 8.71227 1.12388 -0.651308 -0.341718
243 1 0.87244 6.96788 0.399059 -0.150551 -0.778437 -0.253231
244 1 6.33723 6.17189 5.40132 -0.627589 0.192947 0.579172
245 1 6.41742 2.63675 2.73619 -0.0625256 -1.09464 -0.147316
246 1 7.90776 2.00791 3.82049 0.311209 -0.505885 -0.162263
247 1 4.54493 3.98554 3.23478 0.00938192 0.515445 -0.836066
248 1 4.21456 8.39657 5.2818 0.384689 -0.0976943 0.516747
249 1 5.33645 3.55024 5.86528 0.824747 1.30481 0.213495
250 1 6.55001 6.05159 3.81047 -0.272748 0.727032 -0.174175
251 1 6.47406 1.16712 6.72622 -0.274585 -0.173179 -0.370747
252 1 9.18335 4.63152 3.81226 -1.11036 0.216445 -0.649085
253 1 2.41018 6.08356 1.08577 -1.03933 -0.0270727 0.957439
254 1 6.52974 1.54075 1.95851 -0.363725 0.560502 -0.339706
255 1 7.63806 5.67176 2.30787 1.03523 0.421872 -0.730494
256 1 8.3416 3.63915 0.482525 0.525322 0.308055 0.426108
257 1 5.90755 0.978193 4.85394 -0.328079 -0.697167 -0.506485
258 1 2.51972 0.293447 2.80151 1.11102 0.284895 -0.206154
259 1 3.62042 6.11344 5.19273 -0.60434 1.35139 -0.453178
260 1 3.97404 3.49148 2.43686 -0.886514 -0.584887 -0.372645
261 1 8.80846 7.90656 8.6166 -1.17876 1.28396 -1.46495
262 1 0.968466 1.13646 1.64088 -1.98029 -0.0329481 0.848693
263 1 8.16997 4.61222 3.43942 0.860625 0.0492482 -0.324386
264 1 7.60439 7.59885 7.81212 0.298902 -1.08421 1.34565
265 1 6.07174 2.95359 4.2803 -0.724718 0.890429 -0.0613985
266 1 0.0968602 4.04874 1.35794 0.148275 0.519316 0.471235
267 1 6.57336 3.82538 0.95429 -0.255096 0.591017 -0.427421
268 1 5.42382 1.37781 0.156224 -0.387672 0.432583 -0.895722
269 1 0.9499 8.57663 1.42529 0.0747398 0.978352 -0.319276
270 1 1.84411 7.51419 3.05513 -1.88815 0.332779 1.07395
271 1 4.27317 6.2998 1.75519 -0.268878 0.618359 -0.396271
272 1 1.8846 4.63678 0.610422 0.310677 0.19326 0.695257
273 1 5.97422 4.02187 1.88687 0.757271 -0.828027 -0.776071
274 1 4.19067 6.40738 0.106379 -0.114368 0.037694 -0.140697
275 1 5.77323 6.65932 2.73958 -0.851977 0.869618 -0.211814
276 1 8.63306 8.13617 1.93322 0.906513 -0.66465 -0.285438
277 1 4.135 0.141158 5.09934 0.0454737 -0.480011 0.823317
278 1 1.218 3.1618 4.98347 -0.802848 -0.592173 -0.888736
279 1 8.90573 6.01747 1.86405 -0.47652 0.202015 -0.76882
280 1 4.28256 1.02818 3.827 0.803825 -0.811114 0.711651
281 1 8.02811 7.26203 0.923388 -0.338152 0.0322863 0.57043
282 1 1.46931 3.1717 1.95444 -0.484352 -0.561291 -1.63261
283 1 0.224336 7.62604 4.63878 0.399905 1.34725 -0.373106
284 1 6.36171 6.27211 1.82202 0.663468 -1.0178 -0.158122
285 1 6.55728 8.87311 3.85317 0.369773 -2.11449 0.511914
286 1 2.85972 2.29144 6.39014 -0.154055 0.160854 -0.219347
287 1 4.06984 8.55998 8.73604 -0.665271 0.526679 -0.0720946
288 1 1.19582 0.207334 2.97634 1.35138 0.429869 0.410017
289 1 5.69945 0.925059 1.70571 0.157548 -0.502277 0.674635
290 1 3.80978 7.82042 7.93319 0.429416 0.353682 0.229932
291 1 4.89693 4.00205 7.61392 0.315581 -0.884505 -0.153154
292 1 2.49924 5.92384 5.35846 0.0967654 -0.195617 -0.953928
293 1 8.45596 2.92541 4.16289 -0.742695 0.139789 0.943191
294 1 0.692042 3.40262 6.55539 0.478212 1.25088 0.0480719
295 1 6.96385 4.4228 5.37286 0.928892 -0.198848 0.479248
296 1 6.80463 7.15793 2.46058 0.00509981 -0.242693 -0.400818
297 1 6.46175 5.10001 7.33259 0.20326 -0.357918 -0.153691
298 1 2.40443 5.09022 6.92757 -1.02944 0.63499 0.359416
299 1 3.58525 8.48985 3.70134 0.1915 -0.240155 0.323098
300 1 9.04934 4.31973 0.180746 -0.686107 0.658171 -0.121499
301 1 3.09385 0.155734 7.78794 0.32505 -1.49351 -0.431426
302 1 6.53701 0.173025 4.67863 -0.0846742 -1.0756 0.657456
303 1 0.80832 0.909811 3.59547 1.27587 -0.0617626 0.528073
304 1 8.59809 6.07231 6.86926 -0.378205 0.495609 0.401468
305 1 1.93082 0.645206 8.6354 0.747711 -1.43251 0.166768
306 1 2.37449 7.19201 1.04703 0.493157 -0.629897 0.339799
307 1 5.36242 9.03435 3.84848 0.0355544 -0.840712 0.159633
308 1 2.53715 1.12905 6.17143 0.292475 -1.30744 0.655813
309 1 7.77707 5.87882 7.86849 0.067446 1.09222 0.59847
310 1 7.72631 3.75619 4.16393 0.0753731 0.518479 0.948212
311 1 8.80643 6.59221 9.19061 0.719734 -0.412907 -0.199281
312 1 6.06904 7.04957 0.811919 0.225036 0.334987 -0.63172
313 1 7.32002 5.33247 3.3662 -1.42429 0.222035 0.143572
314 1 6.50049 3.4737 3.51888 -0.0811863 0.687811 -0.862831
315 1 3.03001 4.33161 7.42164 -0.45823 -0.238987 1.05542
316 1 9.23572 2.89678 6.13642 -0.488833 -0.473623 -0.692975
317 1 8.27746 8.8866 1.10365 -0.37851 -0.589766 0.781121
318 1 8.97987 3.75033 3.14266 0.0756971 -0.276259 -0.724895
319 1 3.41427 0.876022 1.83929 -0.163927 -0.725608 -0.503204
320 1 4.38418 5.38679 5.3992 0.11188 0.560248 0.00243854
321 1 8.62285 3.18073 1.43691 0.468335 0.0100907 -0.394842
322 1 1.46212 7.84428 4.95688 0.522028 0.11242 -0.0651125
323 1 2.65901 4.95349 3.63061 -0.21354 0.600255 1.09794
324 1 1.12151 6.30926 7.7288 0.710038 0.625165 -0.652165
325 1 6.90331 7.16251 1.47084 0.267307 0.699941 0.669419
326 1 3.21903 1.86621 4.29809 -0.802545 0.458225 -0.838427
327 1 4.33589 1.7319 0.226108 -1.53265 -0.33817 -0.93797
328 1 7.62512 5.91631 4.19158 0.0219748 -0.108123 0.286731
329 1 8.81337 8.98108 8.66999 0.737777 0.89441 1.11212
330 1 3.65134 4.34369 0.563647 0.28978 0.402441 -0.331474
331 1 1.5604 1.8101 2.82515 0.854245 -1.02853 0.476331
332 1 2.27926 1.6573 3.85773 -0.874248 -1.21328 -0.866364
333 1 0.524274 3.61868 2.52131 0.834754 0.131114 2.38275
334 1 1.70758 8.48529 7.37413 0.738686 -0.555731 0.342448
335 1 1.52293 5.50576 1.15523 1.25626 -0.314766 0.61356
336 1 6.35886 7.80486 5.31196 0.491259 0.0984872 1.3218
337 1 0.0569678 0.206934 4.9112 0.736058 -0.793517 0.035798
338 1 6.27325 2.33648 7.12442 -1.41746 0.209364 0.237867
339 1 3.26029 4.13436 5.85128 0.0188757 -0.704852 0.143303
340 1 4.1707 9.23889 4.10339 -0.407153 -0.248694 0.511085
341 1 5.83729 6.21561 7.44062 -0.856252 0.672808 -0.25853
342 1 8.29119 1.99717 0.778857 0.114767 0.42415 -1.05604
343 1 8.75604 7.1304 1.68218 -0.431394 0.307834 1.15888
344 1 1.02975 1.80472 8.07851 -0.766748 -0.951372 -0.427857
345 1 9.16538 5.35246 6.45741 0.196509 0.0365841 -0.208941
346 1 9.24298 2.26564 0.9527 -0.0921681 -1.28267 0.232452
347 1 7.76717 6.58154 0.131551 0.359774 0.111736 1.40535
348 1 5.86557 0.453982 7.02345 0.329857 0.793712 0.527851
349 1 4.58082 2.71646 0.293461 -0.0572383 -0.143133 -0.548985
350 1 2.24502 4.33052 5.56128 0.621863 -1.30192 0.178342
351 1 5.30318 8.57054 2.91957 -0.276403 -0.204715 -0.478683
352 1 3.81456 7.18074 6.95864 -0.277343 0.386588 -0.0206574
353 1 7.42713 5.77474 6.84829 0.246658 0.100472 0.281891
354 1 0.776792 8.06028 7.22848 0.629606 0.245912 0.706678
355 1 8.43839 7.13577 3.23807 -0.262502 -0.556005 -1.08616
356 1 5.30032 3.20485 7.08176 -0.778507 -0.768006 0.978855
357 1 8.98506 4.99796 1.73165 -0.323118 1.2369 0.149796
358 1 5.42395 5.54235 5.50988 -0.100435 -1.44146 0.671414
359 1 3.52098 6.17025 0.91159 0.691246 -1.05977 -0.734761
360 1 4.79363 1.7356 8.09597 0.802994 -0.0558706 -0.317907
361 1 7.39817 0.820915 4.91197 -0.179039 0.498272 0.449086
362 1 1.73002 0.454154 1.18668 -0.594339 0.823801 0.0703269
363 1 7.93781 3.136 2.27861 0.71575 1.51198 -0.753012
364 1 0.921342 2.16286 4.82688 -0.921449 -0.762097 -2.06177
365 1 3.04929 5.72001 8.55145 -0.853096 -0.611494 -0.25628
366 1 5.96668 0.320088 0.911633 1.04894 -0.757095 -0.055543
367 1 1.41854 4.51342 9.08331 0.16366 -0.270014 0.110225
368 1 1.85055 5.63825 3.29507 -0.808353 -0.901318 -1.24901
369 1 8.29086 7.52558 -0.00987888 1.12737 -0.406308 -0.944433
370 1 1.48252 6.11636 0.210341 -0.131074 -1.63795 0.0798876
371 1 0.00441158 1.9653 5.37614 -0.719199 0.829745 0.179973
372 1 5.74506 2.54537 6.06389 0.439067 0.183525 -1.59261
373 1 6.32064 4.06863 -0.0990434 1.0785 -0.74634 -2.46316
374 1 8.93233 1.09838 5.02564 -0.341354 0.0840652 1.20465
375 1 4.26394 7.90962 1.54823 0.256986 1.44772 -0.426601
376 1 4.63725 3.7354 0.310108 1.55616 -1.1116 0.513589
377 1 2.59499 7.74369 8.03238 -1.31572 0.283263 0.793349
378 1 5.18013 7.27209 3.3528 -0.489001 -0.26964 -0.474431
379 1 6.53173 5.24599 5.90926 0.147895 -0.440488 -0.544834
380 1 7.5268 2.65404 5.73786 -0.34171 0.742046 1.08091
381 1 5.26222 1.81792 5.33761 0.0822259 -0.0428463 -0.533603
382 1 4.33866 7.98844 6.24892 -0.429015 -1.18902 -1.50403
383 1 0.188719 7.32976 9.11666 -1.59512 -0.29135 0.505415
384 1 4.91968 0.36624 3.27074 -1.46541 -0.0449767 -0.917473
385 1 4.74709 6.46541 8.6657 0.791586 -0.795505 0.200764
386 1 8.4746 5.53924 2.93145 -0.046056 0.772614 -0.670666
387 1 0.577604 8.97095 2.33906 0.0314387 0.1203 -0.827828
388 1 4.84322 0.946965 8.8066 -0.662352 -0.136157 -0.239584
389 1 6.8502 1.61604 5.12111 1.06819 -0.733094 -0.169511
390 1 2.12961 5.61898 4.44814 -1.06481 0.409801 -0.35957
391 1 8.63144 8.21693 3.08831 -0.267225 0.887849 0.692777
392 1 4.90651 7.1543 0.176179 -0.0585948 0.321552 -0.584164
393 1 8.64205 7.62472 4.20504 -0.652081 -0.918249 -0.0883753
394 1 5.45699 4.38354 3.65797 -0.0658558 0.0842168 -0.471056
395 1 7.81881 0.317546 1.42872 0.0951731 1.07403 0.387237
396 1 4.80181 2.51761 1.29414 -0.252843 -0.0279875 1.24009
397 1 6.40282 3.55801 5.51734 -1.55243 0.372096 0.141387
398 1 6.38812 5.36866 8.38611 0.293679 -0.492086 0.940533
399 1 8.26233 0.524489 2.41693 0.123303 0.293359 0.0530748
400 1 0.20483 2.95232 3.24851 0.119325 1.27839 0.748373
401 1 6.37901 5.74698 0.0093023 0.376656 1.78746 -0.844258
402 1 1.43699 3.38559 3.0697 0.283722 0.317826 -0.059664
403 1 0.933232 2.13107 1.32535 1.06548 1.1984 1.09356
404 1 4.25016 9.0394 3.00552 -0.731206 -1.22739 -1.24227
405 1 1.83637 5.38858 6.06823 -0.96108 0.0467399 -0.121692
406 1 4.76402 1.4915 1.13456 -0.223154 -0.470219 -0.16823
407 1 7.08931 0.634954 0.575514 0.305467 0.279519 0.913451
408 1 3.8958 1.41416 8.60321 -0.915427 -0.308421 0.704657
409 1 2.00646 2.31978 4.61332 0.0932852 0.590927 -0.594555
410 1 7.55792 3.462 1.25079 -0.140781 -0.67598 0.440025
411 1 8.1352 2.39441 2.89432 -1.03247 0.893115 -0.135126
412 1 2.98879 6.77226 4.72555 -0.854463 0.0795552 0.167676
413 1 0.89577 9.00617 0.32073 -1.0865 -0.385303 -1.31642
414 1 6.34443 1.29927 0.951821 -0.442018 -0.285354 -1.4046
415 1 6.9989 0.527772 8.73653 0.163094 -1.63651 -0.0934752
416 1 9.16892 8.82683 0.389844 -0.423048 -0.658554 0.123462
417 1 6.19174 1.7022 3.32861 -0.347351 -0.335831 0.683916
418 1 5.11073 0.728883 5.55273 0.0887613 0.675622 -0.0871848
419 1 1.06779 3.26536 0.919023 0.232893 -0.713683 0.287924
420 1 0.211668 3.1305 5.17179 0.849764 -0.131206 -0.95963
421 1 0.49759 7.24078 6.57096 -0.0653486 -0.410105 0.485418
422 1 8.61047 2.70452 5.12644 0.57646 0.0691443 0.609721
423 1 6.73178 2.01893 6.15852 0.194906 0.261292 -0.612101
424 1 5.49614 6.4876 3.92742 -0.222989 0.328562 0.505665
425 1 1.0883 0.117185 4.87919 -1.1943 1.20706 0.353553
426 1 1.22321 0.542186 5.81404 0.182604 0.604785 1.34889
427 1 6.689 3.83176 4.46754 -0.89201 -0.335533 0.204579
428 1 2.70719 0.962756 0.98952 0.0221402 -0.996973 -0.342186
429 1 6.36192 0.873302 7.99733 0.425227 0.301167 -0.707916
430 1 7.31694 2.30708 2.06563 -0.169614 -1.19881 0.22957
431 1 -0.00610801 4.3273 4.83735 -1.36606 0.155344 0.514541
432 1 1.08966 7.37533 3.80694 0.0682287 -1.04961 -1.33172
433 1 2.86411 7.9868 4.24771 0.168496 0.482332 -0.670549
434 1 5.80743 4.59385 5.65747 -0.11567 -0.898117 0.306911
435 1 8.80737 6.16191 8.0515 1.07768 0.455448 -0.527996
436 1 7.91544 6.70851 7.32872 0.948358 1.09323 0.793549
437 1 3.92266 5.52144 2.4929 0.282277 -0.902962 -0.986519
438 1 1.12597 5.69641 2.45722 0.541718 0.31657 0.387988
439 1 4.56694 8.76901 2.02471 -0.0187978 0.844897 -0.108987
440 1 4.21156 7.01101 0.929338 -0.245226 0.0109482 0.716085
441 1 5.8226 3.30412 8.62996 -0.707675 0.547221 -0.094978
442 1 2.19671 5.19643 9.12318 1.75672 0.885927 -1.04006
443 1 3.18039 3.52029 1.082 0.304882 0.133728 0.332999
444 1 6.88482 5.44177 4.91112 -0.102941 0.220562 -0.771752
445 1 7.12742 3.72658 6.22379 0.325524 -0.048969 0.698312
446 1 7.85437 1.78683 8.10188 -1.113 0.268637 -0.126596
447 1 0.242105 4.95964 0.786057 0.461759 0.371666 0.29783
448 1 1.88667 8.7619 3.03155 0.96124 0.686387 -0.318863
449 1 6.14295 7.00467 5.95227 0.0406437 -1.13492 0.221256
450 1 2.91593 0.902751 8.53119 -0.855279 0.0233761 -0.619324
451 1 5.89145 4.06255 7.4601 0.0431853 -0.233407 -1.48046
452 1 7.23779 7.332 8.75452 0.68245 -0.438967 0.428165
453 1 3.0036 2.39494 5.28583 -0.912105 0.922793 -0.517318
454 1 3.22661 6.96897 0.317177 0.132596 1.24904 -0.719446
455 1 0.229568 6.21514 6.29475 -0.152064 -0.702382 -0.0510398
456 1 8.70488 5.17502 8.12444 0.0253216 -0.402018 0.146245
457 1 7.09771 6.15734 8.74868 0.179887 -0.642484 0.726094
458 1 2.21945 7.91261 5.78151 -0.497894 -0.641626 0.649281
459 1 7.51585 3.46035 5.15982 1.07345 0.301015 -1.5695
460 1 4.03283 3.89558 4.22487 -1.34465 0.306962 -0.609159
461 1 8.14574 5.31612 6.02647 -0.402702 0.799771 0.485141
462 1 5.1423 8.24195 9.09687 -0.445684 0.537426 1.37087
463 1 2.27323 7.84547 8.95802 -0.250616 -0.606294 1.70725
464 1 9.08227 0.685107 3.92317 0.32542 -1.00553 0.706901
465 1 9.06052 8.02237 6.86065 -0.310098 -0.869669 -0.870275
466 1 2.41365 1.17227 9.34634 0.552401 -1.22503 0.355219
467 1 4.47058 1.50693 7.15615 -1.20403 -0.0650609 -0.650637
468 1 6.54367 8.71912 5.79018 -0.170083 -0.721705 1.36168
469 1 7.03435 8.51592 4.8507 -0.223859 -0.0240812 -0.112587
470 1 7.07057 2.44854 7.9899 0.463598 0.17293 -0.327753
471 1 3.01786 0.509483 5.39641 0.148919 0.248043 -0.443864
472 1 9.41557 3.23125 0.605272 0.565705 -0.104512 0.0953051
473 1 2.84705 3.86609 8.38054 0.293311 0.482537 -0.386599
474 1 1.7042 8.89186 8.96395 0.252243 -0.118723 -0.329478
475 1 0.207689 8.42094 8.96558 1.04794 -1.94054 -0.875202
476 1 8.53938 1.97339 7.32656 -0.176427 0.509169 1.30917
477 1 7.20906 1.08819 3.83199 -0.210858 0.785708 0.123197
478 1 4.69078 9.37565 8.66007 -1.3488 -0.301609 -0.217464
479 1 0.55964 2.85233 8.04676 0.150668 0.157214 -0.228498
480 1 1.99613 9.03894 0.59565 1.21504 -0.277395 1.11513
481 1 4.76459 2.12359 4.51572 0.462824 -0.0303921 -0.0393561
482 1 5.52401 2.39852 7.97478 -0.162207 -0.739454 -0.0350435
483 1 3.26874 6.90638 7.83406 -0.721847 0.304256 -0.759099
484 1 2.5632 1.55955 2.61747 0.056268 0.251394 -1.04006
485 1 6.45899 6.87119 9.23799 0.773764 0.187235 -0.484685
486 1 6.72048 8.22716 8.28107 0.130079 -0.584794 -0.451231
487 1 7.33946 6.87047 4.17008 -0.456952 -0.491835 -0.517486
488 1 6.58659 7.9296 7.30508 -0.45186 -0.591084 0.333822
489 1 9.35179 0.669449 8.7192 -0.344785 -0.0700514 -1.31376
490 1 3.50784 9.3279 2.2817 1.62917 -0.781126 -0.274566
491 1 7.82112 7.60659 2.43328 -0.181047 0.221068 0.443089
492 1 3.73746 3.08064 5.82251 -0.792212 0.0424417 -0.246961
493 1 9.37182 0.726541 2.04532 -0.312975 1.02321 0.846177
494 1 4.59441 3.46012 5.07025 0.674698 0.485186 0.326445
495 1 5.18845 1.41724 3.59933 0.594397 -0.0698739 0.0467978
496 1 3.44227 3.0288 8.23839 -1.01341 0.195554 -0.597084
497 1 1.49329 1.52175 9.08419 -0.760642 0.122613 -0.44911
498 1 0.662379 0.140077 1.24747 -0.334735 -1.18005 -0.840211
499 1 3.82546 7.21551 2.29209 0.616024 1.12521 0.568656
500 1 6.37361 3.21526 7.77944 -0.861446 0.844522 -0.887705
501 1 5.98148 8.01855 6.39096 0.796427 -0.951593 -0.261403
502 1 0.872788 2.56513 5.86216 0.394378 -0.302953 -1.2267
503 1 6.59605 9.27781 8.08025 0.074438 -0.634507 0.205156
504 1 5.32698 4.64315 0.0453719 -0.348601 0.243469 -0.758233
505 1 4.6205 5.02618 3.10909 -0.6534 0.929223 0.12323
506 1 0.384663 9.36582 5.84817 -0.137452 -0.188814 0.118098
507 1 0.0512422 1.88468 1.9989 -1.47488 -0.24907 -0.124683
508 1 6.89355 2.44227 1.15623 -0.687719 1.30358 0.541898
509 1 2.87598 8.61438 6.41782 -0.749434 -0.368773 0.808848
510 1 0.879731 8.30292 4.30464 0.667379 0.289453 -0.188393
511 1 8.12355 8.49334 4.28891 0.778347 0.577975 0.929737
512 1 4.42831 4.90312 4.0899 0.157763 0.552572 -0.0647807
513 1 1.29839 6.34069 1.73926 -0.171699 0.328173 0.193627