ITEM: TIMESTEP
79160000
ITEM: NUMBER OF ATOMS
1000
ITEM: BOX BOUNDS pp pp pp
0.0000000000000000e+00 9.4000000000000004e+00
0.0000000000000000e+00 9.4000000000000004e+00
0.0000000000000000e+00 9.4000000000000004e+00
ITEM: ATOMS id type x y z vx vy vz
1 1 5.23382 7.12618 3.29751 1.89495 -0.590443 0.992456
2 1 2.83212 5.05775 0.597811 -0.540431 -0.644161 -0.945648
3 1 2.22289 2.98404 5.34609 -0.685652 -1.22335 -0.660694
4 1 1.84631 5.4693 0.573083 0.587273 -1.29727 0.385547
5 1 0.262944 0.970622 2.923 -0.571521 -0.938525 -1.49249
6 1 5.64337 5.36462 4.8042 -0.352132 0.0551599 0.260493
7 1 5.95106 6.08325 6.49857 0.35389 -0.0734991 0.158461
8 1 0.387984 3.06427 6.17856 -0.988068 0.937746 0.890144
9 1 8.61702 5.36117 5.88348 -0.197288 -0.499651 -0.211962
10 1 0.941191 5.0628 9.37996 0.558494 -0.317417 0.634912
11 1 4.71999 0.22136 4.43789 0.362804 -0.540824 0.0835846
12 1 6.9098 1.90622 8.4262 1.05699 0.914861 0.366379
13 1 8.93699 8.95877 6.37092 0.43431 0.764704 0.0339185
14 1 3.79895 2.88298 7.42229 -0.60949 -0.582049 -0.800703
15 1 0.230655 8.35698 8.86893 0.00539255 0.25169 0.52573
16 1 9.10832 0.354 8.53539 0.0118197 -1.21161 -0.973167
17 1 7.17961 2.02898 2.16178 2.03069 -0.128595 -0.380716
18 1 5.59638 8.16842 5.69797 0.183114 -0.477044 -0.331376
19 1 7.25524 8.09048 2.12314 0.127759 0.668833 0.138385
20 1 7.52515 2.95071 0.380805 0.445556 -0.810996 0.974747
21 1 8.34894 3.79171 8.38327 0.77678 1.12765 -1.17138
22 1 8.36263 9.22245 0.778167 0.925746 0.0481713 1.63967
23 1 7.38239 1.0959 8.87962 1.21764 0.540082 -0.708188
24 1 0.160878 5.05456 8.17164 -0.211494 -0.143473 0.0365368
25 1 6.0933 9.31408 3.23867 0.198116 -0.362992 0.341682
26 1 4.64798 1.23125 4.8184 1.2957 0.156003 0.409647
27 1 3.92082 1.82901 7.85928 0.4848 0.689277 -0.980729
28 1 5.86523 1.17403 2.10998 -0.0147061 -0.0315771 -1.34212
29 1 9.08424 3.80532 0.941683 0.90663 0.649891 0.0467793
30 1 0.429367 3.71556 3.47805 -0.203461 -0.661765 1.00556
31 1 1.22295 1.06783 1.25028 0.283308 0.367509 -0.116286
32 1 4.49137 4.94774 6.74379 0.224139 1.02326 0.289596
33 1 5.2564 1.11442 9.06068 1.78106 -1.65494 0.4023
34 1 5.14572 8.03756 1.07381 -0.498244 -0.804778 -0.042278
35 1 3.25422 4.85408 5.24788 -0.616062 0.427581 -0.566843
36 1 3.38551 0.734968 3.43452 -0.365965 -0.929877 -0.235645
37 1 6.76556 4.7679 0.179478 0.579897 -1.02003 0.0334941
38 1 9.12448 0.0383536 1.45908 0.441902 0.22713 -0.224213
39 1 7.06883 9.26871 2.08277 0.176966 -1.45225 0.439931
40 1 2.08249 9.16073 9.26003 0.202703 0.852776 0.658517
41 1 5.18496 0.307767 7.16513 0.770428 1.03455 -0.745399
42 1 1.33617 0.25754 4.10421 0.862927 -0.628733 0.626038
43 1 4.48271 0.485467 8.34988 -0.384561 0.216849 -0.38732
44 1 1.82241 9.28335 6.94899 -0.510936 -0.751705 0.85057
45 1 1.26431 8.93298 5.87352 0.0731557 0.928156 0.242171
46 1 0.820658 5.12339 1.84632 0.0451405 -0.246722 0.765451
47 1 8.50925 8.98536 2.36211 0.557439 1.19705 1.9547
48 1 4.30855 8.67942 4.47066 0.482124 -0.0162527 0.00626344
49 1 1.26091 3.58156 6.32763 -0.482825 -0.653854 0.320094
50 1 8.54135 2.33124 3.95654 -0.170623 -0.453447 -0.179261
51 1 7.02112 5.44532 3.56004 0.779086 0.64103 0.288106
52 1 4.9135 7.66122 1.98896 0.467493 -0.923984 -0.0348914
53 1 3.27299 8.81627 5.83987 -0.32027 -0.158815 -0.400742
54 1 7.39059 8.95419 6.40787 -0.287154 0.705514 -1.04228
55 1 1.15189 5.31372 3.83107 1.1976 0.119602 -0.485485
56 1 2.13564 6.69389 4.32749 -0.0508139 -0.492309 -0.230802
57 1 3.02041 5.35133 6.12861 0.422396 0.650368 -0.665535
58 1 5.61269 5.67441 2.44006 -0.674526 -0.141795 -0.03148
59 1 6.48484 8.72291 7.37228 -0.626343 -1.46743 -0.305782
60 1 1.51481 8.89578 4.86031 2.09624 0.389404 0.357548
61 1 4.22806 7.5481 2.85476 0.595626 0.783947 0.918771
62 1 7.63264 1.51469 1.34807 0.204141 0.365452 0.399111
63 1 8.66712 3.44628 3.63889 0.223861 -0.401835 -0.71145
64 1 8.62862 8.18973 1.09543 -0.153343 -0.581856 1.03305
65 1 8.68859 1.42085 3.23615 -0.13548 0.626466 -0.770126
66 1 3.07349 3.42134 8.02814 -0.264912 -0.446099 -1.88927
67 1 7.83164 8.74938 8.87764 0.319722 0.102957 -0.423748
68 1 5.3077 6.26581 0.438778 1.16474 0.322441 -0.165028
69 1 7.64722 7.2661 2.49238 0.0465965 1.66533 0.00423861
70 1 7.11807 4.8407 2.6972 0.0175345 0.115273 0.00116545
71 1 7.926 0.59166 7.24758 1.50644 0.983382 0.95154
72 1 3.96227 2.82674 1.07859 0.045889 0.33342 1.55862
73 1 4.19924 6.1289 4.05046 -0.531679 -0.719255 -0.730343
74 1 3.84639 1.29582 2.16988 0.931739 -1.18072 0.909567
75 1 6.34226 2.13048 0.434877 0.0976441 1.46808 1.37236
76 1 7.86944 6.79852 9.12694 -0.721176 0.316421 0.11652
77 1 8.41687 3.2206 4.58231 1.08218 -0.726084 -0.23592
78 1 1.77746 8.02108 0.83885 0.354121 -1.852 -1.2855
79 1 6.1757 9.23156 8.12948 0.347536 -0.560933 0.0375531
80 1 0.722851 0.730155 8.66123 1.00386 0.70356 -0.404187
81 1 3.76808 5.33725 7.55373 1.36276 0.137289 -1.00435
82 1 4.89838 0.00777021 2.16322 1.18412 -0.762628 -0.0641927
83 1 3.7214 5.30018 4.53547 1.06383 -0.869744 -0.732812
84 1 0.253354 4.07599 6.1807 -0.599982 0.602515 -0.990101
85 1 4.76089 2.64168 8.0924 -0.660291 0.788626 -1.07874
86 1 2.80106 3.92764 7.09491 -0.701415 0.641534 -0.66305
87 1 2.22855 3.12816 3.23092 1.42044 -0.858256 2.43217
88 1 0.0512648 1.00665 1.27902 1.0372 -0.961924 0.327712
89 1 6.10145 3.93852 1.9845 0.835731 0.081213 0.193321
90 1 6.00018 6.3415 3.14711 0.0338543 0.917115 -0.42992
91 1 0.195177 7.07052 3.28393 -0.0791412 -0.515137 -0.715541
92 1 8.03221 0.288801 8.23344 0.0129624 -0.582564 0.310016
93 1 4.04207 1.36835 6.45749 -0.745251 -0.0320111 -0.825482
94 1 1.42511 5.07408 4.8095 -0.997692 -0.280975 0.0191962
95 1 8.0089 9.02687 4.38376 0.0932104 0.430909 0.976601
96 1 6.16791 6.86643 7.04197 0.190878 -0.461244 0.599765
97 1 1.19148 6.31126 1.53637 -0.30592 0.0972791 -0.113411
98 1 5.95922 9.39042 0.561113 0.562436 0.13259 0.723125
99 1 6.58711 8.44831 6.1325 -0.034145 0.379479 1.11333
100 1 6.94043 8.6314 0.0547654 0.151787 -0.12161 0.403852
101 1 6.57542 4.42965 8.46614 -0.78747 -0.42061 0.82212
102 1 2.3189 3.80605 1.61585 -0.348921 0.465877 0.626357
103 1 4.43557 6.80308 6.53937 0.555517 0.408787 1.34797
104 1 4.79996 5.23135 4.20117 0.342632 0.67495 -1.08726
105 1 0.767606 8.74399 4.12221 -0.162375 -1.24814 -0.116857
106 1 8.88671 2.54824 5.89509 -0.602336 -0.150881 0.00956791
107 1 3.85951 5.05513 2.88601 -0.914465 0.985425 0.930551
108 1 8.63449 0.402672 4.1848 0.893703 -0.0945353 0.935333
109 1 8.57997 1.27721 8.84793 0.970874 -0.779797 0.952344
110 1 8.46436 5.26933 0.187718 -0.259636 0.918544 0.261393
111 1 7.42392 8.221 7.12712 -0.203555 -0.668958 -1.06408
112 1 6.96109 2.51698 1.12465 -0.290264 1.07355 0.107319
113 1 3.33884 3.68403 1.109 -0.629165 -0.579207 -0.28564
114 1 4.07986 3.88534 2.79738 -0.547531 -0.0950504 0.891641
115 1 5.48649 0.569639 5.11327 -0.527098 -0.156622 -1.29496
116 1 5.9699 1.86079 8.89864 0.019785 0.938029 -2.01807
117 1 7.5757 8.93812 7.85007 -0.0184598 0.492627 0.104622
118 1 7.89104 2.77993 8.65161 1.42087 -0.496056 0.0700507
119 1 4.43191 2.64973 6.40532 0.404235 0.670107 -0.0432389
120 1 1.96069 7.69474 6.50806 0.655113 -0.176215 1.58208
121 1 3.09841 0.332348 5.31624 1.54201 1.18585 -0.465469
122 1 2.33446 8.49339 4.42343 0.415569 -0.645398 -0.426528
123 1 3.38986 4.42319 8.30623 -0.832363 -0.726803 0.938632
124 1 1.12768 0.542227 5.17056 0.786841 1.14498 0.909457
125 1 5.79108 5.32074 5.8709 -0.0900126 0.183478 -0.70052
126 1 6.58108 3.40308 3.75553 0.587969 -0.342776 -0.771814
127 1 4.12757 0.0266189 5.24704 0.0420232 0.153102 0.382959
128 1 6.69554 5.29429 6.68011 -0.94735 0.74879 0.553116
129 1 0.596263 9.20918 8.28666 -0.649028 0.640226 -0.0319654
130 1 2.22022 1.54514 2.71709 0.280456 -0.415641 -0.280578
131 1 8.74127 2.78026 0.717608 -0.566475 0.49523 0.0581577
132 1 9.32098 8.47805 1.79237 -0.198745 -0.382946 0.505746
133 1 5.98634 0.976597 3.0695 0.678537 0.403465 0.418206
134 1 8.76061 6.00795 8.49737 -0.165163 -0.553822 -0.114414
135 1 7.72884 7.01273 4.53873 -0.344593 -0.0834054 -0.961766
136 1 6.53996 0.16467 6.49723 -0.315874 0.484642 0.493062
137 1 2.12582 5.72008 6.53355 -0.775239 -0.562768 -0.641698
138 1 4.04257 8.03392 8.27453 -0.727806 1.32925 0.191168
139 1 1.22653 0.503687 7.69513 -1.44728 0.388575 -1.00566
140 1 9.27134 5.33752 1.41389 -0.347226 -0.588088 0.402587
141 1 3.45168 9.1603 2.82335 0.843283 0.23221 -1.00747
142 1 4.88898 8.63214 7.27095 -1.2292 -0.385054 0.0622694
143 1 4.63933 4.63964 0.0430867 -1.08303 0.520116 -0.412399
144 1 1.91656 1.84259 3.83297 0.394556 -0.124263 0.601608
145 1 7.84375 5.42566 7.87336 0.167624 0.518664 -0.347553
146 1 4.80347 1.10556 1.95234 -0.0865131 -0.710468 0.209808
147 1 5.62832 5.1503 6.96937 0.0982881 0.535533 0.193711
148 1 1.99263 7.57155 4.95381 -0.554513 1.07469 1.04889
149 1 3.24734 9.00414 4.62408 -0.518285 -0.619364 -0.692034
150 1 8.6769 7.8021 3.30957 0.627385 0.163232 0.58901
151 1 7.7049 9.17373 5.30613 -0.100385 -0.495382 -0.918881
152 1 5.89189 7.85749 6.70051 0.456821 0.317132 1.09918
153 1 3.84777 5.83402 8.97596 1.16706 0.0115796 0.271099
154 1 4.05783 6.94143 1.96401 -0.427918 0.0320744 -0.939627
155 1 8.14149 7.37527 5.39946 -0.0160618 -0.692041 -0.338243
156 1 5.78333 8.00531 4.62362 -0.491163 1.00852 -0.777722
157 1 6.52444 4.37848 7.09806 -0.0472366 0.034272 0.232729
158 1 3.23496 6.69962 8.85956 -1.49902 0.968067 -0.503481
159 1 1.99184 6.87507 5.85278 0.818754 0.639458 0.280906
160 1 8.4207 4.58738 7.63543 0.518411 -0.817548 -0.934839
161 1 0.492118 1.97454 6.14433 -1.1702 -0.210312 -0.579593
162 1 0.628819 5.59254 0.845372 -0.436249 -2.7821 1.72331
163 1 8.15948 0.218115 6.15101 -0.550384 -1.13332 -0.689329
164 1 3.57323 0.829061 7.96042 0.110356 0.000924041 1.83629
165 1 3.52624 5.9216 2.23452 2.19156 -0.0761963 0.170327
166 1 6.23717 5.33208 0.874238 -0.190078 -0.14364 -0.929707
167 1 2.87641 7.62641 3.28672 -0.318393 -0.21444 -1.12308
168 1 6.65074 4.94157 1.78979 0.881676 0.0816147 0.159542
169 1 1.47222 5.87028 8.85311 -0.379451 0.0395722 -0.351205
170 1 0.20808 2.73007 3.77695 0.360769 -0.242281 -0.107442
171 1 4.6645 7.4056 0.472499 0.974118 -0.198258 -0.430608
172 1 1.20856 5.63145 7.85696 0.653426 0.319145 0.840999
173 1 4.25627 4.72268 1.90649 0.269427 -0.684798 0.356049
174 1 5.19999 6.67261 8.90968 0.124262 0.353035 0.0524215
175 1 6.88999 5.58847 8.65302 -1.41295 1.02923 1.20395
176 1 4.61586 0.849626 5.74654 -0.858956 0.804758 0.762155
177 1 6.05805 6.58862 1.9487 0.372871 -0.47792 -0.936566
178 1 6.86365 3.00978 1.95357 0.328958 0.646574 0.0413593
179 1 5.86797 2.76193 4.33548 -1.79244 0.116738 -0.13775
180 1 1.43527 6.92648 3.39644 0.398911 -0.128686 0.478359
181 1 8.37851 5.71266 1.13063 0.253574 1.36359 0.955819
182 1 1.63479 1.27111 4.65707 0.481733 0.77227 0.848522
183 1 3.33886 3.5936 9.01695 0.795079 0.187951 0.13237
184 1 5.59768 6.89592 7.94285 0.290897 -0.904367 -0.0276586
185 1 0.412068 8.34343 6.1797 0.719403 0.493715 -0.0551909
186 1 1.442 4.25768 1.99079 0.13767 -0.0101465 1.0898
187 1 0.839467 1.74207 3.90016 -0.248605 0.0640356 0.743477
188 1 1.71887 7.90081 2.93797 -0.0898501 -0.287116 -1.19479
189 1 4.03123 7.41683 3.79958 0.101418 -0.521071 0.737087
190 1 5.81651 7.44825 2.53343 0.0737877 0.207665 -0.588892
191 1 4.60489 3.75528 5.84597 0.660401 -0.834747 -0.626943
192 1 1.60999 1.68313 0.268011 1.27976 0.499129 -0.244825
193 1 4.08503 0.754527 1.04511 -0.241473 0.539387 0.661135
194 1 9.01808 8.77956 4.41886 0.0977798 -0.858914 -0.635457
195 1 7.02512 1.02779 2.07426 1.23263 -0.139652 0.565337
196 1 0.0550939 9.18928 2.58411 -0.353359 -0.720314 -1.234
197 1 5.37844 4.8872 1.73043 -0.436798 0.269903 0.765253
198 1 7.92929 1.31535 8.01589 0.622626 -0.894994 0.404946
199 1 7.31982 0.610423 5.75157 -0.8277 0.566918 -0.966211
200 1 2.82543 0.249978 0.519138 -0.483685 -0.216667 -0.0344719
201 1 5.45241 1.49867 5.52908 0.164692 -0.0507136 0.0821472
202 1 2.55928 6.45508 3.45459 0.109583 -1.12931 0.0952391
203 1 5.69196 8.93064 6.6452 0.382733 -0.565991 0.351747
204 1 7.26738 2.04399 9.37429 0.182603 0.340226 0.0348281
205 1 5.49682 0.507544 6.17835 0.931367 -0.136234 -0.136871
206 1 2.38057 0.734752 7.66288 -0.144174 0.754144 1.51724
207 1 6.85139 1.56937 3.07713 -1.10416 0.0906443 0.34581
208 1 0.143503 5.13287 3.47309 -0.114183 1.06857 -1.91536
209 1 7.00447 7.45915 6.54631 0.233764 -0.96115 0.807035
210 1 1.61827 2.74086 6.86923 -0.86264 0.340624 -0.571684
211 1 7.53195 0.317418 1.22505 -0.587301 -0.271437 0.968828
212 1 5.90584 7.00013 4.09754 1.10531 -0.0142793 0.0472969
213 1 0.0440166 6.90861 4.55063 0.0080649 0.781767 -0.171474
214 1 7.83929 1.96932 3.20911 0.433013 1.13454 0.375836
215 1 5.19082 6.16034 3.85834 -0.217208 1.27591 0.321756
216 1 6.51397 6.69941 5.8983 -0.331367 0.432383 -0.62501
217 1 1.3422 1.36952 7.01656 1.38979 -0.506864 -0.369332
218 1 3.43675 2.56487 3.89087 -0.469959 -1.40991 -0.706853
219 1 7.42931 4.90158 0.939421 -0.0407248 0.634316 0.0277676
220 1 1.23291 2.77543 0.147188 1.05157 -0.971305 -0.391409
221 1 6.80402 8.33216 8.29431 -2.20701 -0.250944 0.0670846
222 1 4.52649 6.44688 1.14435 -0.744203 0.0172556 0.232203
223 1 3.19497 1.64134 8.57956 -0.530485 -0.445655 0.826396
224 1 7.73889 5.58766 5.44775 0.164465 1.21825 -0.333684
225 1 9.3859 4.4333 7.22676 1.09555 -0.432975 1.20995
226 1 3.67009 1.60372 4.29355 0.0113381 0.415293 0.21304
227 1 8.57822 5.2354 4.69349 0.235196 -1.15648 0.327049
228 1 9.03097 0.633396 6.69463 0.0724525 -0.64888 -0.44308
229 1 2.0562 1.74558 8.68902 -0.231999 -0.287419 0.433045
230 1 5.98432 1.66997 7.85208 -0.153899 0.746954 -0.319134
231 1 5.36261 6.26051 5.48092 1.59902 2.16599 0.365081
232 1 2.52223 4.01276 0.625396 0.496672 -0.637707 -0.268443
233 1 8.37722 7.96803 2.07712 -0.292721 0.851817 -0.899005
234 1 6.92677 7.08344 1.60889 0.131905 -0.845978 -0.615786
235 1 6.37602 6.42303 8.62656 0.294686 0.577519 0.123169
236 1 6.76656 3.39931 5.93923 -0.626178 -0.0391387 -1.5601
237 1 6.76978 2.3721 3.98849 1.47988 0.862103 0.182337
238 1 8.28431 2.6898 7.26693 0.318117 0.922421 -0.0566711
239 1 5.86985 7.18387 5.18739 -0.694665 0.0104995 0.636062
240 1 0.549906 1.65251 9.139 -0.160804 -0.092315 0.664998
241 1 3.31867 4.36551 2.10583 0.287095 0.7099 0.20537
242 1 5.74676 4.69343 9.20321 -0.573215 1.46169 0.0123462
243 1 7.70202 7.37124 3.54304 -0.477819 -0.723778 -0.562693
244 1 6.12538 3.98309 4.46412 -0.104076 -0.0300033 -0.177788
245 1 5.88055 2.85899 3.27979 -0.827335 -0.422372 0.0642872
246 1 8.19466 1.62553 2.20642 -0.323547 0.592065 0.641787
247 1 5.37984 3.53576 1.31402 0.260383 -0.429503 -0.447119
248 1 5.4347 7.00509 6.15133 0.78999 -0.819762 -1.14637
249 1 4.92701 4.04031 4.20828 -0.767376 -0.134371 0.184001
250 1 5.48545 4.39673 5.08384 0.847408 -0.246077 0.892692
251 1 5.42044 2.97293 6.93287 0.215196 -0.760345 0.442596
252 1 9.15879 5.97199 4.27411 -0.22194 -0.471819 -1.16531
253 1 3.44541 7.81535 2.19608 0.305781 -0.430227 0.865517
254 1 5.85061 2.57448 1.40218 -0.253027 -0.340878 -0.686213
255 1 5.92557 4.71175 2.58392 0.642929 0.358105 -0.294697
256 1 9.04305 4.07399 9.18636 0.242836 -0.17306 -1.45886
257 1 7.66053 0.668518 4.60873 -0.134668 0.121808 0.562224
258 1 2.61757 8.54081 2.82829 0.761669 -0.899948 0.692268
259 1 5.12352 4.59663 6.06299 -0.622825 -0.976739 -0.196625
260 1 3.81688 4.65608 0.926112 0.0122128 -0.454896 0.0376285
261 1 0.620877 7.14956 9.28155 0.874553 -0.0422804 1.26676
262 1 8.01275 1.29496 0.442532 1.19262 -0.481887 -0.791213
263 1 7.46104 6.66486 5.49575 -0.693056 -1.0888 0.128413
264 1 7.62707 4.85788 6.95827 0.505216 -0.312521 -0.579943
265 1 4.74529 2.91783 1.69577 -0.153621 -0.797696 1.04931
266 1 8.98687 7.74063 7.83865 -0.665154 0.206634 -0.03166
267 1 5.24095 2.08372 2.07944 -1.6683 -0.842829 0.286477
268 1 6.00557 1.17938 0.437684 0.236026 -0.923256 -0.516665
269 1 0.912625 8.38834 1.391 0.301986 -0.355517 0.0929997
270 1 0.432887 8.6417 5.14083 -0.971581 -0.958374 0.262125
271 1 2.79943 7.25331 0.331587 -0.976584 -0.125307 0.59537
272 1 1.69804 4.38024 0.0901482 0.0666875 -0.600792 0.390577
273 1 6.68128 5.83729 2.53716 -1.53215 0.0369521 0.339892
274 1 4.14201 3.57258 8.16805 -0.334533 1.34863 0.641377
275 1 5.67002 8.9283 1.41232 -1.14559 -0.562868 0.637957
276 1 7.69331 8.62743 1.37481 0.596595 -1.49823 -1.16248
277 1 5.04351 0.220383 3.30789 -0.854536 0.644386 0.123775
278 1 2.22726 3.4007 6.30828 0.544898 1.58025 -1.16729
279 1 1.03719 4.66016 0.988437 0.763773 0.203773 -0.209515
280 1 4.17113 0.0753508 7.2678 0.927477 -1.29858 0.873195
281 1 6.31552 8.4734 2.54406 -1.37334 -0.389376 0.45563
282 1 2.21706 0.884805 3.85947 -0.0290172 0.963689 0.511767
283 1 1.26225 7.85114 5.82835 -1.27438 -0.0823555 -0.223694
284 1 7.31083 6.00766 4.5877 0.979484 -0.462078 0.336176
285 1 8.26321 0.984979 5.45369 1.06448 -0.395019 0.0349866
286 1 2.24499 0.901052 6.6898 -0.345261 0.195142 0.0113392
287 1 4.18569 7.76653 7.25009 -0.579642 -0.601741 -0.705393
288 1 1.42667 7.55241 1.73162 -0.344178 0.251734 0.179795
289 1 6.45609 1.67453 1.49501 0.243021 1.20768 -0.393629
290 1 4.55949 4.3782 7.65187 -0.372547 1.03403 -0.694669
291 1 6.83178 5.2124 7.7346 0.05543 0.180911 0.377803
292 1 5.21113 3.58356 7.83593 0.289564 -1.04565 0.419308
293 1 8.67871 3.51497 2.5897 0.243975 0.739702 0.0101922
294 1 9.18806 2.89152 7.69217 -1.12631 -0.00581985 -0.221873
295 1 6.38761 2.5933 6.47793 -1.13277 -0.921311 0.463049
296 1 7.55009 6.63006 0.743741 0.87287 -0.0531589 -0.468777
297 1 8.38243 6.2401 4.84569 -0.281486 -0.093961 0.395355
298 1 0.971768 4.54371 6.79518 -1.26365 -0.0642602 0.911436
299 1 2.267 0.171892 4.5719 -0.506166 0.496514 0.0676774
300 1 0.768648 2.39482 1.8497 0.744183 -0.0525323 0.778245
301 1 4.90319 8.75349 8.50295 0.00349737 1.29413 0.935215
302 1 7.03504 0.034542 3.90815 -0.329341 -0.945651 -0.0623476
303 1 3.32146 2.13325 5.23803 -0.926571 -0.602339 -0.455768
304 1 0.828348 6.51539 7.46355 1.19049 0.825759 0.726665
305 1 3.8459 8.65457 6.83819 0.215413 -0.416358 0.0356392
306 1 0.735292 8.41484 2.47262 0.745854 -0.582174 0.845848
307 1 5.95459 9.14912 5.63485 -0.248584 0.149403 0.147028
308 1 2.09808 8.38275 7.46248 0.226288 -0.198196 0.206393
309 1 8.17787 6.3587 7.38424 0.738353 -0.793345 -0.343444
310 1 8.69146 6.94989 3.88866 0.393806 -0.224382 -0.914258
311 1 8.35164 7.27845 0.505369 1.45281 -0.261133 -0.334357
312 1 5.41982 5.95958 1.44429 -0.464904 -0.54186 0.183136
313 1 6.20022 5.92943 4.13646 -0.398361 -0.211144 -0.0932635
314 1 7.85721 2.82572 2.45584 -0.890935 1.09365 -0.151124
315 1 3.69594 4.28408 7.13656 -0.774228 0.436449 -0.6186
316 1 8.59601 4.91891 8.57747 -0.196165 0.105754 0.236955
317 1 8.66143 6.02849 2.13652 -0.144853 0.616708 0.237659
318 1 8.91577 4.4285 3.04027 0.129276 -0.168434 -0.032703
319 1 4.07338 1.84601 3.20954 0.45836 -0.175329 0.690366
320 1 3.93114 6.73372 4.82436 -0.276184 1.19158 -0.530815
321 1 0.620418 4.01601 0.29581 0.221803 -0.259646 -0.172887
322 1 3.09912 0.0794155 7.2239 -0.327214 0.0754646 -0.552381
323 1 1.68156 2.43765 2.63503 -0.623145 0.178169 -0.642958
324 1 2.22008 6.52345 9.19102 0.0782203 -0.253632 -0.237792
325 1 7.9076 8.25145 0.43752 -1.39297 0.341939 0.183733
326 1 4.87047 1.93222 3.99615 -0.617707 1.05037 -0.458844
327 1 3.52623 2.32622 2.01248 0.537546 -0.88152 0.000359819
328 1 7.96588 4.09774 4.40834 0.152818 -0.30009 -0.802257
329 1 9.01662 0.532905 0.377334 -0.352596 0.352237 0.714262
330 1 4.11283 3.80309 0.406597 0.200205 0.195012 0.333989
331 1 2.06374 0.885368 5.55952 1.426 -0.242208 -0.121467
332 1 2.30018 1.93891 5.42371 0.26337 -0.794089 -1.21349
333 1 1.52782 3.08627 1.70674 0.296763 -0.227022 1.05261
334 1 2.80959 6.37164 6.11577 -0.249868 -0.37925 0.516346
335 1 0.2986 6.21974 0.137806 1.47359 -0.187533 -0.0446015
336 1 5.70281 5.29726 3.45353 -0.168006 0.0994969 0.874911
337 1 7.7873 0.818149 3.49053 0.549023 -0.684295 -0.340161
338 1 6.58276 2.52071 7.53888 0.110215 0.316311 -0.386637
339 1 6.2689 6.43893 0.805102 -0.447133 1.94195 -0.229988
340 1 2.85716 7.47623 6.02079 0.787737 -0.563683 0.432896
341 1 6.59295 7.67947 7.5316 0.351625 0.000409353 -0.0290532
342 1 0.228916 0.477261 7.61028 0.90677 0.161247 -0.236166
343 1 7.43901 8.37351 3.8779 0.0784588 -0.731352 0.823305
344 1 0.955549 3.14449 7.96916 -0.822073 0.397713 -0.359631
345 1 6.79227 7.54771 5.45966 0.0489269 -1.00582 -0.143744
346 1 0.518506 3.0154 0.932532 0.203476 0.120409 0.459532
347 1 7.13821 6.25829 7.84755 -0.303604 -0.548192 0.452448
348 1 6.81533 1.15561 6.45021 -0.438358 1.12396 0.205153
349 1 3.78709 2.03416 0.178273 0.974935 0.667788 -0.448891
350 1 1.25652 2.75411 5.67586 -0.144456 0.807429 -1.00047
351 1 5.53831 0.0993539 8.99477 -0.188445 -0.205781 -0.203432
352 1 5.15249 6.2267 7.23633 -0.565171 1.14122 -0.624992
353 1 9.10848 4.41333 4.16957 -1.75075 -1.11387 -0.729642
354 1 3.0286 6.02714 7.05283 1.70284 0.846492 1.29123
355 1 9.30555 7.63352 2.46509 -1.39155 0.291838 -1.07695
356 1 7.60679 2.23224 7.80735 -0.225648 -0.327963 1.22525
357 1 0.345191 5.10346 4.6542 0.275475 0.306332 -0.464328
358 1 5.33956 2.41436 5.99972 -1.06862 -1.05864 -0.69343
359 1 1.37716 6.88742 8.50642 -1.14443 0.546965 -0.0203795
360 1 4.61614 1.4638 0.484854 0.588194 -0.19098 0.0416773
361 1 9.2215 1.04524 5.0614 0.506619 -0.587391 -1.19378
362 1 2.669 1.86902 0.148025 1.05177 0.483471 0.428825
363 1 9.38251 4.78472 0.502935 -0.400705 1.15823 0.265445
364 1 9.22577 1.89281 2.16889 -0.676655 -0.320384 -0.534264
365 1 5.05476 5.56318 8.96116 -0.546285 0.0810538 -0.116317
366 1 5.475 0.548965 1.32837 -0.391806 -1.12602 -0.0978806
367 1 0.497696 3.50344 7.1308 -1.14623 -0.900454 -0.2702
368 1 3.02529 4.98227 3.70315 0.318815 -0.34896 1.5379
369 1 8.68226 7.09353 1.65156 -0.605636 0.721384 0.702696
370 1 1.86579 0.256712 1.09031 -0.211157 -0.304333 0.226008
371 1 1.03264 9.354 2.98316 0.453777 -0.635446 0.2606
372 1 4.46786 4.58738 4.9918 0.791913 0.782226 -1.01729
373 1 7.43534 3.26327 7.85504 -0.551218 -0.268525 -0.0903822
374 1 8.9118 0.8018 2.12026 -0.281377 1.9169 0.937303
375 1 3.40695 8.16983 0.59649 0.310622 -0.421243 0.886249
376 1 3.58697 4.83014 9.31173 -1.02326 -0.583688 -0.546072
377 1 3.35684 7.31139 7.99646 -1.46885 0.0295192 -0.25695
378 1 4.26553 6.43661 2.96911 0.000582874 0.716477 -0.600642
379 1 7.64904 5.3376 1.95886 -0.525848 -0.445371 -1.35415
380 1 8.94303 3.53667 5.4685 0.124813 -0.384227 -0.276453
381 1 2.93164 2.53153 6.05518 -1.08386 -0.670216 1.5085
382 1 4.58225 8.42191 5.43865 -1.0084 -0.346346 0.615907
383 1 1.26989 8.92668 0.524536 0.0153536 -0.0769746 -0.304911
384 1 5.16925 8.79751 3.86357 0.62209 -0.53232 0.423821
385 1 5.28832 5.27615 0.574048 0.397597 -0.255493 -0.0938336
386 1 8.38932 7.9535 4.29356 0.255389 2.02056 1.51316
387 1 0.594381 3.66362 1.80146 0.924696 0.532049 0.622401
388 1 3.28969 8.73802 1.70772 1.86041 0.0935557 -0.921116
389 1 6.00963 0.924237 7.13779 0.5297 -1.07691 0.636711
390 1 3.52084 5.87886 5.37118 -0.443 -0.57646 0.179236
391 1 0.0826434 7.85287 4.14721 -0.0930276 0.657521 -1.06952
392 1 2.95401 6.60752 1.73747 0.867238 -0.853516 -0.0274897
393 1 6.44455 8.64242 4.02973 -0.464119 -1.59624 0.470436
394 1 5.0766 3.50135 3.25748 0.638362 0.107349 -0.983055
395 1 6.05068 0.083996 2.26003 0.212011 0.609276 -0.973874
396 1 2.97586 0.581902 1.47386 1.21529 -0.716502 -0.0940104
397 1 7.06647 4.40423 3.74755 0.270955 0.383619 0.59383
398 1 0.028222 3.87694 8.0797 -0.312274 -0.278996 0.214334
399 1 6.8922 0.446032 2.96287 1.17604 -0.47838 0.249079
400 1 0.513644 4.28547 2.65012 0.0535695 -0.307492 -0.291561
401 1 6.06537 5.6885 9.33423 0.825248 0.680986 -1.06281
402 1 2.02611 4.90481 3.37099 -0.947862 0.34844 0.154287
403 1 1.2958 3.41375 2.70247 -0.690827 0.233446 0.641424
404 1 4.19467 0.549935 2.80204 1.30398 -0.141109 0.426483
405 1 1.67226 4.05089 4.86675 -0.00211003 -0.99517 -0.585637
406 1 5.38316 1.67829 1.13294 -0.660293 0.23643 -0.55776
407 1 6.81928 8.93886 1.12932 -0.216698 1.16407 0.451076
408 1 2.41659 1.16619 0.915658 -0.789837 0.172489 -0.0849801
409 1 0.045775 3.48383 4.46403 1.48146 0.995811 0.665555
410 1 6.44748 3.4833 1.11365 -0.379567 0.703611 0.52555
411 1 5.51801 3.11018 2.32516 -0.387253 -1.98764 0.253537
412 1 2.22975 5.63535 4.13312 -0.185939 0.650158 0.545947
413 1 1.30387 8.48638 8.96829 -0.379567 -1.26972 -0.963954
414 1 6.45781 0.610372 1.22936 1.13209 -0.107709 0.656999
415 1 7.07969 0.0619482 8.5795 0.576792 -0.650278 0.500033
416 1 0.468051 9.32616 9.29381 0.189518 0.31611 -0.455838
417 1 8.22635 3.62834 1.58568 -0.884132 1.29647 0.620423
418 1 5.08777 1.29767 6.58394 0.671679 -1.03812 -0.371944
419 1 1.08425 1.51516 2.39687 0.698759 1.29751 -0.463039
420 1 8.58918 5.30909 6.96157 -0.855823 -0.605052 0.176443
421 1 2.39335 6.9898 8.13933 -1.01823 0.653931 0.477888
422 1 5.91583 1.85423 3.65372 1.05164 0.411751 -0.499786
423 1 6.77876 3.20324 4.7641 -0.388827 0.589012 -1.19655
424 1 2.80386 5.11494 2.58906 -0.393587 0.24657 0.424073
425 1 7.68216 3.42362 5.31971 -0.192896 -1.00899 -1.67399
426 1 1.24749 2.50553 8.62486 -0.0910209 -0.690948 -0.270641
427 1 7.23043 4.07009 1.75496 -0.625015 -0.0680752 -1.50414
428 1 2.68835 7.77216 1.37811 -0.235838 1.3098 0.141132
429 1 5.55578 0.691622 8.10816 0.568077 -0.0374604 -0.467036
430 1 9.11372 3.01099 1.65385 -0.679943 0.626798 0.406102
431 1 8.75206 6.26415 6.4883 -0.841737 -0.101485 -0.962284
432 1 1.98881 7.65128 3.88138 -0.044776 0.660557 0.281223
433 1 7.95429 2.95548 6.22927 -1.39487 0.646497 0.504998
434 1 7.55468 3.17907 3.93016 0.273703 0.210129 -0.040313
435 1 7.81067 5.77983 6.51528 0.481885 -0.214853 0.881298
436 1 1.94127 7.84527 8.46126 -0.576462 0.762163 0.0441064
437 1 2.59129 6.11379 2.51468 -0.641089 0.141417 0.368687
438 1 2.98645 5.21465 1.56904 0.265487 -0.441819 -0.113366
439 1 4.59921 2.06217 7.20297 0.642363 -0.464756 -0.480159
440 1 3.8388 0.170618 1.91982 0.303655 0.218104 0.415527
441 1 5.79846 2.79132 9.26446 -0.551068 0.041683 0.575334
442 1 1.63483 7.43662 9.39727 0.0015501 0.288204 0.754868
443 1 2.07347 4.74398 1.28018 -0.35294 -1.2582 -0.116123
444 1 6.15248 5.99868 7.59548 0.517371 0.226878 0.120719
445 1 0.495453 7.33266 8.16012 -0.0614593 0.7923 -0.534047
446 1 8.61583 2.14266 8.11261 -0.670467 -0.349567 1.12686
447 1 0.0271129 5.26397 2.41864 -0.240468 1.09162 -0.569607
448 1 1.85377 8.80373 3.53985 0.540885 0.349096 -1.21399
449 1 6.5567 8.53827 5.13446 0.053946 -0.546338 -0.635565
450 1 1.70189 0.692106 8.57402 0.39581 0.751109 -1.19754
451 1 7.38848 4.29768 7.79525 0.238407 -0.139039 -0.430706
452 1 9.27591 6.33344 1.15095 0.360021 1.0429 -0.537995
453 1 2.63932 0.198942 8.44326 0.743677 0.339815 0.140748
454 1 3.82285 6.52589 0.362127 0.55797 -0.977706 -1.58986
455 1 0.798324 6.96234 5.40397 -0.811422 -0.00882295 0.513055
456 1 1.34763 6.16138 5.89096 -0.0121445 -0.711826 -0.0844698
457 1 6.91769 5.03155 5.72593 0.800545 -0.661435 -1.00267
458 1 3.82008 7.92345 6.01307 0.792987 -1.15825 0.816371
459 1 7.13594 2.50665 5.54364 0.939413 0.415894 -1.59601
460 1 3.27161 3.11828 4.7499 0.237783 0.43515 -1.73204
461 1 9.06228 2.29709 6.81054 -0.252109 0.693415 0.361315
462 1 6.10192 7.83635 1.64798 -0.199396 -0.966958 1.10539
463 1 0.667919 0.101029 1.06683 -0.561797 0.31972 -1.07032
464 1 7.77572 7.51072 1.32894 -0.786906 -1.08337 0.0423711
465 1 8.6913 7.28413 6.96617 -1.1859 0.677387 -0.8801
466 1 2.68226 8.41993 6.62909 -0.436898 -0.102564 0.502043
467 1 4.9107 1.65792 8.18455 -0.736529 0.0782767 -0.0551921
468 1 7.58302 8.05293 5.88043 -0.531002 1.19671 0.901164
469 1 6.40217 4.95661 4.30125 0.586066 -0.312492 0.98487
470 1 6.91745 4.17681 5.19226 1.31695 1.28519 1.57199
471 1 8.39713 0.78843 1.20607 0.358981 -0.0135925 0.338814
472 1 0.296956 2.29593 8.3559 0.447505 0.440275 1.07181
473 1 4.5473 3.70282 6.80953 1.119 -0.0225609 0.177826
474 1 3.71898 0.34391 6.23828 -0.321618 -0.133895 0.761798
475 1 0.0403755 8.74394 0.718425 0.603865 1.19293 0.180268
476 1 1.00835 4.35101 7.82581 -0.501554 0.116833 -0.649613
477 1 0.182733 0.0868646 3.6388 0.511882 1.0111 -1.28914
478 1 5.41246 7.01002 1.16249 0.335119 0.227881 0.0206206
479 1 0.808794 2.26055 7.25825 -1.02709 0.20392 0.817714
480 1 0.0567756 7.60884 1.19459 0.794959 -0.0148587 -0.33298
481 1 4.92152 2.4356 3.06197 0.456453 -0.382874 -1.0425
482 1 5.01135 2.59975 0.694362 -0.0608771 0.492755 0.41661
483 1 2.85189 4.96323 7.17455 -0.532118 -0.682192 -0.12339
484 1 2.90769 1.66899 3.59767 -0.790605 0.0108019 -0.0777364
485 1 7.36306 7.85635 9.03795 -0.811403 -1.30892 -0.941699
486 1 5.92231 8.47261 8.9252 0.431902 0.852601 0.873058
487 1 6.64916 6.73209 4.81649 -0.386288 -0.239839 0.566422
488 1 8.22652 7.15111 8.17332 -0.076812 -0.0420268 0.746282
489 1 0.59482 0.89379 0.368326 0.648808 -0.150586 0.39462
490 1 4.57718 9.14709 1.2045 0.419422 0.193941 0.608203
491 1 5.894 8.00654 3.48054 -0.35849 -0.258791 1.50105
492 1 3.74038 1.14732 5.35717 0.245853 -1.8622 -0.415366
493 1 8.84442 2.52356 2.89721 -1.68813 1.50281 -0.00455287
494 1 5.08594 2.32653 4.91006 -1.0125 0.505876 -0.96382
495 1 4.39973 0.96919 3.74891 -0.350765 -0.160926 -0.942434
496 1 3.83764 2.91023 5.6163 -1.10519 1.22674 0.856253
497 1 2.10892 3.06468 7.9506 -0.470123 0.192541 0.922435
498 1 1.41664 9.31582 1.99335 -0.196125 0.595913 -0.0199033
499 1 3.25551 7.87623 9.00741 0.71639 0.919535 0.116329
500 1 6.38089 3.74797 0.107656 0.054524 0.769987 0.0740026
501 1 4.74018 5.56378 3.15493 -0.344464 0.269037 1.23646
502 1 0.667529 9.21478 6.73705 -1.72459 0.853544 -1.14554
503 1 4.86916 7.95799 6.39439 -0.279931 0.498067 -0.771043
504 1 6.99349 6.38866 6.80551 -0.602229 -0.834518 -0.616316
505 1 4.14031 5.09861 5.75881 -0.674589 1.36758 0.0774802
506 1 8.3422 8.3736 5.24312 -0.328867 0.0103722 0.193544
507 1 0.658164 1.91607 0.854331 -0.253049 1.00825 0.714649
508 1 6.9654 1.32391 0.637209 -0.867129 0.629712 0.677941
509 1 3.71405 9.12431 8.34128 -0.538109 0.532019 -0.184375
510 1 0.983069 7.84454 3.6619 0.774873 0.354981 0.543718
511 1 8.51209 1.35985 4.29142 -0.806941 -0.272573 -0.0561914
512 1 6.03338 4.2061 3.47137 0.248719 0.391526 1.2011
513 1 8.9973 7.01113 8.80941 0.0655867 -0.497015 0.449769
514 1 1.15213 6.96946 6.60164 0.538703 1.76459 -0.614451