ITEM: TIMESTEP
28760000
ITEM: NUMBER OF ATOMS
1000
ITEM: BOX BOUNDS pp pp pp
0.0000000000000000e+00 9.4000000000000004e+00
0.0000000000000000e+00 9.4000000000000004e+00
0.0000000000000000e+00 9.4000000000000004e+00
ITEM: ATOMS id type x y z vx vy vz
1 1 1.1663 4.49857 9.31626 1.14966 0.772596 -0.927355
2 1 7.08988 5.7414 1.00009 0.636054 -0.713833 0.0162801
3 1 3.33059 4.66623 2.1665 0.791824 -0.51648 0.361002
4 1 8.18729 7.9 7.79258 0.910483 0.612756 0.972957
5 1 3.35999 0.688953 3.74375 -0.0855535 -0.53683 0.129193
6 1 6.34711 9.01641 7.05484 0.484518 0.194026 0.480683
7 1 0.475279 7.13452 9.15949 -0.511266 -0.413739 0.344841
8 1 3.7666 0.642368 4.95769 -0.387169 0.625617 -0.00257508
9 1 3.65802 5.05277 6.47116 0.260074 0.073086 -0.499574
10 1 8.89553 8.37682 8.57568 0.733537 0.079297 -0.361868
11 1 7.09488 0.722865 6.44322 0.231754 0.768128 -0.154076
12 1 0.0251539 1.26652 0.797153 0.811916 0.839803 -0.984777
13 1 1.46069 2.81877 1.28941 -0.413106 -0.808797 -0.295311
14 1 3.9503 5.23017 2.87296 -0.68206 -0.158607 0.721162
15 1 7.0433 2.7183 0.165574 0.25658 -0.0776572 0.309921
16 1 1.21226 9.21078 5.63275 -0.945911 -0.136048 0.504076
17 1 9.07695 3.03981 0.460644 0.961341 0.378682 -0.9914
18 1 6.679 7.26729 9.13687 -1.72553 0.0770863 -0.26899
19 1 2.93029 3.5249 8.80148 -0.121786 -0.327896 1.15005
20 1 6.35284 5.22792 6.4527 0.58837 -1.05142 0.450946
21 1 8.64922 2.45405 3.15074 -0.824634 -1.41286 0.812139
22 1 3.14414 2.92493 6.89049 -0.563516 -0.268419 1.37242
23 1 5.86318 0.836271 0.587618 0.756169 -0.680255 -0.95969
24 1 2.36263 3.69684 6.77687 -0.245943 0.00455609 -0.0655094
25 1 6.82023 0.421998 8.17851 0.216278 0.511802 0.418644
26 1 0.572756 4.15759 2.56225 0.19259 0.302806 -0.0681291
27 1 0.491673 7.66621 1.70914 0.539798 0.314864 0.317687
28 1 4.58316 4.13731 4.38002 0.534192 1.0829 -0.305719
29 1 1.04768 2.73557 5.65703 0.119012 0.316369 1.08954
30 1 1.31005 1.81874 4.96701 -0.00798279 0.228648 0.141832
31 1 2.44622 3.79945 2.06484 0.406143 -0.084636 -0.270395
32 1 5.94849 7.51332 5.52322 -0.391686 1.04755 0.715755
33 1 1.19646 0.919853 7.80656 -1.66029 -0.135986 0.942973
34 1 6.76345 9.31623 2.91998 0.964045 -0.196138 0.550093
35 1 8.71551 1.35971 2.72171 -0.478911 -0.121902 0.437772
36 1 2.0608 8.19249 2.45934 0.431836 -0.46257 0.631101
37 1 6.33236 1.18381 1.57055 -0.20993 -1.14737 -0.108123
38 1 2.26193 6.0907 5.04875 0.411807 0.0587719 0.627343
39 1 0.703846 0.715475 6.65473 -0.178564 -0.699705 0.300039
40 1 7.49217 1.76304 0.0507876 -0.0729055 1.29785 0.294594
41 1 8.63796 6.61374 6.61516 -0.259646 0.0978467 0.663378
42 1 2.27919 8.1154 4.39035 -0.281386 -0.571986 -0.341732
43 1 0.812833 1.83894 8.87889 0.0584083 0.821315 -0.088979
44 1 4.08834 2.59233 5.35448 1.40344 0.134172 -0.647389
45 1 5.74038 1.98406 5.91239 -1.01598 -0.940831 -0.483326
46 1 2.74515 4.6215 4.50135 -1.58907 -0.3136 -2.06356
47 1 1.71758 6.35811 8.30097 0.0838457 0.727628 0.749073
48 1 5.1994 4.7648 2.91469 0.673599 -0.267802 0.66461
49 1 4.08564 4.28892 7.08083 0.151304 -0.204689 0.209161
50 1 1.83897 8.63377 3.44283 0.149351 -0.113214 -0.134737
51 1 2.53658 5.4075 3.92418 -0.203894 -0.706556 -1.25706
52 1 4.23946 1.46067 1.14698 -0.458537 0.150987 1.05006
53 1 4.59556 3.03458 3.04922 0.115712 -0.236713 -0.0776318
54 1 7.17441 8.12598 0.122106 -0.744756 0.10423 0.942544
55 1 0.837372 4.69265 7.18386 0.112258 1.12349 -0.824173
56 1 1.31514 5.4398 9.02708 -0.800681 -0.741733 0.269366
57 1 8.59575 0.444324 7.46997 -1.43668 -1.07429 0.850323
58 1 8.25532 8.3684 0.0154095 -0.113542 0.0300478 0.410974
59 1 8.84288 8.60888 4.6799 0.644403 0.00706118 -0.334095
60 1 1.90362 8.67725 0.497319 -0.507359 0.305341 -0.261328
61 1 5.0541 4.10484 1.89622 1.22129 0.34806 0.336411
62 1 0.653528 9.27308 9.29431 1.23682 0.201047 -0.0863861
63 1 6.57066 8.27497 8.5665 -1.22116 -0.45285 0.606114
64 1 7.84731 7.23937 9.20293 1.60337 -1.04398 -0.253002
65 1 7.84782 2.49784 5.88142 0.11663 0.0556701 -0.505717
66 1 3.37669 5.51831 7.30772 -1.46356 -1.19556 2.07252
67 1 2.16575 9.26517 2.73345 -0.486861 0.127736 -0.249046
68 1 3.9794 6.69286 0.315578 1.23352 -0.411695 -0.364598
69 1 5.8027 4.95362 2.03863 0.0155617 -0.557016 -0.296147
70 1 8.08073 3.97463 4.04263 0.519161 0.065299 0.31574
71 1 8.12911 3.95196 0.619777 -0.25097 -1.22047 0.373991
72 1 6.86326 7.59259 6.1189 -0.057299 0.384848 0.0236781
73 1 4.09448 6.08969 6.58444 -0.761841 0.0532434 -0.586967
74 1 6.75542 8.36619 5.1414 0.844558 0.535196 -0.431315
75 1 7.83369 0.762844 8.33871 0.751578 1.10378 0.449878
76 1 5.82167 2.45458 0.235277 0.643652 -0.728763 -0.333845
77 1 3.20717 3.0309 4.75597 -1.00626 0.642613 2.37544
78 1 1.94791 6.99357 1.31561 0.377811 -0.613887 -0.0667094
79 1 5.3685 0.493709 1.48956 0.575981 -0.181246 0.279954
80 1 0.458578 4.71317 6.27437 0.237912 1.45912 0.079889
81 1 3.86595 8.79785 3.16077 0.210204 0.184984 0.247663
82 1 5.87423 2.49463 5.04118 0.908033 0.538209 0.136378
83 1 4.20505 7.27196 4.71557 0.0129039 0.480032 0.498472
84 1 0.985857 7.43872 7.18871 1.10429 0.0362348 -1.3959
85 1 2.36426 3.37952 1.09443 -0.646644 0.863699 0.1491
86 1 4.31929 5.45129 1.17669 1.03838 0.4465 1.10681
87 1 6.41609 3.31219 4.87157 -0.872845 1.78624 -1.59628
88 1 8.93889 0.32621 6.48525 -0.563388 -0.160483 -0.137362
89 1 0.104994 2.9353 3.03467 0.0687364 0.709653 -1.01275
90 1 6.70394 4.82678 3.55839 -0.213173 0.131283 -0.7668
91 1 1.351 5.60044 5.29551 0.410825 -0.569237 -0.124715
92 1 8.32288 6.75622 8.38781 0.353862 0.00133212 0.137897
93 1 2.74606 8.07744 3.36013 1.0945 -1.09078 0.245358
94 1 9.3772 7.67706 2.7459 -0.464198 0.222287 -1.30032
95 1 3.2007 5.92487 2.12223 0.461319 -0.665763 0.775041
96 1 2.5824 0.750474 0.168941 -0.596346 -0.442857 -0.033854
97 1 2.97127 2.92936 2.36735 -0.7456 -0.0411267 -0.963421
98 1 5.28329 2.32728 3.06009 -0.588205 0.516291 -0.87102
99 1 3.799 9.27915 4.24834 -0.0503425 0.481016 -0.775828
100 1 4.72096 0.282987 4.68735 -0.445613 -0.725151 0.264263
101 1 2.86908 6.85553 1.81712 0.108896 0.529544 -1.44949
102 1 6.84882 1.5734 3.32132 -0.0867076 -0.183354 -0.626618
103 1 0.232173 7.65857 0.641931 0.152121 0.161946 -0.808863
104 1 3.61246 8.49254 8.85516 0.77548 -0.860537 0.897011
105 1 7.22115 7.69236 7.25604 0.0845728 -0.258063 -1.0479
106 1 8.3932 2.05581 6.60009 -0.316001 0.260167 -0.637254
107 1 6.60107 7.01918 1.78841 0.170474 -0.0466449 1.45314
108 1 6.80235 2.62931 6.56255 0.00436399 -1.19952 0.498225
109 1 7.19602 5.34252 2.65895 -1.23714 -0.493674 0.703534
110 1 9.12168 4.31864 6.98927 1.33245 -0.411505 -0.812142
111 1 3.83622 7.56806 7.64032 0.234471 -0.873974 0.433748
112 1 3.60735 0.273189 1.12597 0.7238 0.680043 -0.644281
113 1 2.03421 4.12329 8.59753 -0.515433 0.685305 -0.405219
114 1 3.27807 6.60466 5.2078 -0.381274 0.501448 -1.55561
115 1 4.83271 1.70346 5.72434 -0.584647 -0.0257806 -0.723374
116 1 5.96597 5.61914 8.33282 -0.496443 0.256585 0.589218
117 1 7.01503 5.689 8.9183 -1.68042 0.15244 0.596561
118 1 7.3948 1.78115 6.47134 0.544811 -1.12723 -0.330173
119 1 8.95852 6.66636 2.78681 0.385458 -1.07616 0.154768
120 1 3.68103 6.77864 2.61028 0.618032 0.716232 -0.145353
121 1 6.01445 7.99028 6.94624 0.618681 0.98187 -0.866756
122 1 8.9052 0.71616 8.3803 0.704164 0.809073 0.139064
123 1 2.4351 1.2815 6.00035 0.198615 -0.53655 -0.68067
124 1 5.14477 8.07582 4.09747 0.299357 0.269614 -1.29842
125 1 7.31516 4.05024 4.98277 0.841746 -1.33595 0.223071
126 1 9.34003 4.55819 0.113453 -0.922982 0.756386 0.489288
127 1 1.88121 7.79318 5.39099 0.507853 -0.577673 -0.550801
128 1 4.66145 8.53297 8.95399 -0.771672 0.0840912 -0.586428
129 1 3.31658 3.29606 1.37217 0.987912 0.614661 -0.307253
130 1 2.93045 7.2558 7.26885 1.55665 -1.01069 -0.464208
131 1 1.67369 1.11049 4.07892 0.52832 -0.193457 -0.110028
132 1 6.49105 5.71223 3.97701 0.271362 -0.318468 0.487258
133 1 6.27647 6.3719 1.04123 0.919193 0.776633 -0.803441
134 1 4.03392 1.37106 6.46879 0.31953 0.317508 0.975135
135 1 5.39627 1.55976 4.76173 0.378651 0.239021 0.285173
136 1 1.78959 1.68361 8.26163 -0.559002 -0.679441 -0.357297
137 1 2.1577 5.31383 8.34507 0.443034 0.636658 -0.947495
138 1 5.62568 6.6683 7.67649 -0.0993445 0.886175 -0.897494
139 1 0.513026 6.9573 4.31859 -0.293116 0.302704 -0.101771
140 1 5.07772 3.9162 5.82424 -0.70461 -0.806208 -0.792665
141 1 5.21068 9.07003 5.48126 1.17658 1.40741 -1.23679
142 1 1.77957 3.25275 9.11048 -0.806502 -0.0979201 -0.370141
143 1 3.73694 6.96377 8.6663 -0.849767 0.435079 -0.112064
144 1 0.641815 3.71691 6.90147 -0.40358 -0.991146 0.632774
145 1 5.7088 4.60206 8.21526 -0.311791 0.26383 -1.75235
146 1 7.75786 8.91811 3.07222 0.576453 0.633346 -1.11876
147 1 4.72219 7.62411 5.46524 0.118936 -0.0054231 1.26887
148 1 4.96449 4.85473 7.45656 -0.164274 -0.368782 -0.0175592
149 1 0.132985 6.16234 1.98005 -0.577586 0.613273 0.355144
150 1 4.2301 0.875526 9.18623 0.59596 -1.18103 0.028702
151 1 1.89966 6.24062 6.59327 0.247928 -0.628635 -0.401952
152 1 4.92429 6.61258 0.00152191 0.24753 -0.164705 -0.838949
153 1 8.77342 5.43991 9.32704 -0.146814 -0.72514 0.060686
154 1 6.22155 3.43883 9.3496 0.348087 0.41126 -0.667502
155 1 6.49879 5.78599 2.00736 -0.64012 -0.939845 -1.07444
156 1 5.07113 1.16832 3.18683 1.01186 0.691423 -0.315917
157 1 8.107 1.04592 6.67873 0.691016 0.987682 -0.167919
158 1 4.28092 3.14564 8.4367 -0.185703 0.366051 0.198758
159 1 1.44255 7.54877 4.35047 1.01927 -1.46846 0.188759
160 1 7.63428 8.31192 5.96972 -0.532944 0.846208 -1.0208
161 1 9.22484 3.97971 1.01881 -0.771089 -0.309412 -0.116345
162 1 0.236935 0.176387 0.796428 1.54824 -0.416205 0.0572861
163 1 0.183325 2.79207 5.24073 -0.0980848 -0.24418 0.712183
164 1 5.35162 6.79477 3.19068 1.09761 -0.276112 0.44019
165 1 6.03308 0.310949 2.22494 -0.0614203 0.202051 0.95367
166 1 9.26989 3.86416 5.47795 -0.441516 -0.492792 0.252084
167 1 4.50559 7.6861 2.47638 -0.36472 -0.149697 -0.170757
168 1 6.75177 4.41538 8.81361 -0.840348 -1.11197 -0.59955
169 1 3.27243 5.69087 8.35768 -0.0220696 0.280616 0.72405
170 1 2.39682 1.93632 6.88896 0.6086 0.119556 0.88178
171 1 0.368685 3.60985 4.60673 0.696656 -0.648131 0.678778
172 1 3.98194 3.12236 2.22098 -0.751106 0.143689 0.873556
173 1 7.68495 8.32305 8.53938 -0.576424 -0.113617 -0.555186
174 1 1.92485 2.70087 4.98044 0.782456 0.666849 0.0494978
175 1 6.21878 8.64151 3.80929 -1.2087 0.180183 1.57292
176 1 1.43539 0.916946 5.87051 0.0371003 -1.08588 0.504063
177 1 2.48403 7.8781 1.55403 -0.841495 -0.707995 -1.00639
178 1 8.99268 7.35761 7.25313 1.27665 -0.0118008 -0.31949
179 1 5.39664 7.88222 3.09151 0.52726 0.873832 1.53078
180 1 1.67819 0.25549 4.75963 0.197585 -0.306905 -0.237421
181 1 6.94435 7.44772 0.811343 -0.228283 0.086488 0.464187
182 1 3.93391 1.35374 3.00448 0.318297 -1.05115 0.860048
183 1 3.44176 8.63415 7.66171 -0.774465 -0.0428256 -0.391908
184 1 2.41529 2.4507 8.44193 -0.120302 0.225585 0.0803301
185 1 0.941473 6.41777 7.55971 -1.58512 0.415467 0.69147
186 1 1.36772 4.60464 5.55798 0.082443 -0.137722 -0.186447
187 1 0.986988 2.72406 0.0974409 0.0180866 0.0769795 0.837774
188 1 2.26636 5.99173 1.26837 0.359425 -1.06824 0.165345
189 1 0.948932 2.71427 4.55897 0.682245 -0.514495 0.231455
190 1 8.3289 4.85459 2.57678 -0.244402 -0.945469 0.427995
191 1 5.2071 4.23181 9.09026 0.144738 -0.43343 -0.237609
192 1 9.21925 6.35049 7.51582 -0.945181 -0.577558 -0.0581516
193 1 3.98321 8.18433 5.87227 -1.88322 -0.0802376 0.484935
194 1 3.23142 3.57014 0.316244 -1.36296 -1.21649 -0.776843
195 1 1.14667 8.02054 2.84272 -1.41627 -0.834917 -0.0132876
196 1 2.09113 0.239647 3.76882 -0.0546822 -1.24167 0.349745
197 1 2.48372 4.53693 6.19489 0.0808512 0.384815 -0.536023
198 1 2.3424 4.06968 0.233111 0.396605 -0.657599 0.0562276
199 1 3.05056 6.36167 6.7176 -1.01826 -0.500084 -0.891
200 1 3.96691 9.13207 5.47801 0.353988 0.0724766 0.00437466
201 1 8.88541 7.51762 9.31721 0.871428 0.453901 -0.303041
202 1 8.86025 3.54585 3.59671 -0.503332 -1.11865 1.46909
203 1 4.60018 6.69379 7.38587 0.572358 0.561002 -0.91202
204 1 4.98053 3.63268 6.86208 0.130541 -0.0137867 1.124
205 1 8.07919 7.63902 6.64445 0.516301 -1.55984 0.637482
206 1 0.402579 1.86934 4.49044 -2.1536 0.872785 -0.928999
207 1 6.92592 2.19796 7.49949 -0.523079 -0.267383 -0.224016
208 1 7.52198 4.26228 6.00507 -1.12792 -0.389206 -0.386074
209 1 4.17545 0.960903 8.18106 0.614068 0.950866 0.817886
210 1 1.33648 2.75128 8.26974 0.746285 0.618919 0.830193
211 1 2.22602 1.96128 2.32752 -1.08441 0.111132 0.168856
212 1 6.86542 8.27275 3.08657 1.05399 -0.381123 -0.182144
213 1 3.14407 1.41499 4.59574 -1.23159 1.79266 1.53227
214 1 7.36604 2.58681 8.47358 1.82062 0.431074 0.323741
215 1 1.72987 4.8271 4.55382 -0.179995 -1.17162 -0.0894053
216 1 5.52412 4.83046 5.72994 -0.848926 -1.06903 0.925556
217 1 8.25424 9.35415 8.97945 -0.758169 0.914438 0.217876
218 1 4.41365 3.4814 1.33087 0.300493 0.664324 0.293647
219 1 5.91327 7.21987 0.55247 0.353014 -0.392992 -0.660113
220 1 0.294889 3.23124 2.02356 -0.131773 0.0956047 -0.181537
221 1 9.33062 9.05103 7.22014 -0.574019 -0.670542 0.559069
222 1 4.53988 4.16551 0.520198 -0.815805 0.927324 1.5008
223 1 3.03968 8.42419 0.411387 -0.0190974 0.368305 -0.154614
224 1 6.90499 6.44702 3.16245 -0.183347 -0.411817 -0.147193
225 1 4.9486 5.74293 6.96866 -0.42172 -0.425825 -0.0846014
226 1 8.87143 7.27661 1.19635 0.798358 -0.42685 -1.03468
227 1 4.68359 9.0674 1.49554 0.544415 -0.226118 -0.140919
228 1 7.29618 3.59386 8.70946 -0.701281 -0.734142 -0.702394
229 1 0.231666 0.68804 7.60421 0.864717 0.751493 -0.78322
230 1 3.82517 0.783687 2.06656 0.760405 -0.805237 -1.31155
231 1 8.25963 5.88851 7.39942 -0.235125 -1.05575 0.063775
232 1 6.00542 6.31527 9.30875 0.979339 0.760124 -0.489184
233 1 0.141641 8.09257 7.70531 -0.868383 -0.0660289 -0.463117
234 1 1.67258 0.893932 0.898989 -1.12742 0.173061 -0.387307
235 1 8.24082 4.80274 6.74543 0.940189 1.71909 0.435404
236 1 1.5354 0.102547 6.60731 -0.717328 0.360131 0.700566
237 1 7.3403 1.51737 1.11112 -0.338137 -0.267856 0.423282
238 1 7.16573 9.10585 8.94903 -0.677251 -0.771262 1.05549
239 1 1.64161 7.39498 6.38837 0.333876 0.00704239 -0.32742
240 1 4.35221 0.721296 5.81232 -1.9386 -1.30544 -0.328241
241 1 2.51559 7.2516 2.68154 -0.181512 0.750196 -1.6178
242 1 7.65448 1.97876 4.8192 -0.531098 1.9196 0.640537
243 1 1.53394 8.68578 8.93166 -0.108499 1.03971 -0.496845
244 1 6.91962 0.659002 0.659738 0.106854 1.0041 -0.085178
245 1 6.16329 4.29863 2.71104 0.714713 -0.354695 0.476383
246 1 1.25003 6.26607 0.848933 -0.573814 -0.76627 -0.658993
247 1 5.59094 3.47076 4.28718 -1.13044 0.494978 0.171952
248 1 7.21098 1.05266 4.16834 0.0569623 -0.164073 0.506
249 1 1.1952 4.64667 8.20879 -0.636722 -0.0363569 0.490758
250 1 3.26801 7.55458 4.23338 -0.096952 0.168863 0.636472
251 1 8.78253 3.34511 4.72205 -0.0640972 -0.699732 -1.17778
252 1 5.22763 3.84828 3.4334 0.574615 -0.930338 1.00702
253 1 0.654087 5.82603 6.75728 0.398541 -0.155708 -1.02086
254 1 7.25643 2.52329 1.25075 -0.0616763 1.52295 -1.25107
255 1 4.87536 9.34922 8.31069 -0.536086 1.22453 1.21924
256 1 0.313239 5.2525 8.79157 1.23082 -0.340686 -0.0744375
257 1 2.34551 8.0913 9.06575 0.0313593 0.965534 -0.645985
258 1 2.54118 2.51046 3.21026 -0.109216 0.389765 -0.299539
259 1 3.88363 5.09481 8.89989 0.263244 1.43341 -0.885479
260 1 4.0506 3.21321 7.26684 -0.755669 0.446607 -0.664976
261 1 7.10625 3.84499 0.292095 -0.500375 -0.341785 -0.0373217
262 1 3.87974 9.15179 2.11565 -0.916427 0.352743 -0.599
263 1 7.70547 3.14706 4.89742 -0.274277 0.973522 0.13783
264 1 7.65282 6.02436 4.80904 -0.751897 0.00644591 -0.143669
265 1 6.45641 4.31868 4.41828 0.252084 -0.685556 -0.329795
266 1 8.14715 7.5851 4.10703 -0.564541 -0.183444 0.534135
267 1 4.02435 2.49251 1.11047 -0.56821 0.520114 0.749219
268 1 5.21086 0.853553 8.27153 -0.363442 -1.21383 0.504188
269 1 2.76968 6.80186 0.679042 -0.0975998 -0.0470717 -1.5097
270 1 8.10101 9.048 5.22761 0.00270405 -0.442091 0.0821701
271 1 8.24955 8.55802 1.11773 -0.287701 0.795184 -1.18946
272 1 8.11715 1.71787 3.84741 -0.153946 -0.467642 -0.446216
273 1 7.91277 3.21565 3.19702 -0.645563 1.02261 -0.507758
274 1 6.41661 6.99244 6.94755 0.328869 0.59704 -0.410009
275 1 4.03043 8.25762 4.08049 1.77516 -0.623366 -0.130518
276 1 8.80183 5.44656 1.792 -0.34898 0.0243979 0.388751
277 1 5.1477 2.53697 4.19286 -0.298237 0.899438 1.3254
278 1 1.53318 5.26946 6.36605 -0.425919 0.436642 0.229778
279 1 3.02788 1.18977 2.57036 1.89659 0.827748 -0.252658
280 1 4.23875 4.18029 2.5506 0.0124128 -0.42443 0.0600052
281 1 5.5237 9.09278 4.44021 -0.711589 -0.0805316 1.05353
282 1 8.74368 9.18988 3.6428 -0.261939 0.367145 -0.148204
283 1 7.79316 8.10519 4.98956 -1.32662 1.01518 -0.55055
284 1 7.80998 6.73422 5.98268 0.426046 -0.51356 0.126735
285 1 4.26815 6.06227 2.08962 -0.333236 0.0802612 -0.281676
286 1 9.17008 1.71896 8.5903 -0.0325955 -0.0775599 1.22418
287 1 3.79452 9.36599 8.3385 -0.640426 1.10834 0.405503
288 1 1.84415 1.35021 9.3116 0.258275 -0.588965 0.142882
289 1 6.2138 1.10667 5.98056 0.654179 0.696473 -0.791031
290 1 0.9585 9.32992 7.42393 0.588475 1.05409 -0.220659
291 1 5.13982 1.79362 7.83298 0.393499 -0.129812 0.616454
292 1 1.50933 5.58416 7.54282 -2.17536 0.735509 -0.579638
293 1 2.4018 7.0287 4.72981 0.21256 -0.522162 -1.0355
294 1 9.24237 3.40198 7.61514 0.971006 -0.427438 0.239943
295 1 7.12008 5.83185 5.82474 -0.52494 0.0635333 1.22232
296 1 5.61758 7.02507 1.58931 -0.473711 -0.886014 -0.483622
297 1 3.12885 2.55248 0.588922 0.902931 0.0802825 1.71111
298 1 3.82364 5.63524 5.55662 0.0617046 -0.457476 0.888346
299 1 6.13199 6.59559 2.5513 -0.6291 1.27708 0.554077
300 1 7.15974 3.96394 3.03298 -1.82545 1.48211 -0.817696
301 1 9.1112 2.03282 5.89404 0.571915 0.360857 0.293219
302 1 1.03383 0.264084 3.96631 0.126587 -1.04317 -0.103986
303 1 0.0798724 9.26349 8.24798 0.399049 0.718003 0.804008
304 1 6.09292 4.06041 1.42298 0.0586466 1.70054 0.399602
305 1 4.92074 1.42957 0.391918 -0.573699 0.342163 -0.876885
306 1 0.266657 8.87785 3.98362 0.348065 0.813093 -0.11301
307 1 5.42156 9.12601 0.605642 0.846876 0.440652 1.08262
308 1 5.90668 0.147746 6.24266 -0.198475 0.00956485 -1.1781
309 1 8.65985 4.88399 7.75178 0.366857 0.42758 0.571875
310 1 3.04054 4.49748 7.19612 0.962811 -0.275109 0.607324
311 1 8.08393 7.65214 0.734471 -0.267494 0.103411 -0.12555
312 1 2.16289 6.25649 2.27342 0.884419 0.833907 -0.938964
313 1 5.61407 1.30019 2.28825 0.509702 0.570948 0.0137835
314 1 5.46786 6.01116 1.52486 0.191615 -0.205539 0.243689
315 1 5.74566 4.36833 6.64054 -0.958759 0.00240397 0.823363
316 1 2.32666 4.51454 3.36856 -0.273635 0.536579 -1.50847
317 1 9.15036 1.8315 3.74313 0.806079 -0.110824 0.499289
318 1 9.02009 6.54992 9.1802 0.392382 0.348923 -0.552189
319 1 3.53352 9.14105 6.58563 0.173939 -0.83595 0.126506
320 1 4.85698 6.58433 4.12149 0.0583478 0.310167 -0.993692
321 1 4.11976 2.89659 4.33182 -1.01943 -0.0193876 0.234722
322 1 0.245234 6.84852 6.68575 -0.218233 -0.752134 -0.411067
323 1 5.39329 0.0656409 3.19438 -1.4319 1.19541 1.05133
324 1 3.90182 3.968 9.1544 -0.685555 1.70208 0.00211613
325 1 3.31461 5.27789 1.26713 -0.254253 0.114812 1.0563
326 1 0.494565 9.26244 4.81622 0.145208 0.420662 -0.080883
327 1 5.24752 0.40513 9.27642 -0.736772 1.48919 0.593816
328 1 4.89441 2.56768 9.17002 -1.36321 -0.00401078 -0.891416
329 1 8.02505 2.52302 7.45797 1.79185 -0.466076 -0.127077
330 1 3.61955 9.37426 0.0644643 -1.29113 0.922449 0.128996
331 1 3.15059 2.06399 6.18108 -0.0383146 0.891185 0.667122
332 1 1.47773 2.08578 7.333 -0.282845 -0.442766 0.377894
333 1 7.04875 4.53602 1.97975 -0.254339 -0.10297 1.01984
334 1 2.58786 7.7671 6.16619 0.823168 0.315966 -0.776969
335 1 6.65329 3.42603 2.31369 0.475463 -0.863563 1.10245
336 1 0.605091 4.70151 4.36522 0.582159 -0.205707 0.226236
337 1 4.3427 8.3625 6.95895 -0.388736 0.739918 0.368128
338 1 8.36846 1.49912 7.62038 -0.0966483 -0.360035 -0.921148
339 1 0.129205 4.42598 7.99997 -0.74574 -0.347092 0.900384
340 1 1.14332 9.24285 2.99193 -0.580522 -0.131392 -0.23647
341 1 8.14356 1.82839 8.65117 -0.0361198 0.315086 -0.988296
342 1 5.23211 5.81211 2.55769 1.06223 0.109166 -0.312821
343 1 3.56466 5.68911 3.73114 0.451441 0.683053 1.02651
344 1 2.11288 8.80245 5.20982 0.773298 -0.118444 0.613426
345 1 4.23633 6.54882 5.70043 0.0608436 0.890914 -0.118358
346 1 6.8058 4.99782 0.289858 -0.102347 0.0600086 -0.311055
347 1 3.5427 2.61043 8.92895 -0.4039 -0.434927 -0.820468
348 1 7.29964 5.42042 6.96428 -0.0896517 0.139632 -0.5985
349 1 6.44024 3.22987 8.34129 0.630567 -1.11828 -0.556881
350 1 3.86437 5.00414 4.62534 0.130356 0.928618 0.416656
351 1 8.43387 6.48104 1.85938 1.28934 -0.282182 1.41299
352 1 0.999519 8.14205 5.90922 -0.150545 -1.08714 -0.248453
353 1 1.72756 1.79651 3.36343 0.679812 -0.119483 0.675325
354 1 2.18841 6.91557 9.14318 0.526637 -0.507165 1.22106
355 1 8.91978 6.29885 0.801239 -0.97313 -0.245745 -1.05056
356 1 5.74665 3.75842 7.48421 0.782765 -0.194038 -1.32602
357 1 9.21278 0.513361 9.30838 -0.938784 0.960307 0.481918
358 1 6.89329 7.34857 5.12048 1.44994 0.324804 1.39276
359 1 3.96595 4.82416 7.9894 0.938796 -0.550669 -0.160166
360 1 2.32325 3.54757 4.45401 0.782855 -0.359195 -0.0391444
361 1 3.95982 3.83215 5.34656 -0.323912 -0.501867 -0.967924
362 1 4.78523 2.46098 1.99521 0.516097 0.118513 0.208858
363 1 7.701 5.38172 1.77217 -0.31177 0.179612 -0.231104
364 1 1.52207 4.1557 6.44696 0.295446 -0.791148 0.336719
365 1 1.14936 1.73987 0.55025 -0.940784 0.28993 -0.0654754
366 1 6.40673 7.30965 3.39712 0.376843 -0.733326 1.0173
367 1 0.705533 4.46983 0.874235 -0.167141 -0.364484 -0.180939
368 1 2.72105 0.228213 4.60347 0.797192 -1.31772 0.0411391
369 1 7.92945 5.32151 8.54262 0.704375 0.697333 1.44414
370 1 6.13299 0.897721 8.81464 -0.614501 0.653361 1.03475
371 1 2.44735 5.41465 6.77619 -0.390626 2.11146 1.22807
372 1 1.52741 3.70704 7.63816 1.2501 -0.0329402 1.05776
373 1 5.9844 8.25938 0.455124 -0.943877 0.066235 0.20434
374 1 7.80773 5.07698 5.44025 -1.51099 -0.473784 -0.0245175
375 1 5.36346 6.62578 5.68697 -0.188801 0.67041 -0.373494
376 1 2.42757 1.19667 7.62033 -0.0212494 -0.880796 -0.656143
377 1 2.26639 8.54166 8.02281 -0.879931 0.0116178 0.0560912
378 1 6.8964 0.924504 2.52407 -0.972043 0.274074 -0.187647
379 1 7.116 5.12496 4.63266 -0.640891 -0.327321 0.443091
380 1 6.68563 4.89139 5.53913 0.640993 -0.959518 0.635855
381 1 3.16295 8.64004 1.45399 1.35761 1.10568 0.607742
382 1 7.13599 6.8641 4.21164 0.551882 -0.29366 0.181743
383 1 0.449661 9.05968 6.33775 -0.695572 -0.404588 -1.09188
384 1 2.92445 9.01387 3.7403 -0.542543 0.40666 -0.464619
385 1 4.01298 7.79004 0.129612 0.340279 -1.26231 -0.657134
386 1 0.760995 3.74661 5.92165 0.599643 -0.3561 -1.04738
387 1 0.176791 0.828561 4.13238 0.479086 0.226211 1.08486
388 1 8.19672 2.45889 0.652806 0.41787 -1.28475 0.52037
389 1 6.07762 2.96178 5.90482 0.0723855 -0.533035 -0.526599
390 1 2.87808 5.33587 2.91545 -0.284264 -0.331623 0.0633142
391 1 6.22249 0.0692066 9.38402 -1.2109 -0.308908 0.295499
392 1 5.2431 1.49673 1.40081 -1.1588 -0.0754806 0.00963585
393 1 1.28458 6.48449 9.1844 0.854931 0.19033 0.375499
394 1 8.2282 3.31927 1.35235 -0.326851 -0.58057 0.848277
395 1 1.37301 0.432638 2.08696 -0.688974 -0.0588675 0.26277
396 1 3.60219 2.68512 3.11046 -0.70902 -0.549175 0.46445
397 1 6.45685 3.18245 0.919877 -0.00893234 -0.795179 -0.692134
398 1 7.65032 4.76601 3.45867 0.275372 -0.941648 0.54622
399 1 7.80418 1.21177 2.19847 0.0777226 -0.410121 -0.576595
400 1 0.583514 6.92089 2.63875 0.307589 -0.205011 -0.497776
401 1 3.40522 1.93415 7.12899 0.28414 0.245184 -0.0193461
402 1 0.448642 6.01186 0.235564 0.293857 -0.69034 0.146733
403 1 2.44024 5.06764 0.777945 -0.245584 0.618118 0.491081
404 1 6.53071 6.08023 4.89635 -0.12272 -0.564257 0.139712
405 1 4.72384 4.80849 6.50777 -0.688393 -0.904483 -0.715051
406 1 7.5675 9.16889 0.452963 -0.237748 -1.13245 -0.318448
407 1 7.48131 0.16453 7.32123 0.586917 -0.57829 -1.44491
408 1 0.527672 3.25799 1.0362 -0.359069 -0.242234 0.0361967
409 1 4.20722 3.32142 6.20174 0.991358 -0.346068 -0.578885
410 1 0.607046 1.7443 5.632 -0.970381 0.227632 0.149358
411 1 7.50037 0.458253 5.05738 1.93725 -0.659534 -0.160514
412 1 0.234516 0.205091 3.29335 -0.169447 0.94647 0.345509
413 1 0.360567 6.78573 1.16887 0.399851 0.736539 0.463514
414 1 8.01228 0.87628 0.311433 0.991791 0.387916 -0.37512
415 1 9.13551 0.521725 1.55791 0.719936 1.8608 -0.657497
416 1 8.98219 2.67467 1.4054 0.854514 0.962311 -0.498051
417 1 9.12932 5.36109 4.30432 -0.76374 -0.514436 0.550848
418 1 4.33042 1.9426 4.6418 0.758313 0.410936 1.57922
419 1 5.82239 2.33953 2.10997 0.741006 0.924888 0.261635
420 1 8.77447 2.14778 4.76365 0.928355 -1.04619 -0.275247
421 1 5.35379 6.0718 4.84244 0.278094 -0.766831 0.0661552
422 1 9.22411 1.26428 5.09806 0.412701 -0.0242431 -0.558732
423 1 1.5509 4.0003 3.81708 -0.414816 0.646578 0.230192
424 1 4.56684 7.37715 3.65582 0.315688 -0.649501 -0.891176
425 1 2.29018 2.76847 6.26171 -0.30229 0.120665 0.895351
426 1 5.42162 0.372778 7.35013 -0.298297 0.0722547 0.027379
427 1 7.32836 3.28513 7.66359 0.507326 1.3627 0.369367
428 1 1.93595 7.96769 7.22056 -0.283413 -0.635663 -0.972312
429 1 6.27044 7.74916 2.43637 -0.216696 0.375038 -0.192153
430 1 5.18605 0.904482 6.41142 -0.744588 1.28099 -0.847876
431 1 9.16934 2.19673 7.3295 -0.0503715 0.00634844 0.42255
432 1 5.6056 7.23052 6.43985 -0.0541911 0.66138 -0.13984
433 1 2.48786 6.7743 5.80525 0.345748 -0.324698 0.867603
434 1 7.75074 8.38363 2.23169 -1.13749 0.183171 0.625119
435 1 0.987183 2.40799 2.31393 0.30828 0.555129 0.381181
436 1 -0.0531802 8.62764 0.290603 -1.58262 -0.938595 -0.338348
437 1 7.65784 7.2992 1.57396 0.789205 -0.32739 0.876479
438 1 0.47157 8.0534 8.77068 0.48968 0.749776 1.21403
439 1 3.70042 7.80801 3.17109 0.909422 0.706374 0.819099
440 1 7.97389 6.01219 2.68213 -1.37566 0.623442 0.223073
441 1 6.32973 2.65553 4.06373 1.24508 -0.410522 -0.219572
442 1 5.06164 2.74236 5.97975 0.220446 0.675353 -0.198737
443 1 3.09718 7.42394 9.25117 -0.272356 0.473457 0.0687915
444 1 1.31925 6.46126 4.82436 0.0381024 -0.414941 0.926324
445 1 5.55216 1.71495 8.9847 -0.912915 -0.622859 0.542151
446 1 7.69389 3.25512 6.66971 0.222491 0.635395 1.09096
447 1 1.66662 4.37638 2.61394 0.188749 -0.535911 0.141555
448 1 6.55656 6.5524 8.36407 -1.13056 0.636099 -0.212364
449 1 3.4963 1.07885 0.477742 0.281251 -0.968189 -0.509977
450 1 4.20887 5.99464 8.92704 -1.00409 -0.422439 -0.146628
451 1 5.24434 8.73669 7.35567 0.00640313 -0.375618 0.939241
452 1 4.43143 7.34586 6.51497 0.266477 0.661975 -1.33195
453 1 4.58057 8.60979 4.85417 -0.872394 -0.0406156 -0.218376
454 1 3.18869 8.66368 4.74293 0.269835 1.62664 0.351722
455 1 0.285495 5.12272 5.23088 -0.240792 0.205645 0.747006
456 1 8.07811 5.74182 6.19989 0.870568 0.436907 0.152094
457 1 5.18147 8.22195 1.03174 -0.564572 -0.807191 0.13154
458 1 3.74503 6.72042 3.66238 -0.00565135 0.2402 -0.730186
459 1 8.41275 4.41548 1.61685 0.130764 -0.517162 -0.580061
460 1 5.0223 2.93863 7.67614 -0.908927 0.826129 -0.580922
461 1 8.86906 3.98364 2.65331 -0.793892 -1.52021 -1.37487
462 1 1.4198 8.01822 1.34086 -0.301292 -1.95404 -0.346232
463 1 4.06088 2.00214 0.202546 0.336414 0.965529 -0.200795
464 1 0.314085 2.77893 8.34506 0.14121 -0.102132 0.227865
465 1 1.93545 8.61291 6.25984 1.11026 0.0683064 0.0643941
466 1 4.51531 0.477104 0.697654 0.463843 0.237362 0.27332
467 1 4.94823 2.45864 0.851275 -0.0537285 -0.267301 0.202577
468 1 7.11024 9.10461 4.51718 0.0500728 -0.866024 -0.139051
469 1 7.18203 3.47356 4.0108 0.325752 0.29334 0.408421
470 1 0.696543 2.75501 7.39659 0.52971 -0.389207 -0.536956
471 1 4.83339 9.2769 6.49226 -0.372673 -0.0451786 -0.324126
472 1 8.27488 4.09823 5.33395 -0.586234 1.32412 1.07342
473 1 6.32838 2.25761 8.72471 -0.213892 -0.19081 -0.236044
474 1 1.2839 7.1597 3.39998 1.44609 -1.3005 0.129513
475 1 3.37909 2.7778 7.85898 -0.322061 -0.12661 0.739589
476 1 0.462564 0.908527 8.57762 -0.147703 1.05979 -0.652983
477 1 1.18069 8.21661 8.01603 0.0933239 -0.530373 0.0783983
478 1 2.15585 0.930621 2.93567 -1.20448 0.231447 -1.23067
479 1 1.2856 3.7039 1.92127 0.192146 0.347291 1.65394
480 1 8.36657 8.90295 7.86904 -0.085872 1.27345 0.0989096
481 1 2.09878 7.6435 0.54284 -2.44363 -0.487412 0.556379
482 1 3.07544 5.5774 4.84314 0.409897 -0.0842899 -0.476489
483 1 4.89133 6.81173 2.1879 0.451869 -0.90694 0.417502
484 1 6.12707 1.46865 7.83669 0.470112 -0.074162 0.201104
485 1 5.94466 5.08488 9.19121 0.632224 0.651726 0.973222
486 1 0.251229 1.91156 2.79818 -0.0323193 1.79617 0.70123
487 1 0.404259 4.00336 3.57011 0.175953 1.19458 -0.689775
488 1 8.84026 6.56799 4.82408 -0.30452 -0.10881 -0.226331
489 1 3.1531 1.36951 1.5907 0.0698605 0.125458 -0.35007
490 1 5.30523 7.24164 4.71399 0.267163 -0.11992 0.544957
491 1 7.80397 7.92377 3.20837 -0.715447 0.22274 0.840757
492 1 0.953073 8.29014 0.329066 0.719801 -0.829667 0.412878
493 1 5.64117 8.6837 8.97789 0.672017 1.24908 0.161778
494 1 7.36299 2.41878 3.87211 -0.318086 0.651124 0.465529
495 1 3.77863 2.02198 2.16721 0.0199852 -1.07538 -1.63713
496 1 2.09806 1.10381 5.04474 -0.210069 -0.354307 -0.164686
497 1 2.19758 0.674056 8.59216 0.277337 0.549735 0.517995
498 1 8.40366 1.5187 1.15688 -0.2496 1.00883 0.136704
499 1 4.87457 3.20892 5.03474 0.879448 -0.296095 -0.80901
500 1 4.59474 6.46165 1.14526 -0.634298 -0.417745 -1.63898
501 1 4.87158 5.72027 5.93762 -0.437069 -0.722998 -0.589961
502 1 1.13528 3.36769 2.9609 -0.290845 -0.443308 -0.951657
503 1 3.98294 6.22055 4.56487 -0.779333 0.376151 0.696299
504 1 5.34895 8.0746 2.00277 -0.100038 1.27948 -0.939738
505 1 6.87596 5.16436 7.93868 0.214891 0.778235 -0.591218
506 1 2.85389 5.72416 5.9515 -0.809737 -0.767264 -0.532453
507 1 7.33706 7.33372 8.28117 -0.267887 0.623032 0.806772
508 1 3.50723 7.63668 0.964141 -0.640653 0.965987 -1.16656
509 1 8.70616 1.61449 0.192117 -0.782095 0.0730941 0.057455
510 1 3.27285 2.2938 4.01766 0.668417 -0.57759 -0.784049
511 1 6.58206 3.64391 6.70407 -0.534889 0.406244 0.312624
512 1 7.97868 6.85109 3.37354 1.3318 1.15453 1.02357
513 1 2.28195 7.22129 3.68823 0.0933479 0.54898 -0.308932
514 1 0.258669 6.25043 3.5022 0.300912 -0.714273 -0.210483