ITEM: TIMESTEP
9530000
ITEM: NUMBER OF ATOMS
1000
ITEM: BOX BOUNDS pp pp pp
0.0000000000000000e+00 9.4000000000000004e+00
0.0000000000000000e+00 9.4000000000000004e+00
0.0000000000000000e+00 9.4000000000000004e+00
ITEM: ATOMS id type x y z vx vy vz
1 1 0.61434 2.57082 6.52083 0.508207 -0.855957 1.00892
2 1 7.54849 2.54359 8.16965 -0.793592 1.13262 0.00321274
3 1 2.77287 4.91074 2.7163 -1.46153 0.598782 -0.158454
4 1 6.80145 7.45125 1.39226 -0.296648 -0.247399 0.823249
5 1 2.03513 8.79257 4.9615 0.370842 -0.831739 -0.129364
6 1 6.87588 0.631864 7.21616 -0.659064 -0.436067 0.408505
7 1 0.243162 8.71724 0.169108 -0.769644 -1.05126 0.338134
8 1 4.58504 2.28484 6.41513 -1.8045 -0.866688 -0.12327
9 1 3.00689 4.85576 4.72289 -1.61023 0.0483019 0.252326
10 1 8.67756 6.32874 8.17547 0.484222 0.684514 -0.726815
11 1 8.68131 0.697018 8.24168 -1.00027 -1.61477 -0.430991
12 1 6.96361 1.45238 2.04976 0.22616 0.304614 1.23659
13 1 0.0430527 2.79717 3.57122 0.927867 -0.0214103 -0.402201
14 1 3.30853 6.56168 0.269924 -0.588999 -0.641721 1.44812
15 1 0.331726 1.8919 9.3173 -1.10081 0.366779 -0.496171
16 1 2.73125 8.95523 5.92993 -1.44424 -0.68464 1.76383
17 1 9.00996 2.8257 6.93945 -1.213 -0.233636 -0.245305
18 1 0.259348 6.71622 0.338964 -0.109717 -0.111244 -1.01895
19 1 2.44151 2.16141 8.82489 -0.388444 -0.407613 -0.630932
20 1 6.73492 4.36058 7.48448 0.306892 1.17172 1.00392
21 1 2.08245 2.55456 3.26646 -0.524673 1.73947 0.109017
22 1 3.7506 2.97285 6.8995 -0.484482 0.81941 -0.711066
23 1 6.43362 2.69653 8.53122 0.210815 0.430537 -0.2223
24 1 3.99534 7.31229 8.03544 -1.05327 -0.362021 0.835461
25 1 6.54032 1.75516 6.82633 -1.60386 -0.33831 1.324
26 1 9.08154 6.53389 3.98715 0.507526 0.921707 0.941424
27 1 7.54722 8.67587 9.39984 0.0115887 0.391762 0.631843
28 1 3.75537 4.63982 5.31815 -1.03016 0.401612 -0.185961
29 1 0.813922 1.91529 7.34354 -2.00483 0.130443 0.226428
30 1 8.79815 1.40834 2.59557 0.860378 -0.588718 -0.148778
31 1 2.4264 5.97804 1.4225 -1.29905 -0.0395244 0.183693
32 1 4.79692 1.69791 4.91194 -0.442984 1.64223 0.253544
33 1 1.84197 2.65015 0.192025 0.362602 -0.386751 -0.981331
34 1 6.17165 8.14289 2.94848 0.187928 -0.34645 -0.811921
35 1 8.18462 8.85581 2.94417 -0.0159721 -1.01316 -0.857107
36 1 0.0386083 8.15072 1.07275 0.52789 -0.38207 -0.8366
37 1 7.71802 2.95331 2.41854 -0.235735 -0.598182 -0.102584
38 1 0.431606 0.0762216 3.68483 0.93895 0.0819781 0.99487
39 1 2.82234 8.35779 4.27506 -0.686783 0.356474 -0.278386
40 1 1.49838 1.51396 9.01134 0.160067 -0.188177 -0.844863
41 1 6.69082 8.25866 8.78108 1.42724 -0.257707 0.0914024
42 1 1.47719 8.13687 8.48778 0.106373 -0.630198 -0.17184
43 1 2.31178 2.48496 2.29363 -0.534054 -0.655533 -0.757358
44 1 4.19172 3.12405 5.87071 -0.00946649 0.431112 0.184298
45 1 5.92668 0.183445 7.58252 -0.551424 -0.137894 -0.427157
46 1 1.05674 5.64916 2.87004 -0.803751 0.283434 1.38429
47 1 3.75499 8.18098 8.67269 -0.476733 -0.870692 -0.44891
48 1 5.28863 4.53958 4.27951 0.216613 -0.0922363 0.503009
49 1 3.72577 4.19978 6.26364 0.246529 -1.85475 -0.29447
50 1 1.09583 1.3137 2.59956 -0.615072 1.65529 -1.01302
51 1 3.78343 6.13605 3.82883 0.362764 0.159357 -0.243123
52 1 5.09791 1.89166 0.633497 0.00342868 0.140972 -0.367045
53 1 6.09154 3.06214 4.53994 -0.478799 -1.2938 1.2794
54 1 7.71633 6.04903 8.60232 -0.17076 -0.0743698 0.251737
55 1 3.43207 3.69374 5.37491 1.15111 -0.0845141 -0.985035
56 1 1.43164 3.12201 5.26036 0.66181 0.829913 0.668589
57 1 0.628142 0.190134 7.42793 -1.06018 -0.119536 0.140605
58 1 6.39883 9.0037 0.0852345 -0.604161 0.121474 1.60663
59 1 8.53475 9.19782 3.78943 -0.813866 -0.282685 0.773531
60 1 1.6242 5.07156 9.22627 0.225255 0.34765 1.30372
61 1 5.21839 4.7356 2.19957 0.38807 1.04054 -0.749241
62 1 0.703953 1.03847 0.810471 0.0717371 -1.4039 -0.89071
63 1 5.31634 5.16708 8.66241 -0.251963 0.565187 0.493925
64 1 4.8992 6.70181 8.28535 0.409588 -0.307119 0.182073
65 1 3.5294 2.28349 8.62021 -0.998401 -0.156403 -0.634356
66 1 5.39356 4.19521 7.24139 -0.73788 0.0668179 -0.545753
67 1 4.12244 7.73352 2.69775 0.649256 1.0241 -0.144261
68 1 3.89583 6.50804 8.65301 0.978463 0.681478 0.311617
69 1 3.76604 4.57777 0.116573 0.310134 -0.0459246 -0.0833708
70 1 1.48585 4.87675 3.38772 -0.0406356 0.256282 0.783346
71 1 7.51809 5.09737 9.18105 0.687582 0.202831 -0.67945
72 1 5.68554 6.9975 9.05802 0.707104 0.882066 -0.508057
73 1 2.46684 8.38245 0.479682 -1.23864 -0.97743 -0.122433
74 1 6.42706 8.47553 7.72257 -0.0291228 0.0651743 1.86365
75 1 2.09227 1.44103 4.40835 0.363 -0.650452 0.387485
76 1 6.12856 2.07596 2.07653 -1.66946 -0.499054 1.63648
77 1 3.2166 2.56991 5.87502 -0.777153 0.319231 0.130707
78 1 1.44505 7.75001 1.85314 -0.515633 -0.175811 -0.947877
79 1 5.25689 8.74536 2.66458 0.315323 -0.42908 -0.00267195
80 1 7.85109 5.94422 5.57546 0.694211 -0.131437 -0.828402
81 1 3.21358 0.693546 4.52508 0.146411 0.06178 -0.158452
82 1 5.37016 0.317066 3.1762 0.715022 -0.278006 -0.971244
83 1 3.22436 8.43286 5.23248 0.28471 -0.422821 -0.494779
84 1 0.736646 7.47991 9.10261 0.177227 0.874133 -0.438817
85 1 2.46488 4.78311 1.50448 -0.390686 -0.915605 0.356808
86 1 5.72729 5.62227 0.344081 -1.1307 0.549805 -0.455763
87 1 7.46241 3.8798 4.96263 -1.66734 0.413983 -0.0435372
88 1 0.918616 7.36463 8.01974 -0.0982971 0.162395 0.246458
89 1 9.22601 4.88852 2.27394 -0.146752 -0.00954521 0.164196
90 1 6.03574 7.95517 4.058 0.454516 0.655118 0.580817
91 1 9.26548 5.65614 7.57904 -0.271154 0.179506 1.18963
92 1 0.0480978 7.52257 6.98793 -0.276032 -0.270756 -0.0947801
93 1 1.84542 7.68768 0.858448 0.0851576 0.109069 -0.221802
94 1 8.13174 7.40816 0.515267 -0.241866 0.067784 -1.04042
95 1 4.98374 5.69013 2.82605 -0.243759 0.500744 -0.393327
96 1 4.40669 8.69279 7.94213 -0.750113 -0.665428 -1.22064
97 1 4.28557 5.03508 1.74784 -0.203299 -1.02185 0.637139
98 1 7.993 7.96472 2.29979 0.357455 1.72296 -0.311601
99 1 1.40239 2.04799 5.64645 -0.0199252 0.107365 -0.217857
100 1 5.09591 1.25246 5.92442 0.00887945 -0.387596 -0.541278
101 1 3.14036 7.51916 2.18636 0.402217 -0.621893 -0.00439646
102 1 8.4113 8.91938 8.74754 0.207673 0.674418 -1.34387
103 1 2.11405 1.4612 2.34143 -0.817605 -0.918508 -0.0724112
104 1 1.57179 9.16202 0.475975 -1.23135 -0.43594 -0.065353
105 1 7.51759 9.20947 7.38193 -0.26101 -0.176278 -0.581633
106 1 5.21083 3.19493 6.06425 0.0398782 -0.145461 -0.785308
107 1 8.97305 9.0892 0.962279 0.819353 -0.26516 -0.787392
108 1 8.15692 9.19543 6.54183 1.59129 -0.579392 0.380738
109 1 5.63571 3.92352 2.75592 0.383605 -0.243313 -0.509901
110 1 0.239927 6.64472 6.35748 1.16787 -0.435717 -0.151768
111 1 1.28963 8.97319 6.8829 0.991183 0.0116007 -0.583183
112 1 4.38423 3.21425 3.24665 0.890857 0.244816 -1.34892
113 1 1.33506 5.52609 8.33082 -0.879704 0.293847 0.182953
114 1 3.26094 7.12467 3.97652 -0.818345 0.417393 -0.431803
115 1 4.16748 0.912589 5.31551 0.630081 -0.767078 0.607492
116 1 4.25959 6.34637 7.56269 0.977135 0.0979439 1.03378
117 1 6.85274 5.93114 7.89906 -0.670421 -2.03885 1.18088
118 1 7.80019 2.14077 0.611063 -0.749249 -0.227936 0.0495236
119 1 0.202825 5.69455 1.49491 -0.504457 0.226037 1.6513
120 1 5.31513 8.30728 4.84 1.73229 -0.0799555 -0.365864
121 1 5.15118 7.60681 6.62691 -0.441863 0.756353 0.644924
122 1 9.14108 1.17152 0.357696 0.235788 -0.368725 -0.669402
123 1 1.61721 3.86621 2.92385 0.329946 0.318186 0.812076
124 1 0.736649 7.33085 1.10384 -0.206843 -1.83457 0.486392
125 1 8.17135 3.40405 4.24444 0.444806 0.212945 0.469606
126 1 1.07911 3.43482 6.16393 0.341866 -0.263068 0.992654
127 1 1.76591 7.74571 4.6599 0.240112 -0.0893181 -0.713015
128 1 4.36956 0.86299 9.06039 0.093162 -0.586903 -0.392334
129 1 3.54233 6.36925 1.26821 -1.03261 -1.14392 -0.718074
130 1 2.77812 3.45814 7.43828 0.368147 -0.344809 0.119158
131 1 8.38533 0.452358 2.87314 1.43011 0.217265 0.820516
132 1 6.09891 5.13209 4.62932 0.302827 -1.04605 -1.43098
133 1 8.84699 6.16001 0.701759 -0.802279 0.688543 -1.36742
134 1 5.40024 1.57402 6.86997 -0.248433 -0.0930097 0.181516
135 1 6.09449 1.17651 7.62585 -0.270815 1.16752 1.00846
136 1 1.63918 0.452306 8.92913 -0.286245 -0.43018 1.10374
137 1 2.73355 5.54315 7.42701 -0.120941 0.414526 0.111912
138 1 5.50058 2.35614 9.04072 -0.813339 0.24589 1.26286
139 1 0.148513 8.52241 5.22952 -0.916924 0.257766 0.334918
140 1 1.54959 3.87224 4.01762 -0.164679 -0.532057 0.233878
141 1 2.75996 7.55238 7.33006 -0.0296701 -1.28731 0.940756
142 1 3.54138 2.12432 7.52814 -0.335357 0.0912276 -0.216323
143 1 3.42563 6.85704 6.92077 -0.444178 -0.0419214 -0.0995705
144 1 0.139302 5.80228 5.4656 -1.2524 0.236983 -0.103282
145 1 4.69459 4.83396 7.65559 -0.738636 -0.352374 0.294339
146 1 6.30794 9.301 1.82326 -0.0963446 0.468707 -0.349203
147 1 0.871686 8.18243 6.49773 0.465502 -0.190387 -0.0103762
148 1 6.49421 2.53251 7.51113 1.34187 -1.56961 0.052432
149 1 0.617702 8.21837 2.22958 1.37705 0.227006 0.570708
150 1 5.18626 8.56764 5.84405 0.803774 -0.327962 -0.854867
151 1 9.20638 8.40547 6.34929 0.846493 0.50523 0.656421
152 1 5.04366 0.00793202 1.18567 -0.675729 -0.145988 -0.627662
153 1 0.906415 5.83635 9.33271 0.207377 -0.947643 -0.813109
154 1 6.77481 6.79469 8.90386 1.27128 1.22509 -0.0224186
155 1 6.43405 8.10059 6.67847 -0.270981 0.409282 0.641402
156 1 3.49437 1.99851 0.830569 0.47181 -0.759517 -0.178956
157 1 7.23989 9.29901 6.1651 0.0947469 0.327677 0.0686481
158 1 4.36363 0.113137 6.89717 -1.39636 -0.12593 -0.229974
159 1 6.89694 7.41364 5.13284 -0.467414 -0.342773 -0.0475799
160 1 7.82745 1.68381 8.90717 -0.239072 1.41469 0.587522
161 1 8.43986 3.93479 1.01668 -0.781624 0.439552 0.707899
162 1 8.99401 3.27121 9.07398 0.817111 0.134899 0.0971836
163 1 8.5148 2.4759 8.47319 -0.233575 0.0335737 1.19806
164 1 4.42273 7.78247 5.93262 0.479848 -1.46164 -0.25992
165 1 0.575787 0.045067 0.806702 -0.174794 -0.488201 0.221496
166 1 8.72084 6.45301 5.93622 -1.10105 -1.11716 -0.446102
167 1 5.81603 8.75117 1.01645 0.655796 0.0952206 0.497833
168 1 6.00219 3.43799 1.03511 0.195997 -0.224218 -0.908917
169 1 3.57594 5.7191 5.68161 1.95533 -0.745217 0.940483
170 1 1.56824 7.392 7.19415 -0.66342 -0.483851 0.0185401
171 1 9.12322 3.8134 3.76784 0.561958 -0.17725 0.099457
172 1 4.90327 1.03974 1.41402 0.640116 0.403135 -1.30227
173 1 6.77092 6.71488 3.18402 -0.378317 0.550686 0.613704
174 1 2.52232 3.47249 3.60946 0.629481 -0.298819 -0.275473
175 1 4.45475 0.137344 0.373904 -1.51051 -0.139605 -0.00138533
176 1 0.675231 9.01541 5.95575 0.116939 -0.130067 0.773738
177 1 2.45963 9.33721 4.07316 0.237245 1.06262 1.2524
178 1 6.85009 7.22591 6.24771 -0.323535 -1.28207 -0.546356
179 1 5.35722 6.49392 0.801538 -0.0134436 0.409396 0.453839
180 1 3.28115 0.34056 6.37794 -0.0260504 -0.554462 -0.159907
181 1 8.63205 5.4243 1.41707 -0.264775 1.82799 -0.82166
182 1 6.02499 3.03922 2.41552 1.31147 -1.04649 0.349206
183 1 3.50686 8.22131 0.485173 0.359805 0.788444 0.286373
184 1 3.06571 3.18325 8.60275 -1.04322 -0.530024 0.836985
185 1 0.415128 3.84719 5.35054 0.335237 -1.00551 0.0525854
186 1 7.83575 7.22919 5.53999 -0.113652 0.289371 -1.14305
187 1 5.1016 2.46837 2.30221 0.591709 -0.207596 1.37768
188 1 0.565305 6.19429 4.63166 -0.0367473 -0.440964 -0.506752
189 1 1.86463 2.93356 4.2863 -1.07434 0.206425 0.457714
190 1 8.80771 4.21415 4.60102 0.650522 1.76265 0.720701
191 1 4.65444 3.67969 7.90885 0.775233 -1.08629 -0.420818
192 1 8.51904 4.94703 7.10241 0.743725 0.479849 0.587014
193 1 4.24337 8.63031 5.13631 0.101073 -1.49029 0.529025
194 1 3.49571 1.03733 7.35558 -0.28192 0.266257 1.46755
195 1 7.84594 9.2685 1.2459 1.543 -0.358314 -0.0702814
196 1 4.53472 8.47771 4.10477 0.654839 -0.0984671 0.475279
197 1 1.58001 5.93377 3.91009 -0.113362 -0.467578 0.24078
198 1 2.86153 3.50208 6.23957 0.220716 0.265779 1.05008
199 1 2.34813 7.62187 3.60073 -0.308804 0.911479 -1.63973
200 1 3.65453 9.10691 4.31353 0.0523625 0.16827 -1.17356
201 1 7.31957 7.5749 9.19058 -0.591063 0.42026 -0.380227
202 1 1.24499 2.21483 4.60919 -0.429894 0.281892 -0.578361
203 1 1.34205 6.51237 6.65514 0.384331 -0.279815 -0.517701
204 1 5.56493 4.27042 6.20498 -0.729654 0.739629 -0.202237
205 1 0.148151 6.65397 7.61673 -0.959182 -0.523941 -0.0731679
206 1 4.66127 1.1009 3.32654 0.49927 -0.23087 -0.664939
207 1 6.71737 0.59956 8.31126 -0.367422 -0.792381 -0.440839
208 1 7.78916 4.13316 5.90436 0.781154 0.482174 0.358289
209 1 6.07368 0.349471 0.891938 -0.544018 0.444342 0.550754
210 1 0.592339 4.77421 7.98343 -1.13446 -0.397864 1.17395
211 1 3.30243 3.14208 2.56924 1.24437 -0.107476 -0.841157
212 1 6.11562 7.19762 2.43542 0.0354474 -0.501737 0.906505
213 1 3.32233 9.35754 7.33105 1.09963 0.171422 0.682849
214 1 8.46859 4.87227 0.52178 -0.356082 -0.745642 0.914768
215 1 1.33598 7.36979 6.11871 -1.21465 -0.936023 1.06632
216 1 3.71466 3.08113 7.87589 0.790115 0.859235 -0.0137644
217 1 7.40832 2.32574 1.61672 -0.629536 -1.3709 -0.862702
218 1 4.37827 2.96748 1.10938 -0.571634 0.117129 0.997974
219 1 4.87907 4.98606 0.232892 -0.0302017 0.162792 -0.512745
220 1 8.13361 3.10532 0.295433 2.18692 0.121008 0.108013
221 1 1.06439 8.24667 7.55428 0.131506 0.296717 -1.6587
222 1 5.24973 3.59105 1.85897 0.721665 -0.38817 1.51548
223 1 1.03199 8.46097 1.05531 -1.1088 -1.13968 -0.175795
224 1 6.34749 5.69577 1.07949 0.492126 0.443099 0.319471
225 1 1.7434 5.04196 4.4422 -0.743602 1.16256 1.07921
226 1 8.58198 5.59002 9.11896 -0.255056 0.614848 -0.977597
227 1 3.82031 0.378298 1.2914 0.763115 0.87092 -1.80089
228 1 7.21535 4.92189 8.22622 1.04021 0.574231 0.238944
229 1 2.50273 0.67459 3.02971 0.261291 -0.764493 -0.176332
230 1 2.48258 0.154778 0.248478 0.526106 -0.0910155 -0.181244
231 1 1.20061 4.62203 6.67837 0.884659 -0.0202347 0.0468163
232 1 4.37452 5.60391 8.32638 0.499676 0.169925 1.04043
233 1 8.4626 7.33728 6.49692 1.22657 0.299478 1.96244
234 1 0.818491 2.94188 0.597014 -0.859782 -0.370207 -0.185717
235 1 8.0717 4.74998 5.12845 0.361247 0.531659 0.991698
236 1 2.78444 7.37198 0.47655 1.86924 -0.100762 -0.401422
237 1 7.58223 1.36431 6.88798 0.237208 0.396212 0.610701
238 1 5.79786 7.73796 8.31561 -0.468375 -0.634561 0.782663
239 1 2.21874 6.4481 7.30614 0.00650267 0.570229 1.13747
240 1 5.53956 0.184744 5.67245 0.476444 -0.776639 -0.233408
241 1 6.66667 5.72835 3.06922 -0.119105 0.406298 -1.6522
242 1 6.12104 3.58958 6.79165 -0.28244 -0.294485 0.48541
243 1 4.18313 8.79235 0.989489 1.06782 -0.434539 1.05862
244 1 6.75609 3.23791 1.73037 0.431332 0.041468 -0.240931
245 1 7.73385 2.78982 3.40885 0.558203 -0.23788 0.243747
246 1 1.09466 4.99887 0.720569 0.792225 -0.0535168 0.544749
247 1 8.12952 1.5878 1.50791 -0.199762 0.376657 0.558016
248 1 7.69958 6.64886 6.44615 -0.431458 0.242457 -1.50104
249 1 9.0477 4.62472 8.03545 0.197966 -1.0089 -0.936048
250 1 3.00369 9.02826 3.18408 -0.0120879 -0.368374 -0.028876
251 1 0.223371 0.818784 2.97693 -0.267862 0.219487 0.69032
252 1 5.17455 4.69295 3.22727 -1.23865 0.553145 -0.0629265
253 1 1.01498 5.29983 5.18432 0.564242 -0.855111 0.363035
254 1 8.17602 0.434938 4.57234 1.12769 0.540148 -0.281984
255 1 6.46029 6.99993 0.529962 -0.313004 -0.706561 0.985257
256 1 0.128689 4.61228 6.97749 -0.807983 0.616414 1.09971
257 1 2.69929 8.10312 8.49097 1.39444 0.77791 0.553967
258 1 4.24077 0.885252 4.31393 0.45578 -1.3963 1.0733
259 1 4.57978 4.79141 6.67931 -1.05549 -0.129197 1.53948
260 1 4.13781 0.33957 7.87265 0.698488 0.62708 -0.170084
261 1 7.08926 5.00318 0.705325 -1.30136 0.011992 -0.553193
262 1 3.31348 2.45943 1.78676 -0.660799 1.15813 -0.302823
263 1 6.62411 2.70956 6.39423 1.20303 0.232199 -0.189189
264 1 6.7452 5.71176 5.26482 0.369673 1.00659 -1.0239
265 1 6.36265 4.10589 4.69392 0.318488 1.29248 -0.068749
266 1 7.7797 5.5698 4.5535 -0.372691 0.331159 -1.06257
267 1 2.78837 0.803351 1.99394 0.25543 -0.0843711 -1.27593
268 1 5.5 2.64663 7.98638 -0.277205 0.678194 0.355942
269 1 2.18022 3.76221 8.32904 0.575151 0.545852 -0.262975
270 1 8.54926 9.10625 7.49689 -0.781744 0.833654 -0.185484
271 1 1.13287 1.96413 0.680254 0.611674 -1.13415 1.7483
272 1 5.79851 2.13238 6.09312 1.00873 0.245063 0.321375
273 1 8.15753 4.49364 3.87165 1.44954 -0.174842 0.973115
274 1 6.0129 6.78454 8.04917 -0.199308 -0.193678 -0.253536
275 1 3.15047 6.56343 7.88591 -0.177528 -0.400408 0.0523673
276 1 0.191874 7.27766 1.95932 -0.220206 1.15832 -0.0946314
277 1 7.19043 3.81656 3.8411 -0.556975 1.13419 0.0381846
278 1 2.77564 2.60236 6.85236 0.149526 0.208391 -0.884481
279 1 1.34315 0.10312 1.45197 0.813634 0.82405 -0.256465
280 1 5.48699 3.95287 0.204555 0.394528 -0.481015 0.0888811
281 1 5.66853 7.29265 4.87263 -0.150039 0.846774 0.959165
282 1 4.32912 0.0569062 3.67444 0.0885852 -0.623017 0.230015
283 1 8.43352 7.2944 3.62452 -0.18849 -0.736632 0.318419
284 1 5.47788 8.50451 7.50091 -0.158829 0.984241 -0.856886
285 1 4.22891 4.15813 3.86228 -1.02222 0.144784 0.83082
286 1 9.2309 9.37051 6.71594 -1.1789 -0.414031 0.202503
287 1 3.34459 7.6768 6.01355 0.0225492 -0.163441 0.551035
288 1 1.65241 2.4109 1.45043 -0.223358 -0.950367 -0.0291727
289 1 6.53778 2.95572 3.56905 0.928119 0.547356 0.904723
290 1 1.21984 8.26386 5.4242 -0.537146 -1.20189 0.361197
291 1 2.26804 9.26738 7.04999 0.919708 -0.867639 0.763511
292 1 1.3276 4.22116 4.99621 -1.47827 0.394625 -0.402002
293 1 4.23756 8.68071 3.0433 -0.554119 0.446235 0.495587
294 1 2.6602 5.65976 9.19833 -0.809773 0.69489 0.0517878
295 1 4.61533 3.74838 6.71766 0.0149264 0.229056 1.37764
296 1 5.28445 5.78332 7.73132 -0.580685 0.156733 0.0708517
297 1 0.342508 3.8594 8.55364 -0.906089 0.674615 -0.655049
298 1 2.3818 7.13459 6.4671 0.842918 0.0314134 -1.10869
299 1 5.22496 6.62688 2.08228 -1.1107 0.276696 -1.11156
300 1 7.39563 4.5209 3.12363 0.0538849 -0.532447 -0.443984
301 1 8.98832 1.47518 6.10328 0.291872 0.182783 0.0871549
302 1 7.27358 9.11145 4.54528 0.982143 0.494879 -0.57549
303 1 2.13042 7.23385 8.12239 0.5039 0.307942 0.557961
304 1 6.6048 2.07406 4.25143 0.366359 0.745035 0.622969
305 1 3.00712 0.935098 0.809604 -0.297771 -1.16699 1.17219
306 1 8.94386 8.11164 3.43109 0.277842 0.355607 -0.430662
307 1 5.00017 8.29067 1.5074 1.045 -0.466059 -0.267985
308 1 5.20935 0.788048 4.79894 -0.0240832 -1.81899 -0.901374
309 1 1.81249 3.51445 6.87578 -0.0420851 0.786431 -0.450151
310 1 2.00093 1.17964 5.42454 -0.503418 0.0087213 1.1587
311 1 6.12046 1.36228 1.23969 -0.901444 0.0891576 0.349384
312 1 -0.00871766 3.82242 1.68842 -0.862675 -0.437607 1.79262
313 1 7.73921 3.35003 1.45543 -0.954162 -0.167387 0.110136
314 1 4.82657 4.32965 8.74721 0.857627 -0.073769 -0.534052
315 1 3.18813 5.0082 6.6205 -0.811031 1.28472 -0.193914
316 1 2.82475 1.37661 3.71918 -0.282369 -0.841749 -0.613919
317 1 0.662906 2.93399 7.75396 -0.402404 1.03326 -0.589349
318 1 0.36234 6.57286 8.59876 -0.27891 -0.981536 2.13805
319 1 3.90377 7.83295 6.90214 0.029584 -0.721091 -1.48453
320 1 6.06282 0.190473 4.00085 -0.0969828 0.612678 -0.397022
321 1 3.413 5.0163 3.65704 -0.613404 1.16876 -0.680573
322 1 0.302146 8.26747 8.55354 -0.43998 0.615143 -0.546605
323 1 4.93497 7.87326 3.26908 0.132799 -0.712346 -0.891269
324 1 6.14402 4.65935 0.822267 0.0730384 0.49139 0.0947423
325 1 6.26789 4.86644 2.65743 -0.347981 0.61147 1.51119
326 1 0.692277 9.03411 4.57381 -0.600335 0.825239 0.143512
327 1 4.93567 7.4808 0.303733 0.191887 -0.570319 -0.61525
328 1 3.46074 3.57116 0.374876 -0.237969 -0.345442 0.65348
329 1 0.715039 3.55567 3.32802 0.0145072 0.876295 1.07734
330 1 3.04905 2.70714 0.155698 0.0154453 0.999192 0.505616
331 1 5.03809 1.78297 7.98313 0.601709 0.514224 0.112296
332 1 1.52602 2.59904 8.5359 -0.787075 0.490121 1.32066
333 1 5.8839 5.77857 2.11631 0.480309 0.314979 -1.41836
334 1 4.10338 5.76637 6.56628 0.20443 -0.198297 0.369503
335 1 5.11167 2.91113 0.402947 -1.18978 1.59077 0.615813
336 1 8.57928 3.68696 5.45187 0.411318 -0.952025 -0.365166
337 1 4.85266 7.71967 7.68616 -1.00786 0.357372 -0.340868
338 1 8.59534 1.87394 6.9842 0.974872 0.135155 -1.27287
339 1 8.72836 5.26043 5.71037 -0.129275 0.557571 -0.343558
340 1 7.69927 7.20086 2.88889 0.136991 2.01906 -0.0725225
341 1 8.44761 8.45192 0.316762 -1.00211 0.319075 -0.252089
342 1 4.95305 6.03771 9.10661 -1.18648 -1.37289 0.205363
343 1 2.40513 4.55478 3.77645 1.29339 0.648099 0.223939
344 1 5.00539 9.29709 4.40763 -0.252723 -0.434456 -1.24183
345 1 7.26151 6.53607 4.78773 0.178855 0.124077 -1.14919
346 1 0.10163 4.67017 1.2063 0.350003 0.61482 -1.17081
347 1 3.4487 3.43593 1.51039 -0.911558 0.831469 -0.0941851
348 1 7.10056 3.66998 8.2455 -0.964628 -0.587468 1.64435
349 1 6.7221 3.99491 9.40283 -0.396985 -0.13893 0.336894
350 1 4.87953 6.27023 3.93706 0.639802 -0.329899 0.147198
351 1 7.03553 3.1699 0.633447 0.766782 -0.921077 0.128736
352 1 4.70432 7.68548 8.68461 0.159718 -0.780125 0.259153
353 1 1.82402 1.52087 3.37162 -0.0202136 0.710362 0.390759
354 1 0.972882 9.08253 8.9144 -0.212791 -0.682114 0.444498
355 1 0.672909 4.78622 9.097 -0.242603 -0.386462 -0.554765
356 1 2.79438 4.48504 7.58532 0.228225 -0.470974 1.28
357 1 8.6011 9.14069 1.91577 -0.485371 0.760273 0.956785
358 1 5.6767 6.50902 3.00525 -0.425893 0.190184 0.0816526
359 1 2.64875 2.52425 7.9344 0.678871 0.648386 -0.822101
360 1 3.33975 3.7834 4.23709 0.228165 -0.259503 0.029201
361 1 1.28753 2.36926 2.52019 -0.276786 -0.0932727 -1.34751
362 1 5.85282 3.85915 3.7617 0.389567 -0.0158045 0.633634
363 1 7.85087 5.79059 0.601431 1.10994 0.462755 0.615741
364 1 1.87903 1.78448 7.93564 -0.201659 -1.2625 -0.256745
365 1 1.40647 3.48809 9.1976 -0.016679 1.16336 0.786477
366 1 5.86598 6.82153 6.387 1.50205 0.0919845 0.391802
367 1 1.45885 4.34219 1.55296 0.0675806 -0.872627 0.234696
368 1 1.57834 8.08588 2.95486 1.14642 0.546768 0.133942
369 1 6.27625 4.34621 8.446 0.638511 -0.236453 0.204774
370 1 5.48238 2.49051 1.36443 -0.485846 -0.567492 0.295542
371 1 0.780252 6.47526 3.58093 -0.952906 0.64558 -0.107174
372 1 2.29502 4.50728 6.69205 0.29825 0.843525 -0.144087
373 1 5.4066 9.12226 0.160839 -0.139725 -0.21971 0.12206
374 1 7.62349 6.49015 3.81624 0.601885 -0.0684191 0.760632
375 1 5.07839 6.09192 6.45579 0.625859 0.312838 0.669971
376 1 3.47486 1.49101 9.25647 -0.467479 0.244546 -0.546212
377 1 1.48219 6.61642 8.71581 -0.223567 -0.181837 -0.376368
378 1 5.31247 0.271498 2.15272 -0.240111 0.691252 -0.786165
379 1 8.19332 5.70701 6.59769 0.274282 0.396381 0.976925
380 1 7.84404 5.18016 2.23534 0.19361 0.299363 0.077558
381 1 1.73055 0.941122 0.455762 1.46396 -0.559326 0.836956
382 1 7.56743 6.14024 2.78168 -0.785898 -0.342263 -0.971725
383 1 8.28116 5.28636 8.15895 0.5019 0.211485 -0.564388
384 1 6.0054 8.18443 1.9242 -0.6787 -0.407775 -0.00899244
385 1 4.18941 9.28499 8.80226 -0.0861415 -0.265974 -0.260341
386 1 9.10142 1.75547 3.5611 -0.344348 0.100426 0.64147
387 1 8.99155 0.770843 3.89309 0.25323 -0.397566 -0.56168
388 1 8.99277 1.55106 8.6862 0.702511 0.12212 0.0265745
389 1 6.25005 3.56052 5.76271 -1.29898 0.648794 -0.581709
390 1 3.08471 6.46626 2.25919 -0.444675 0.673579 -0.0290881
391 1 4.01271 1.39365 8.28533 -0.903697 -1.16425 -0.118894
392 1 8.9111 2.02081 5.15885 0.941519 0.0462954 -1.29017
393 1 2.03069 7.55512 9.1699 1.2406 0.388074 0.151325
394 1 9.28612 4.17266 0.18038 -0.43927 0.155955 -0.302122
395 1 9.03981 9.32218 4.67369 -1.1923 0.283029 -1.10527
396 1 3.60712 2.89083 4.80919 0.991507 -0.334714 0.923287
397 1 4.47904 3.83914 0.467127 1.91754 -1.4167 0.445389
398 1 8.74747 5.72655 2.39932 -0.399454 -0.344568 0.264923
399 1 9.21846 3.93587 2.76431 -0.078399 1.08569 -0.937663
400 1 6.96017 7.85353 2.4385 0.436216 -0.159852 -0.689283
401 1 3.57792 1.91994 6.54281 -1.26669 -0.673669 -0.275585
402 1 0.708503 1.37483 3.78817 -0.438561 0.219455 -0.938851
403 1 1.63266 6.74195 1.51815 0.170588 0.455858 -0.794463
404 1 6.35648 6.59611 5.39987 0.253405 0.268967 -1.0376
405 1 2.68887 1.6596 7.10148 0.528918 0.741683 -0.39593
406 1 4.4647 2.06253 1.48702 -0.327539 0.0744083 -0.437901
407 1 5.42424 1.42831 2.53859 -0.242134 -0.135513 -0.876046
408 1 0.857967 2.97821 1.62926 -0.320974 -0.366442 -0.802162
409 1 4.23358 3.80979 4.82916 0.91478 -0.0722278 -0.368586
410 1 0.176339 2.24084 4.40908 0.551987 -0.04787 -0.613847
411 1 5.47929 1.43426 3.84309 -0.400208 0.804653 0.26126
412 1 7.06225 1.59789 5.13152 -0.452531 0.357795 -0.636174
413 1 1.25656 8.25626 0.0683784 -0.927496 -0.316939 -0.0703492
414 1 7.41261 2.09058 6.07565 -0.575151 -0.517066 -0.225327
415 1 1.69877 3.35587 1.05064 -0.95721 -0.68942 0.152654
416 1 7.15807 1.39669 0.87547 -0.0980501 -0.303109 -0.827929
417 1 1.00879 6.46551 5.62669 1.88201 -0.142551 0.217124
418 1 4.38596 0.84088 2.35508 -1.02942 0.29856 0.333365
419 1 7.15612 3.00989 4.53615 1.0509 -0.354114 0.379844
420 1 1.19313 1.1833 4.70788 0.122698 -0.671656 0.607023
421 1 5.99646 7.75266 5.77182 0.39347 0.760434 -0.0979982
422 1 4.77948 2.81551 5.03262 -0.327173 -1.89237 -0.201204
423 1 0.226971 3.01111 2.53697 1.75899 -0.143113 -0.290512
424 1 6.27346 0.0894198 4.93267 0.991784 0.743388 -0.101558
425 1 2.75739 2.36939 4.08188 -0.487601 0.934895 -0.914568
426 1 7.80872 0.561383 8.849 1.29366 0.526787 0.588213
427 1 7.62351 5.4191 7.41121 0.835509 -0.779456 0.00729356
428 1 3.39901 8.30896 7.71777 0.207734 -0.457229 -0.049861
429 1 5.83807 7.69923 0.925439 0.00545229 -0.52115 0.88216
430 1 4.58783 7.46457 4.89308 0.235758 0.0834068 -1.05467
431 1 8.05365 1.54993 5.41207 0.521075 0.959223 -0.98065
432 1 4.10074 1.03501 6.37815 0.21723 -0.460155 0.366671
433 1 4.59748 8.54495 6.71819 1.31062 -0.172022 -0.0517646
434 1 6.13366 6.62676 1.52614 -0.957369 -0.255636 -0.560701
435 1 0.364156 1.99323 2.84956 -0.0132282 0.684512 0.0827389
436 1 9.22999 1.28246 1.49531 0.0623502 1.07761 0.191552
437 1 8.77707 7.35905 2.64842 -1.45987 0.479163 -1.05509
438 1 8.25057 0.103278 0.283341 0.096473 0.381456 0.096779
439 1 4.4971 6.17476 1.33676 0.522684 0.246304 -0.0859022
440 1 8.43544 4.8001 2.91417 0.824105 0.383791 -1.02649
441 1 5.9772 2.13271 3.13123 0.574364 0.548114 -0.509032
442 1 5.56113 2.66767 6.97584 0.136205 0.263898 0.274418
443 1 4.33468 6.61234 0.486683 0.929619 0.887033 -0.0173117
444 1 9.24737 5.55804 6.55129 0.287341 -0.407055 0.190203
445 1 5.23733 0.867894 0.484167 -0.460698 0.0670874 0.921336
446 1 7.14042 3.48821 6.9796 -0.196979 -1.05862 -0.542652
447 1 3.35842 5.76668 2.93796 0.948503 -0.72122 0.847217
448 1 6.85651 7.47259 8.08975 0.283517 0.470871 0.0505632
449 1 9.18977 0.270507 9.28421 0.623975 -0.631293 0.634065
450 1 3.01299 4.23852 8.8271 -1.17476 -0.869482 0.958573
451 1 7.24994 9.11556 8.35179 0.365575 0.171692 -0.24564
452 1 5.97833 7.51039 7.31188 0.251431 -1.33832 -0.366495
453 1 4.01773 8.03022 1.65779 0.551785 0.477757 -1.12015
454 1 5.21702 6.72021 7.23902 -0.459585 0.377645 -0.93474
455 1 7.44713 5.2307 6.11989 0.248854 1.41941 -0.267732
456 1 8.39155 6.78376 4.75261 0.0202336 -0.423829 -0.951692
457 1 4.38898 9.01959 1.93131 0.113597 -0.424935 -0.271803
458 1 0.795382 6.35596 2.10785 -0.791483 1.19372 1.36647
459 1 8.8139 6.49469 1.77299 0.959398 -0.778725 -0.369941
460 1 6.98942 1.1914 9.13093 -0.115984 -0.415386 -0.177272
461 1 0.0724816 5.73249 3.21999 0.325629 1.04519 0.245624
462 1 2.59927 9.19311 2.11207 0.584585 0.415638 -0.967346
463 1 1.63068 1.15207 1.49369 -0.556045 -0.42081 -0.0018691
464 1 9.30971 3.27672 6.07806 -0.993572 0.601096 -0.382192
465 1 8.40668 8.15332 7.05141 -0.553574 0.472397 -0.569321
466 1 7.11031 0.139963 2.39421 -0.943899 0.189128 -0.491791
467 1 6.12988 3.04977 0.109418 0.917418 -0.839694 0.486482
468 1 7.24706 1.12028 4.21245 -1.13384 -0.134614 0.199783
469 1 0.474933 2.64826 5.32629 0.507214 -0.882652 -0.242885
470 1 1.21937 0.929142 8.04757 -0.619964 0.39617 -0.230709
471 1 3.70467 8.71586 6.1378 -0.851793 1.27637 0.37915
472 1 4.52679 5.36428 5.58046 -0.354953 -0.617783 -0.322229
473 1 8.33823 4.48602 8.91994 -0.0986342 0.492907 -0.404581
474 1 4.56261 8.37018 0.0851611 0.375944 0.481502 0.0365594
475 1 3.27099 0.503141 8.45351 -0.83604 -0.688786 -0.21916
476 1 0.216227 1.07373 8.01043 -0.0636537 -1.11577 -0.263144
477 1 7.56289 8.26597 7.80668 -0.529471 -0.448765 -0.467445
478 1 0.333033 0.691344 4.62692 0.0702197 -0.631474 1.11167
479 1 1.7657 4.32341 0.547477 0.857287 1.11531 -0.215012
480 1 6.11491 6.12794 7.14811 0.0474263 -0.861352 -0.730223
481 1 3.64625 7.38432 1.03175 -0.386974 -0.891949 -0.010875
482 1 5.68451 5.52229 3.62334 -0.453472 1.56858 1.28007
483 1 5.21231 5.41964 1.2426 -0.0505402 -1.0016 -0.0424759
484 1 7.67606 4.13478 0.363153 -0.853679 0.112386 -1.03786
485 1 7.61387 6.59844 0.0195209 -0.789432 -0.766627 0.447047
486 1 0.458419 4.7085 3.13796 -1.33288 1.67788 -0.647768
487 1 0.0619969 5.02211 4.75412 -0.705351 0.786564 -0.288734
488 1 7.16405 4.72497 4.33998 0.540785 -0.833182 1.3447
489 1 9.12993 0.562347 2.16374 -0.120505 1.16761 -0.320425
490 1 8.58471 5.65846 3.76124 -0.0223522 -0.0617286 0.157141
491 1 6.50689 7.01339 4.17093 -0.0791574 0.535617 0.530941
492 1 8.99814 7.22137 1.0092 -1.74703 1.02164 0.333443
493 1 7.15876 6.44331 1.12732 -0.0898584 0.0154872 0.434439
494 1 5.30998 3.70535 5.06392 -0.0371253 1.70029 0.878508
495 1 3.43878 4.31196 2.22493 -0.448507 -2.27845 -0.298281
496 1 4.08044 5.03795 2.78951 -0.739843 0.324084 -0.231271
497 1 8.65654 6.68718 9.17762 -0.0983974 1.04526 0.268365
498 1 8.18681 1.65247 7.94958 -0.0105603 -1.08424 0.821061
499 1 4.321 2.50784 4.15068 0.258134 -1.53804 0.205571
500 1 6.82122 5.96636 0.227857 -1.83192 0.45564 -0.449924
501 1 6.74375 6.10683 6.27524 -0.523504 -0.588236 -0.958109
502 1 8.3611 4.13704 2.07929 0.423039 0.469109 1.0403
503 1 3.97579 6.90094 5.49233 1.43689 -0.55395 -0.0229287
504 1 4.67123 6.86909 2.95126 -0.0841087 0.30169 0.849126
505 1 8.08376 3.48223 8.72975 -0.71565 0.535768 0.530882
506 1 2.0521 6.13764 6.00116 0.40696 -1.11066 -0.762655
507 1 7.42277 8.38239 6.83699 1.23478 -0.9857 0.10394
508 1 4.17491 5.95819 2.25721 -0.0449185 0.348189 -0.590291
509 1 4.50968 1.92106 9.10746 -0.359935 -0.59064 0.745521
510 1 6.14418 4.06055 1.91089 0.393843 -0.0315124 1.03138
511 1 5.03212 0.716253 7.42754 -0.101266 -0.4925 -0.641583
512 1 -0.0173293 5.33055 0.322788 -0.705849 -0.368052 0.750169
513 1 0.766884 9.40025 2.63172 0.894906 0.73783 -0.714779
514 1 0.76043 5.27999 4.04679 0.875377 0.365886 -0.672393