ITEM: TIMESTEP
29710000
ITEM: NUMBER OF ATOMS
1000
ITEM: BOX BOUNDS pp pp pp
0.0000000000000000e+00 9.4000000000000004e+00
0.0000000000000000e+00 9.4000000000000004e+00
0.0000000000000000e+00 9.4000000000000004e+00
ITEM: ATOMS id type x y z vx vy vz
1 1 0.924747 4.36539 9.22165 1.18699 0.00114427 -0.654012
2 1 7.07513 5.88022 0.98014 -0.673351 0.23643 -0.901783
3 1 3.47688 4.59702 2.23714 -0.0873649 -0.66681 -1.15447
4 1 8.08472 7.74218 7.87969 1.4263 -0.808381 -1.10892
5 1 2.0359 0.504242 3.77631 -0.839264 0.739926 -1.97249
6 1 6.34559 8.93326 8.19484 0.907837 -0.823144 0.349746
7 1 0.227056 7.05644 0.369769 1.23834 0.420875 0.682503
8 1 4.30242 9.32788 5.76564 0.785178 1.02859 -0.228445
9 1 3.07204 5.48338 5.51422 -1.94428 -0.815344 0.732824
10 1 9.25244 8.68471 9.28435 0.126592 -0.259937 -1.19172
11 1 7.50879 0.628718 6.56891 0.0667198 -0.689554 -0.459918
12 1 0.502035 1.36428 1.52871 0.469274 1.10947 -0.00653391
13 1 1.62853 2.65346 0.741257 0.261806 -0.13684 -0.043069
14 1 3.95846 5.00953 2.9753 0.338876 0.0234114 -0.116375
15 1 6.84921 2.85793 0.0431424 0.142012 0.886417 1.2753
16 1 1.17281 0.487649 5.51504 -1.6624 -0.508756 -0.625311
17 1 8.66951 2.66186 0.590778 0.622902 0.437504 0.37542
18 1 6.44222 7.16624 8.91264 -0.221209 1.21323 -0.839114
19 1 4.00502 3.81012 8.93471 -0.299309 -0.713816 0.419824
20 1 6.46289 4.97981 6.847 -0.675276 -0.158175 -0.0124948
21 1 8.71552 2.62969 3.23822 0.023423 -0.658415 -0.870156
22 1 3.37267 2.73688 6.49506 -0.181891 -0.0666894 -1.06248
23 1 4.9994 1.1166 0.0978871 1.23324 -0.777689 -1.4327
24 1 2.32573 3.18083 6.87879 -0.91822 -0.573243 0.5109
25 1 6.74441 0.624372 8.17061 0.0697907 -0.1447 0.11285
26 1 0.64224 4.17925 2.63136 -0.308123 -0.799894 0.359946
27 1 0.310335 7.36169 1.53756 1.11048 0.6137 0.268424
28 1 3.7988 3.63827 4.38435 0.262242 0.457539 -0.48479
29 1 0.839886 2.94906 5.90257 0.0983824 0.560471 1.79378
30 1 0.775507 2.09258 5.27345 0.201454 -0.164643 -0.117628
31 1 2.71692 3.80012 1.86344 -0.364358 -1.19783 0.657926
32 1 6.06888 7.129 5.68443 0.538161 -0.484092 -0.411608
33 1 1.71418 0.554992 7.45063 -0.00324287 -1.03956 -0.0165461
34 1 6.59531 9.3149 3.08693 -0.041511 0.0681525 0.489162
35 1 8.75282 1.49212 3.0565 0.0766532 -1.64902 0.651988
36 1 3.20377 7.7594 2.02332 -0.455702 0.210662 1.31613
37 1 5.48361 1.53725 0.930958 -1.12053 -0.567583 0.278597
38 1 2.51986 6.95435 4.33935 0.165235 0.976489 -1.14765
39 1 0.855068 1.17847 6.9898 -0.186869 -0.0791869 0.914339
40 1 7.59558 1.33739 0.0934247 -0.410526 0.320557 -1.15134
41 1 8.88006 6.70504 6.52028 -0.458015 -0.851648 0.598779
42 1 1.89326 8.80089 4.13326 0.313608 0.0922022 -0.58035
43 1 1.1384 2.07917 8.43825 0.451345 -0.0901353 -0.364237
44 1 3.42115 3.48379 5.30568 0.0820337 0.135417 -0.679423
45 1 5.28526 2.32315 5.63521 -0.505387 0.154363 -0.512653
46 1 3.31086 4.4795 5.16123 -0.498885 0.0854427 1.62216
47 1 1.57337 6.30511 8.35353 1.56209 -1.47828 1.43028
48 1 5.57762 4.90528 3.15147 -0.751255 -0.870827 -1.09087
49 1 3.75368 4.11544 6.89204 -0.259481 -0.741929 1.03572
50 1 0.978411 9.05116 3.21813 0.365776 -0.28681 -0.105137
51 1 2.7149 5.98259 4.24683 -0.667394 -0.271394 0.536804
52 1 3.44208 1.25004 1.2741 0.196943 -0.288169 -0.612053
53 1 4.45986 2.7465 4.13545 -1.06362 0.191224 0.536954
54 1 6.63768 8.13757 8.79403 0.680523 -0.0720193 -0.300408
55 1 1.31318 5.80034 7.04858 1.6237 -0.240721 -0.15447
56 1 0.976654 5.47124 9.14727 -1.16735 0.930331 0.706092
57 1 8.66946 0.654386 7.36056 0.52506 -1.8487 0.557143
58 1 7.4274 8.40317 8.1386 -0.0676031 0.960377 0.649559
59 1 8.91262 9.00805 5.60009 0.338352 -1.43748 -0.982183
60 1 1.68628 8.40166 1.17009 -0.801791 0.00627795 0.655189
61 1 4.65547 2.41822 3.06313 -0.920579 0.71459 1.94702
62 1 0.705644 0.0988394 9.15473 1.09458 -0.78884 -0.696338
63 1 8.02977 8.67727 7.17221 -0.765151 -0.363312 0.203508
64 1 8.05352 6.98775 0.0122679 -0.631685 0.120497 0.152001
65 1 7.33653 1.61988 5.07499 -0.640001 -0.999215 -0.17541
66 1 3.22501 5.84497 7.12562 -0.138071 -0.698622 0.417872
67 1 2.17824 0.714573 2.31318 0.138165 -1.04682 0.415618
68 1 3.9907 6.29304 0.55219 0.684406 0.498884 1.28075
69 1 5.34312 3.96449 2.58866 -1.18571 1.09749 0.814003
70 1 7.98624 4.00045 4.08601 0.784128 0.361104 -0.585148
71 1 8.17801 4.22556 0.527563 0.120195 0.415251 1.11964
72 1 7.75128 8.26629 5.67301 -0.215361 -0.204865 -0.233966
73 1 3.90244 5.8136 6.21498 -0.409729 0.450894 -0.541028
74 1 7.58396 8.94775 4.60912 1.07488 0.670505 0.144636
75 1 7.68139 0.695002 8.71803 0.519459 -0.170941 1.15311
76 1 6.58414 2.28663 1.22906 0.545359 0.111216 0.178911
77 1 2.85709 2.89242 4.66044 -0.534049 0.475279 -0.227346
78 1 2.48413 6.96182 1.43137 -1.13571 -0.177596 -1.8448
79 1 4.93604 0.471212 0.907991 0.491772 0.734842 -0.349721
80 1 0.601383 5.10269 6.7039 -1.78182 0.100173 -0.6225
81 1 3.89698 8.36359 3.59134 -0.0407811 -0.200452 -0.222535
82 1 5.54976 2.78509 4.54043 0.57001 0.865675 -0.0651128
83 1 4.36112 7.51831 4.20846 -0.481615 0.677391 0.149425
84 1 0.639185 7.57346 7.44302 1.83783 0.149046 -0.046397
85 1 2.30825 3.36117 0.967896 0.352922 0.552623 0.84389
86 1 4.02254 5.22909 0.57721 -0.108571 -0.377322 0.730996
87 1 6.7116 3.04769 4.91128 1.28753 0.501314 0.50264
88 1 9.39502 0.61856 6.50224 0.480606 -0.49188 0.156113
89 1 0.20126 3.28789 3.05946 0.900205 0.491472 0.617034
90 1 6.65758 3.90324 4.14402 -0.461016 0.366912 -0.177366
91 1 1.344 5.68201 5.39368 1.11953 0.176358 -0.371983
92 1 8.35461 6.77039 8.40611 0.933921 -0.353919 -0.427894
93 1 2.85999 8.25871 3.39479 0.363679 0.254565 -0.188158
94 1 9.03196 7.67376 2.76347 -0.458842 0.419144 0.309081
95 1 3.36585 5.71197 2.42716 -0.42208 1.32981 0.101722
96 1 3.45768 0.386797 0.266745 -0.705303 0.0327446 0.675602
97 1 3.01881 2.59652 2.3581 -0.140447 -0.549937 0.250286
98 1 5.35587 1.60582 3.36007 1.38169 1.54744 -1.40217
99 1 3.81356 0.16925 4.9227 -0.480221 -0.851982 0.98536
100 1 5.31348 8.92605 5.78371 0.968288 -0.311704 -0.738341
101 1 3.603 6.25011 1.61419 -1.22657 -0.776799 0.482523
102 1 6.9452 2.16599 3.15953 -0.532056 -0.0724255 -0.509471
103 1 8.85346 7.9766 1.74762 0.699514 -0.295672 0.383817
104 1 3.11289 8.35497 8.29548 1.06919 -0.942095 -0.617868
105 1 7.51838 7.25012 5.93999 0.998018 -0.149203 0.315749
106 1 7.54367 2.6141 6.53549 -0.940176 0.580408 0.702201
107 1 6.50295 7.33463 1.31293 0.66756 0.419201 0.229042
108 1 6.62163 2.28559 6.21808 -0.552555 0.70227 -0.593162
109 1 6.96689 5.851 2.61599 0.657053 -1.2574 0.603523
110 1 9.30575 4.29923 6.55761 0.690479 1.01768 -0.727527
111 1 4.07742 7.42313 8.2913 -0.796443 -0.648486 0.479848
112 1 3.93598 0.25477 1.1885 0.000300174 0.0493364 0.740749
113 1 1.84807 4.06634 8.69606 1.06741 -0.751439 -0.482625
114 1 3.33543 7.75876 4.34639 -0.858041 0.28533 0.728928
115 1 4.37206 1.58327 5.48026 1.10916 0.167519 0.843909
116 1 5.2201 5.63941 7.68682 -0.755327 1.38691 1.40335
117 1 7.10549 5.55637 8.796 1.08847 1.09862 -0.0931062
118 1 7.21996 1.62739 6.79608 -0.586225 0.159629 1.01098
119 1 8.84886 6.66605 2.76771 0.489157 1.51519 -0.0620897
120 1 3.07743 6.72645 2.27926 0.588118 0.0260184 -0.450144
121 1 5.73222 8.14901 7.48638 0.167134 -0.186353 0.576533
122 1 8.74891 0.384371 8.39433 0.0927517 0.642422 -0.059191
123 1 2.55163 0.954443 6.60427 0.36257 -0.538774 -0.0371677
124 1 5.06731 8.36834 4.87463 0.233517 -0.0811332 -0.290871
125 1 6.82858 4.06855 5.15832 0.315341 0.121272 0.841772
126 1 9.07592 4.99403 0.711085 -0.841258 -0.239753 0.698797
127 1 1.73311 7.91128 5.35514 0.296562 0.79207 -0.0418963
128 1 5.18604 7.5607 8.14784 0.498617 -1.15842 0.0316708
129 1 3.44205 3.09799 1.4907 -0.366714 1.02174 0.95446
130 1 2.89539 6.85612 7.13343 0.28225 -0.351039 -0.457007
131 1 1.43406 1.32737 4.10887 -0.476784 -1.5437 -0.801608
132 1 6.60104 5.14076 3.53204 0.683054 0.228022 -0.649637
133 1 6.15573 6.34085 1.36376 0.54952 0.460968 0.0920729
134 1 4.32476 1.45393 6.68789 -0.234449 -0.112577 -0.467667
135 1 5.38657 1.31215 5.26023 0.757073 -0.0995373 0.135298
136 1 2.00013 1.5487 8.50053 0.0515534 0.645895 -1.31255
137 1 1.83365 5.16928 8.3995 0.111605 0.124485 -0.838696
138 1 6.12037 5.92884 7.26123 0.296695 -0.208666 0.935461
139 1 0.369775 6.85893 4.57009 0.468725 -0.0404445 -0.283945
140 1 5.26668 4.01108 5.73769 0.503816 0.951336 0.502611
141 1 4.63749 8.78278 6.58757 0.325704 0.801106 0.564083
142 1 2.16071 3.17618 9.20921 0.344762 0.704682 0.20555
143 1 3.99736 6.4803 8.78898 -1.14023 0.256164 -0.495366
144 1 0.886531 4.15898 7.19674 -0.400941 -1.01754 0.483178
145 1 5.89759 3.83566 8.65437 -0.105627 0.901255 -0.00145617
146 1 7.66167 0.13586 2.74438 -0.314386 0.192822 1.08168
147 1 4.94092 7.07057 5.63194 0.217886 0.237934 -0.800037
148 1 4.65449 4.73435 7.51272 1.2459 0.502537 0.315411
149 1 9.32981 6.37194 1.76277 -0.206424 0.897839 -0.875024
150 1 4.06772 1.27669 0.420765 -1.02996 -1.22803 -1.31019
151 1 1.65641 6.29361 6.23242 -0.294952 0.362331 0.310786
152 1 4.83365 6.96444 0.300629 -0.0273335 -0.896969 -0.288779
153 1 8.49471 4.90986 9.10458 0.0590953 0.84548 -0.63238
154 1 5.9525 3.52626 0.24627 -2.15204 0.0303029 0.276345
155 1 6.58826 5.38819 1.77173 1.05529 0.377793 -0.467753
156 1 5.05944 0.534247 3.53768 0.856657 -0.287522 0.774391
157 1 8.32716 1.34575 6.54988 -1.00482 0.0896534 -0.529287
158 1 4.92936 3.8379 0.0262288 -1.5289 -0.382054 1.0875
159 1 1.31394 7.221 4.31515 0.715536 -0.327586 0.22277
160 1 6.80824 8.40855 5.0713 0.401078 0.288422 -0.521502
161 1 9.05364 3.67164 0.995662 -0.29726 -1.16003 0.272607
162 1 0.771334 0.804019 0.573965 0.354636 -0.00570157 -0.669895
163 1 9.35523 3.49593 5.8527 0.730419 -0.632745 -0.82392
164 1 5.54291 7.0032 3.07775 0.382375 0.191378 -0.715164
165 1 6.2301 0.611622 2.37682 0.426834 0.673554 -0.434969
166 1 0.225466 4.09792 4.96653 -0.936426 1.36782 0.644805
167 1 5.14646 7.46361 2.14216 0.80285 -0.990412 -1.14025
168 1 6.29207 4.77032 8.65109 -0.475876 0.154162 0.803431
169 1 2.82712 5.5016 8.20264 0.662795 -0.401291 -0.312571
170 1 2.49306 2.13822 6.66444 -0.546085 -0.631787 -0.298231
171 1 0.61404 3.69248 3.98562 -1.59101 -0.478247 1.03081
172 1 4.02249 3.01056 2.40409 0.000201232 -0.0107478 -0.0587263
173 1 8.6412 8.45575 8.38846 -1.08214 0.287652 0.709788
174 1 1.86061 2.80341 5.11103 0.0478986 0.773741 -1.8059
175 1 7.10305 8.546 2.49889 -1.05704 0.399724 1.2215
176 1 1.56019 1.23063 6.23537 0.158088 -0.509298 0.391558
177 1 3.58337 8.67473 1.5521 0.757491 0.14335 0.00583367
178 1 9.36145 7.68637 6.60338 -1.30235 -0.685464 -0.210997
179 1 5.26553 7.90466 3.80424 -0.274214 -0.708673 0.424837
180 1 1.76358 0.332582 4.7578 -0.194209 -0.994306 0.767608
181 1 7.1236 7.47492 0.285887 -0.422913 0.0353414 -1.20603
182 1 3.61119 1.28997 3.159 1.50936 -0.800174 -0.272737
183 1 3.95549 9.04236 7.36289 -0.684278 0.8762 -0.3683
184 1 2.98981 3.62413 8.85712 -0.613462 0.881462 0.323537
185 1 0.516043 7.09935 8.63964 0.145101 -1.13429 0.644929
186 1 1.44393 4.68764 5.16593 1.22896 -0.0265124 0.693288
187 1 1.08862 2.74432 9.28385 -0.842089 -0.217817 1.11875
188 1 2.55127 5.91103 1.69131 -1.93634 -1.03801 0.941232
189 1 1.17869 2.91094 4.26433 -0.0592056 -1.28377 0.752
190 1 8.549 5.07012 2.424 -0.202455 0.0372995 0.388634
191 1 5.7058 4.6089 0.101643 -0.367513 -0.13577 -0.133237
192 1 0.119592 5.97577 7.18086 0.961549 -1.11652 1.08741
193 1 3.28395 7.46019 6.37548 -0.103728 1.02649 -1.25479
194 1 3.25752 3.45091 0.423774 -0.624744 -0.117268 0.130295
195 1 0.754622 8.11941 2.89555 0.833015 0.392142 -0.803002
196 1 2.32065 9.19227 3.14658 -1.14152 -0.666832 -0.894056
197 1 2.42532 4.6026 5.83994 -0.605558 1.20165 1.39842
198 1 2.28697 4.23158 0.291961 0.214279 0.35336 -0.224291
199 1 2.88829 6.36248 6.11593 1.37296 0.381369 0.910805
200 1 3.61104 8.53387 6.50426 0.0834901 0.464208 -1.24002
201 1 9.40307 8.09353 0.929383 0.74984 -0.412231 -0.199488
202 1 8.91612 3.76769 3.75592 1.10796 0.231054 0.216741
203 1 4.5353 6.59514 6.52469 -0.128361 -0.986756 -0.8791
204 1 4.84424 3.75058 7.1409 0.0886937 0.0980244 0.808644
205 1 8.36254 7.57109 6.82197 -0.632777 -0.504253 1.24242
206 1 0.553411 2.01418 4.22585 0.566816 -0.501167 1.98072
207 1 7.10858 2.55679 7.54669 -0.478382 -0.583657 0.266821
208 1 7.29785 4.47932 6.06749 1.13856 0.0785598 0.0527191
209 1 4.07309 1.2156 7.6857 1.13367 -0.996748 -0.450836
210 1 1.25605 3.17658 8.28758 -0.0690856 -1.40722 -1.2195
211 1 2.15339 1.91641 2.37586 0.254612 -0.687172 0.563503
212 1 7.41633 7.69633 3.17623 0.801098 -1.92855 -1.0301
213 1 3.4526 0.889607 4.10891 -0.0976357 -0.415146 -0.568999
214 1 7.16591 2.32489 8.56171 -0.906655 0.474583 0.133832
215 1 2.26466 5.33217 4.9661 1.07622 1.32829 0.854897
216 1 5.14826 5.0637 5.6758 0.366506 -1.18073 -0.39077
217 1 8.25774 9.23423 9.13212 -0.179026 0.461575 -0.714241
218 1 4.36811 3.53506 1.48412 -0.0166458 1.31797 -1.06673
219 1 6.07513 6.88791 0.443117 -1.24768 -0.0123123 0.0695904
220 1 0.133024 3.49781 1.93859 -1.37233 1.50816 -0.692247
221 1 8.83933 9.10925 7.51741 -0.953315 -1.46575 -0.529216
222 1 4.10346 4.06546 0.653802 0.357616 0.247785 1.69094
223 1 2.91155 8.2046 9.4059 0.228802 -0.818887 0.515178
224 1 6.79713 6.76935 3.01451 1.66149 0.500451 -0.44524
225 1 4.88539 5.50305 6.56013 -0.581555 0.962392 0.956771
226 1 8.72383 7.06938 1.26545 0.298749 -0.332411 0.0914625
227 1 4.63668 8.77322 1.11655 0.0469469 -0.795101 0.0639992
228 1 6.99917 3.64012 8.78613 1.1496 -0.220822 -0.149705
229 1 0.257796 0.339355 7.61454 -0.140619 0.248459 1.03488
230 1 3.91533 0.790642 2.11968 -1.10451 0.981896 0.348534
231 1 8.52896 6.2063 7.36192 -0.739696 -0.773372 0.32533
232 1 5.75246 5.6815 9.37457 -1.05033 0.439718 -0.365299
233 1 0.246783 8.08934 8.48659 0.169473 -0.2207 -0.750211
234 1 2.13735 0.0993723 1.33617 0.351404 -0.390871 -1.06859
235 1 8.12344 5.26248 5.94131 0.348009 0.087252 -1.36535
236 1 1.53905 8.97411 7.24064 0.277018 1.06662 -0.153479
237 1 7.28309 0.570814 0.805881 -0.391534 -0.0923497 0.205081
238 1 5.50521 8.45298 8.54661 -0.728936 0.0859509 -0.962858
239 1 2.02115 7.24493 6.12513 1.01173 0.904835 -0.477343
240 1 5.03139 0.741861 6.13607 -0.484986 0.116581 -0.286765
241 1 2.57782 7.51139 2.79889 0.780689 -0.190525 -0.258884
242 1 8.7745 2.74432 4.92525 -0.374818 0.72812 -0.356679
243 1 1.74186 8.85226 9.06372 -0.237807 -1.46037 -0.936372
244 1 5.98875 0.655701 0.481187 0.392735 0.610432 -0.213142
245 1 6.32293 3.75492 2.1849 0.982776 0.463552 0.0697061
246 1 1.65089 5.92847 1.23514 -1.10553 0.277005 -0.183747
247 1 5.24948 3.22276 3.58063 0.23793 -0.337158 -0.162641
248 1 6.92956 1.41934 3.97041 -0.238035 0.223059 -1.6031
249 1 1.0298 4.40874 8.17364 0.046022 0.35382 0.0755013
250 1 4.0794 8.55096 4.78565 -0.819558 1.254 -0.165893
251 1 8.6058 3.73123 5.14115 1.01106 -0.296826 0.023637
252 1 4.11499 3.48246 3.37947 0.863754 -0.821939 0.330041
253 1 0.572183 6.56279 6.37151 -1.06583 -1.10472 -0.115729
254 1 7.34277 2.85457 1.68361 1.35082 0.730564 -0.240755
255 1 5.16219 0.0774249 8.51118 0.740452 -1.13133 0.550445
256 1 0.201895 4.92661 8.7207 1.38282 -1.04287 0.589495
257 1 2.09567 7.97658 8.5908 1.06632 -0.557343 -0.815712
258 1 2.45943 2.443 3.25812 0.88976 -0.549534 -0.400783
259 1 3.6245 5.54253 9.01092 0.534305 0.369122 0.382723
260 1 3.91314 3.2172 7.26835 -0.142986 0.662573 -0.00132173
261 1 7.05998 3.81481 0.400231 -1.01277 0.259878 -0.881464
262 1 5.1551 0.182291 2.57312 -1.57128 0.241038 -0.579635
263 1 7.61373 3.40774 4.80063 0.774565 -0.692119 -0.495201
264 1 7.72484 6.46737 4.53712 1.19565 -0.153061 -0.651962
265 1 5.8788 3.82227 4.93718 -0.215547 -1.00727 -0.165754
266 1 8.27401 8.03468 3.91122 0.942677 -0.010795 0.338362
267 1 4.45767 2.48189 1.50271 0.984841 -0.800415 -0.342014
268 1 5.75648 0.398315 7.69109 -0.842871 -0.784011 0.473202
269 1 2.97514 6.15369 0.796627 0.0063548 0.177194 0.625649
270 1 8.55535 8.7473 4.59749 -0.0646967 -0.377885 -0.412987
271 1 7.78324 8.18985 9.10179 0.494639 0.36291 -0.139815
272 1 7.82879 1.67931 3.35798 0.662021 -0.700151 -0.483708
273 1 8.17633 3.49467 3.18241 0.0487023 -0.379568 -1.54391
274 1 6.85713 7.97709 6.17682 -0.533309 0.386999 0.2149
275 1 4.58877 8.17423 5.7424 -0.107551 -0.0405397 -0.414429
276 1 0.0868196 5.51309 2.19884 -0.0424688 -0.627001 -0.165098
277 1 4.86099 1.90273 4.5952 -0.474676 0.905871 0.320355
278 1 1.57333 5.08959 6.19329 0.538009 -0.106728 0.857378
279 1 3.05122 0.540303 2.83911 -0.0818996 -0.413622 0.725699
280 1 4.26697 3.95452 2.43425 0.400783 -0.751384 0.442977
281 1 6.26705 8.61682 3.94818 0.143751 -0.0300304 -0.264696
282 1 8.66376 0.401381 2.88769 1.04717 0.609458 -0.197175
283 1 8.53042 0.300215 4.64589 0.393618 0.206722 0.426081
284 1 7.92714 6.2791 5.73689 -0.564427 0.63157 -0.00808684
285 1 4.35343 5.98267 2.47518 -1.162 0.41137 -0.450715
286 1 8.92981 1.84227 8.58736 0.327616 -1.18485 0.568071
287 1 4.15793 0.251869 8.14718 -0.67373 0.585284 2.23774
288 1 1.82155 1.99884 0.00804576 -1.91446 0.0434702 -0.860109
289 1 6.69179 1.26969 5.91535 0.00341797 -0.943153 0.514699
290 1 0.358796 8.64393 7.47512 -0.0434507 1.97776 0.47461
291 1 4.92679 1.16973 8.33537 0.200492 0.743063 1.01109
292 1 0.872636 6.56991 7.48676 -0.102859 -0.808869 -0.502915
293 1 2.64326 8.38176 4.90683 -0.0400237 -0.317346 0.550793
294 1 8.78463 3.56863 8.09025 0.453597 -0.955377 0.517845
295 1 7.2158 5.49588 6.26087 1.12194 -0.209119 1.45982
296 1 5.44094 7.12478 1.18914 0.0577929 -1.37164 -0.192982
297 1 3.60897 2.1999 0.78928 0.0307236 -0.642412 0.143239
298 1 4.14869 5.11934 5.43444 -0.606731 -0.220945 -0.000242761
299 1 6.06592 6.36808 2.41537 1.11581 -0.645969 -0.701813
300 1 7.25793 4.07903 3.14804 -0.556682 1.71662 0.847538
301 1 8.61428 2.3265 6.72184 -0.666871 0.219693 -0.331395
302 1 0.783624 0.037793 4.28118 1.27106 -1.81333 -1.0653
303 1 0.11387 9.08816 8.37836 -1.40203 1.07389 -0.898553
304 1 5.74388 4.54034 1.82866 0.683971 0.149146 -0.408558
305 1 4.6893 2.13722 0.497749 0.155914 -0.306358 -0.316518
306 1 9.30132 0.123344 3.79098 -0.548391 -0.153462 -1.74301
307 1 5.6388 9.10382 0.704739 -1.01703 1.49051 0.739725
308 1 7.81768 0.979057 5.68249 0.398937 0.947395 -0.223302
309 1 8.46081 4.84826 8.03641 -0.659311 0.0599902 -0.478631
310 1 2.71255 4.35832 7.05295 0.0827572 0.857602 -1.06717
311 1 8.11835 7.79192 0.721584 -0.645118 -0.902797 0.879945
312 1 2.04372 6.55976 2.41932 -0.709105 -0.0278837 -0.737123
313 1 6.15028 1.6612 2.55667 -0.869956 0.296829 -1.2391
314 1 5.55398 5.47633 2.14129 1.17442 -0.616615 0.269676
315 1 5.36786 4.51593 6.6742 -0.293387 0.306797 1.13904
316 1 2.02898 5.05215 4.01113 -0.95983 0.234766 0.422096
317 1 8.59265 2.05328 4.15138 -0.260014 0.288795 -1.13242
318 1 9.09743 6.64009 9.05083 -0.399792 -0.646611 0.503372
319 1 2.8989 9.39227 6.23374 0.41164 0.246068 1.14493
320 1 5.17381 6.33966 4.11647 1.31141 0.978376 0.956254
321 1 3.1455 2.00695 4.04576 -0.319136 1.17957 -0.075481
322 1 0.964582 7.47775 6.11802 -0.23527 0.579292 -0.332337
323 1 5.31666 8.92314 3.97304 -0.460991 -0.0339805 0.146426
324 1 3.44157 4.63334 8.56902 -0.0045202 1.52138 -0.604769
325 1 3.39315 5.26659 1.42641 0.695655 -0.0640194 -0.339571
326 1 0.0662179 0.170818 4.97389 1.1257 0.550271 1.27164
327 1 3.91926 1.16019 8.75915 0.612221 0.111301 0.00801541
328 1 5.05874 2.9064 8.95545 -0.177204 -1.09292 -0.0217863
329 1 8.10786 2.73368 7.49926 0.206636 0.210249 -0.662946
330 1 4.56591 7.96296 9.15492 0.988099 0.323857 -0.0508354
331 1 3.29387 1.8743 5.93271 0.0246114 -0.0388196 0.762409
332 1 1.824 1.67074 7.31402 1.36168 0.296998 0.0916433
333 1 7.35485 4.59037 2.23638 -0.11071 0.641615 -1.12372
334 1 1.60162 7.7592 6.93001 -0.0314041 0.0453327 -0.629086
335 1 7.86042 2.4755 2.57402 -1.25663 1.78874 0.635793
336 1 0.713532 4.76038 4.35159 0.585017 0.51305 -0.0813594
337 1 3.9972 6.91116 7.40383 0.276281 1.3874 0.300601
338 1 8.53866 1.64781 7.49943 0.854794 0.734433 0.409675
339 1 0.000621009 4.41473 7.82437 -0.844534 0.445506 -0.592094
340 1 1.65117 8.92855 2.30718 -0.756376 0.0266774 -0.149244
341 1 7.91211 1.60523 8.33306 0.0413104 -0.226486 0.320093
342 1 5.18444 5.93318 3.04328 -0.0313903 0.0020994 -0.0546981
343 1 3.50801 5.82815 3.43242 -0.285305 1.11016 -0.519472
344 1 2.17536 9.13981 5.44527 0.00555065 -0.594852 0.267505
345 1 4.3264 6.66786 4.85914 -0.605181 -0.929271 0.286205
346 1 6.63909 5.15644 0.220495 -0.745207 -0.897417 0.639858
347 1 3.65851 2.89125 8.31728 0.756311 0.232622 0.0772146
348 1 8.01967 5.35316 6.9819 -0.826806 0.104859 0.770474
349 1 6.26042 3.11054 7.8698 0.0933294 -0.926543 -0.412212
350 1 4.16823 4.69295 4.30083 1.25878 -0.0594868 0.627811
351 1 8.17625 6.43851 1.88001 1.01499 0.331392 0.40086
352 1 0.572625 9.08749 5.80556 0.247893 -0.402587 1.69001
353 1 1.50651 2.20508 3.52418 -0.5951 1.04722 0.173018
354 1 1.95912 7.02889 9.01233 0.319224 1.03086 -1.02439
355 1 9.12024 6.18969 0.770402 0.734944 0.0202435 0.378744
356 1 5.59665 3.05855 7.11632 -1.3299 0.271116 0.367367
357 1 0.0436171 1.39947 0.186174 -0.0619923 -0.382655 0.00918967
358 1 6.02554 6.57349 4.72581 -0.224033 -0.316941 -0.483321
359 1 3.60112 5.04267 7.56548 -0.94979 0.350007 -0.0244747
360 1 1.75507 4.04629 4.31113 1.37959 -1.01153 0.931714
361 1 2.83713 3.95223 4.46708 0.240591 0.73871 0.34541
362 1 5.17531 1.97898 2.17125 -0.578275 0.190181 0.306454
363 1 7.72294 5.50212 1.92916 0.0243706 -0.326852 -1.81062
364 1 1.76336 4.19034 6.57571 0.442543 0.503451 -0.0600634
365 1 0.914889 1.88974 0.625504 0.379054 0.567539 -0.146485
366 1 6.34614 7.58692 3.46824 0.874916 1.52859 -0.647313
367 1 0.489181 4.36638 0.905134 -0.682824 -0.0843716 -0.588146
368 1 2.72283 0.0560075 4.68697 0.488063 0.509944 0.0356692
369 1 7.88688 5.84372 7.99606 0.061348 -0.836928 -0.231787
370 1 5.89392 0.741965 8.78285 1.54798 -0.762503 -0.438514
371 1 2.44549 5.40148 6.55797 0.170452 -0.699273 0.494632
372 1 1.79113 3.82235 7.63111 0.834627 0.759425 0.670142
373 1 6.23911 8.052 0.383293 0.480041 -0.18324 0.590388
374 1 7.44589 5.57288 5.13431 -0.140415 -0.0226041 -0.343788
375 1 5.54684 6.5877 6.43923 -0.0380878 1.3756 -0.47947
376 1 3.16842 0.00949837 8.06918 -0.0343078 -0.964374 -1.04158
377 1 2.1861 9.04293 8.01812 0.185521 -0.824342 0.122606
378 1 6.06448 0.851813 3.42685 -0.147576 -0.268901 -0.317147
379 1 7.3487 4.86797 4.15813 0.617679 0.956486 -0.412705
380 1 6.57798 5.07937 5.62463 1.12189 1.01358 -0.0886564
381 1 4.35453 9.18511 2.08711 -0.0554389 -0.596162 -0.592257
382 1 6.79691 6.89748 4.06047 -0.570893 -0.247299 0.105194
383 1 0.900189 0.174724 6.78017 0.0129593 -1.01999 0.201226
384 1 3.26484 9.28863 3.7696 0.239665 0.0100625 1.27724
385 1 3.82422 7.35131 0.0425168 0.116191 0.573005 0.918591
386 1 0.871319 3.9872 6.17327 0.272524 1.32444 0.413116
387 1 0.149269 1.16648 3.76703 0.311913 -0.344989 0.0801275
388 1 7.55115 2.2971 0.705149 -1.02404 0.362717 -0.299021
389 1 6.08464 3.15607 5.74664 -0.544686 0.403469 0.0294835
390 1 2.71473 5.15435 3.18061 0.388434 -0.381661 -1.14822
391 1 5.98742 9.18502 9.09984 -0.64158 -0.609806 1.49823
392 1 4.5142 1.39311 1.42346 -0.0560826 0.0941871 0.122457
393 1 1.77986 6.77709 0.641845 1.07673 -0.569451 -1.59725
394 1 8.11416 3.32624 1.23314 0.560175 0.341167 -0.041954
395 1 1.35077 0.789682 1.47023 0.451635 -0.725964 0.028464
396 1 3.55725 2.5363 3.25237 0.787585 -0.289424 -0.115032
397 1 6.47652 3.28482 1.10643 -0.550375 0.588308 0.35317
398 1 7.51021 5.13925 3.1121 -0.760809 -0.431282 -0.170222
399 1 7.54001 1.494 1.33766 -0.653851 0.581612 -0.76625
400 1 0.436421 7.00069 2.52562 -0.516929 0.399054 -0.027665
401 1 3.37103 1.58796 6.99852 0.303327 0.415988 -0.471258
402 1 9.22765 5.60634 9.28877 -0.0616504 -0.736096 1.29674
403 1 2.38301 5.21066 0.85401 0.428419 0.311617 0.58692
404 1 6.60765 5.72642 4.48004 -1.20962 0.47857 -0.334329
405 1 4.48381 4.50661 6.24961 0.797645 0.518843 -0.609327
406 1 6.77097 9.00649 0.53432 -1.34217 0.718186 -0.57547
407 1 7.47624 9.03262 6.38773 -0.00198469 -0.0332589 0.811154
408 1 0.275132 3.37471 0.233002 -0.591098 0.700093 -0.727864
409 1 4.14688 3.42713 6.21679 -0.0207926 0.390952 -1.00207
410 1 9.23305 2.40194 5.89266 -0.396622 -0.43786 -0.85938
411 1 8.01117 9.35349 5.41892 -0.51249 0.620313 -0.167105
412 1 0.951969 0.441166 2.41827 0.243734 -0.239415 0.877956
413 1 1.44969 7.02724 1.61764 -1.73084 -0.628378 -0.412772
414 1 6.81055 0.602231 9.25877 -0.862569 0.230091 0.160088
415 1 9.17054 0.850199 1.04139 -0.0328527 0.13392 -0.192828
416 1 0.287738 2.38647 1.95699 0.473515 0.225584 -0.233022
417 1 9.22837 5.40686 4.1549 1.02624 0.140833 0.103868
418 1 3.6862 2.31114 4.91153 0.748041 1.00062 1.12113
419 1 6.14502 2.66979 2.15062 -0.0645243 -0.359243 -0.34493
420 1 0.419693 3.05382 4.99586 0.242801 0.22708 -0.978012
421 1 5.75954 5.62402 5.048 -1.25051 0.19063 0.663486
422 1 9.15853 1.74083 5.0864 0.904938 -0.342716 -0.330724
423 1 1.20416 4.53074 3.47411 -0.330377 0.373392 0.0437508
424 1 4.56283 7.58785 3.12448 0.747457 0.253522 0.227597
425 1 1.82119 2.14656 5.8876 0.718987 -1.41202 0.148867
426 1 6.53729 0.0629202 6.38686 0.00447475 0.777972 -0.416931
427 1 7.12859 3.63239 7.70693 -1.64561 0.2067 -0.0381182
428 1 2.50093 7.67012 7.65378 -0.217247 -0.89855 0.497726
429 1 6.13982 7.86838 2.50738 -0.790609 0.0488624 1.24944
430 1 5.81117 1.65126 6.24436 -1.23678 -0.294994 -0.396339
431 1 9.13074 2.56888 7.64943 0.741595 0.278964 0.369646
432 1 4.56626 8.0183 7.44237 -0.499717 -0.609425 0.21523
433 1 2.69869 7.30048 5.28691 -0.158262 1.09905 -1.04324
434 1 7.7697 8.10629 1.75841 0.277071 0.0798703 -1.2782
435 1 0.472028 2.82467 1.05918 -0.37717 -0.20686 0.702763
436 1 8.737 9.00591 0.761882 -0.531029 -0.156643 -0.944441
437 1 7.54135 7.19256 1.25587 0.643101 -0.0669406 -1.80297
438 1 1.18143 7.78591 9.00108 -0.0612818 1.05486 -1.08435
439 1 3.59557 7.38331 3.12324 -0.407833 -0.322168 0.484104
440 1 8.00396 5.97683 2.78571 -0.116146 -0.150477 0.340176
441 1 6.49428 2.68712 4.01811 -2.1496 -0.213607 -0.173412
442 1 5.06407 3.10176 6.19032 0.371775 0.476448 0.6667
443 1 2.81952 7.1634 0.339596 -0.238543 -0.407706 0.380936
444 1 1.76164 6.23385 4.40835 -0.780777 0.253185 1.22076
445 1 5.36027 1.92264 8.91758 0.144753 0.0764887 0.175317
446 1 7.72578 3.54787 6.85867 -0.475493 -1.38506 0.333634
447 1 1.76112 4.49213 2.52103 0.456757 -0.782503 0.1679
448 1 6.88314 6.39272 8.25875 1.33966 1.04973 0.696585
449 1 2.81147 1.3626 0.366199 -0.22624 -0.296744 1.21005
450 1 4.28754 5.52358 8.23891 0.0514403 -1.6243 -0.968181
451 1 4.95183 9.00067 7.62514 -0.845528 -1.75586 0.880135
452 1 4.22709 7.63496 6.58987 0.893066 0.1044 0.675644
453 1 3.64194 7.8822 5.38779 -1.40159 0.426081 0.50288
454 1 3.35543 8.88363 5.53717 -0.740381 -1.33241 0.284157
455 1 0.635283 4.99049 5.68008 0.480352 0.67853 0.0861314
456 1 9.20402 5.60506 6.20017 -0.646417 0.419601 0.84645
457 1 5.09648 7.99553 0.77019 0.0519964 0.906234 -0.238167
458 1 4.364 6.52187 3.34888 0.386292 0.458561 1.09935
459 1 8.21824 4.42603 1.493 0.576884 -0.368388 -0.414078
460 1 4.6585 3.07516 7.97118 0.213301 -1.5246 0.254018
461 1 8.99286 3.97941 2.68266 -0.215491 0.821102 0.330289
462 1 2.0064 7.90356 2.02058 0.195599 0.596683 0.35814
463 1 3.41843 1.91182 9.16141 -0.65452 -0.625328 0.106064
464 1 0.306603 2.61615 8.47301 -0.885154 0.168665 -0.182975
465 1 1.85092 0.173464 6.39932 -0.0577745 0.103373 0.46694
466 1 4.4214 0.343635 9.19164 -0.601252 1.40162 0.349309
467 1 5.56826 2.54439 1.29527 0.406053 -1.49058 -0.358109
468 1 7.42529 0.679766 4.79345 0.751365 -0.0388183 -0.235791
469 1 7.3255 3.18327 3.72339 -0.485009 0.117295 0.178226
470 1 1.01802 2.32374 7.44256 0.306635 0.364904 -0.0285903
471 1 5.5083 0.032437 6.75282 -0.050348 0.323572 -0.365227
472 1 7.94027 4.55987 5.11894 -0.341718 0.0863882 -0.244394
473 1 5.78987 2.33997 0.321209 -1.19307 0.357168 0.43744
474 1 0.679117 7.21694 3.48145 -0.606379 0.513622 0.1938
475 1 3.21599 2.56776 7.48928 -1.57367 0.97859 0.349404
476 1 0.274713 0.80884 8.57043 -0.555402 0.506243 0.271647
477 1 1.23725 8.34867 8.10182 0.00545321 1.18602 0.139677
478 1 1.61199 1.25025 3.01199 -0.891699 0.0147409 0.762746
479 1 1.02897 3.63964 1.50275 -0.504711 -1.40686 -0.0537879
480 1 7.92113 9.35042 8.03964 1.15615 -0.250975 0.542127
481 1 2.69712 7.98025 1.04854 0.0656807 0.489186 -0.146678
482 1 3.70603 5.69339 4.57549 -0.0112493 -1.53565 0.293832
483 1 5.18665 6.40117 1.95092 -0.636073 -0.164189 -0.0530081
484 1 5.84757 1.43123 7.87996 -0.521801 0.453605 1.27858
485 1 6.06301 5.73318 8.3296 -0.672816 1.00002 0.327726
486 1 0.209633 2.30077 3.08131 -1.26479 1.51917 0.814636
487 1 0.0677447 4.61357 3.47456 -0.278618 -0.909132 -0.0986471
488 1 8.68646 6.74098 4.91937 0.537868 -0.180243 0.810849
489 1 3.05982 1.3942 2.21195 0.666307 0.0656628 0.468583
490 1 5.2107 7.23613 4.6565 0.585725 0.758241 0.756617
491 1 8.08812 8.36098 2.78759 -1.78085 0.495016 0.0106699
492 1 0.805615 8.5346 0.287688 0.847162 -0.0293235 -0.293714
493 1 4.89854 8.88779 0.0293228 0.516428 -0.0698624 -0.329224
494 1 7.55515 2.29957 4.30098 -0.827325 0.390134 -1.31719
495 1 4.00121 1.91295 2.3359 -0.388021 -0.555001 -0.146972
496 1 1.60909 1.38976 5.13325 0.193758 -0.745628 0.43838
497 1 2.33976 0.421605 0.249316 -1.36233 -1.15361 0.0804155
498 1 8.42884 1.50333 0.869756 0.947711 0.791089 -0.632743
499 1 4.49086 2.9176 5.22713 0.921911 0.141514 0.282327
500 1 5.322 6.1762 0.786335 -0.988877 -0.846619 -0.563376
501 1 4.80513 6.04045 5.6511 -0.378904 0.199537 -0.494755
502 1 1.019 3.04017 2.33821 -0.502089 0.0926764 0.766418
503 1 4.83926 5.58354 4.72502 0.013994 0.299075 1.288
504 1 5.22031 8.48426 2.22356 0.290914 -0.17818 0.175081
505 1 6.71583 5.11657 7.80359 0.51922 0.428652 0.90026
506 1 3.15056 6.4105 5.15323 0.346767 -0.338787 -0.642257
507 1 7.42951 7.30125 8.58866 0.572264 -0.171202 1.12758
508 1 3.49844 7.19066 1.12695 0.481302 -0.626433 1.09076
509 1 8.51324 1.13961 9.17725 0.0477868 0.0363411 0.502116
510 1 2.46993 1.16525 4.43947 0.841037 0.154289 0.0172388
511 1 7.10837 3.40323 5.94645 0.0345682 0.562003 -0.505265
512 1 7.85921 6.82642 3.51217 -0.563244 0.67911 0.714829
513 1 2.12023 7.80771 4.0043 0.292835 -0.26091 -0.275417
514 1 0.1854 6.36866 3.63465 -0.645232 -0.680996 0.0234307