ITEM: TIMESTEP
51120000
ITEM: NUMBER OF ATOMS
1000
ITEM: BOX BOUNDS pp pp pp
0.0000000000000000e+00 9.4000000000000004e+00
0.0000000000000000e+00 9.4000000000000004e+00
0.0000000000000000e+00 9.4000000000000004e+00
ITEM: ATOMS id type x y z vx vy vz
1 1 8.5927 6.59736 2.77821 0.782759 0.230611 0.408728
2 1 5.76058 6.11618 0.563543 -1.94688 0.0822927 -0.497401
3 1 4.1618 3.47482 3.96265 1.2629 -0.278783 1.39352
4 1 1.97077 6.6946 3.0712 -0.0448493 -0.275484 0.909876
5 1 0.179897 0.0738392 2.25382 0.0894803 -0.6533 -0.74388
6 1 5.1971 7.69483 4.71551 1.33796 -0.246737 -1.1542
7 1 3.87576 8.24685 1.59918 0.873888 -0.527498 0.934772
8 1 3.80726 0.243815 7.50379 -0.192815 0.847271 -0.292258
9 1 1.45218 6.86639 5.21618 0.615434 0.177063 -0.355285
10 1 1.92033 5.77134 2.51255 0.0928056 0.0852033 -0.709584
11 1 5.98643 1.04767 4.90958 -0.617315 -0.037493 0.853564
12 1 8.79471 0.477647 0.59579 -0.959989 -0.980694 -0.308653
13 1 1.39205 1.93765 1.35896 -0.764519 0.343412 0.444658
14 1 3.97497 3.68389 5.05725 0.65233 0.568458 1.33856
15 1 0.910064 0.0276036 7.43723 0.637199 0.369376 1.29144
16 1 1.62189 0.243083 6.50637 -0.0810028 -0.0844902 0.515962
17 1 6.96658 3.98026 0.812482 -0.877177 -0.304037 0.29484
18 1 4.44839 7.01274 8.53547 0.227872 0.229913 0.502424
19 1 3.48336 4.81954 7.76052 0.149683 0.370257 -0.347441
20 1 8.82936 5.75155 8.66933 -0.984454 -1.16181 -0.880055
21 1 0.381069 0.35782 1.23429 1.08372 -0.0346956 -0.784122
22 1 7.91903 4.31312 9.1877 0.487983 0.0414146 -1.6978
23 1 5.11889 1.64354 0.803296 0.159138 0.831029 -0.0860951
24 1 2.84244 7.18848 5.43008 0.566409 0.23186 -0.943345
25 1 7.50375 1.97116 2.22782 -0.0540162 0.27986 0.94818
26 1 0.00142286 3.08085 4.24289 -0.612283 -0.622637 0.695833
27 1 0.710711 7.30526 2.15259 1.26792 0.132545 -0.434834
28 1 5.80088 2.24219 1.40566 1.68139 -0.504725 -0.948788
29 1 1.17322 3.91295 4.96346 -1.24752 1.35995 1.47671
30 1 0.573692 3.40619 6.76538 -0.320735 0.264759 -1.04715
31 1 2.49202 1.77002 1.02926 0.255547 0.488903 0.257289
32 1 8.36226 3.75827 6.6403 0.302785 0.363675 -0.397007
33 1 6.51977 8.621 0.350405 0.188025 -1.28317 0.489978
34 1 5.30483 9.09372 3.4518 -1.04073 0.227399 1.16245
35 1 2.373 1.03761 1.66592 0.696649 -1.44169 -0.51001
36 1 2.73799 2.58441 1.6612 0.507332 1.26505 0.500919
37 1 6.34538 7.67083 9.28696 -0.8611 0.250631 0.0507846
38 1 0.49581 0.871849 0.341581 0.280317 0.0155461 -0.32821
39 1 5.81998 7.34641 0.778507 1.19824 -0.0225808 -0.565851
40 1 7.68165 0.408558 0.393112 -0.203838 0.835597 -0.452679
41 1 7.00815 8.82515 5.8906 -0.0841185 -0.933236 -0.887433
42 1 9.148 0.67079 5.07575 -0.371539 1.2795 0.0933531
43 1 2.22727 9.22834 5.69685 0.34485 -0.74826 0.367793
44 1 1.99213 2.16501 6.23734 -0.174965 -0.118529 -0.193069
45 1 7.42171 1.65981 0.111085 -1.59151 -1.10247 -0.170482
46 1 0.672212 5.46019 3.61675 -0.587703 -0.706093 0.259365
47 1 1.40096 5.65343 9.26116 -0.616519 1.10897 0.11464
48 1 6.74002 5.81135 2.0089 0.19087 0.168001 0.664079
49 1 2.67074 5.07275 7.05428 -0.386709 0.3519 0.619479
50 1 1.85244 5.4827 5.07266 1.1243 -0.180708 0.0676474
51 1 1.53454 5.87238 1.45447 0.455927 0.429586 0.704274
52 1 4.68602 0.679523 2.23342 0.483993 -0.270117 -0.517608
53 1 2.73434 1.20411 2.67987 -1.14164 0.265172 -0.0273891
54 1 9.00606 6.32572 1.05095 1.26364 -0.641982 -0.697604
55 1 1.66325 5.09057 7.21071 -0.125224 0.611624 0.781573
56 1 0.635223 3.93437 7.69555 0.195981 -1.45278 0.73059
57 1 2.35 5.71857 7.82985 0.952963 0.05216 -0.620714
58 1 6.09801 6.53396 1.39677 -0.586388 -1.12719 0.703541
59 1 7.0599 7.82909 7.35632 0.126341 0.557408 -0.682116
60 1 1.3083 8.80151 3.92741 0.190746 0.367396 -0.0859567
61 1 2.1336 1.85845 2.15821 -0.16986 0.402387 -0.952742
62 1 3.11181 7.49649 1.76845 0.376256 -0.155415 1.00589
63 1 6.62493 1.25983 5.66929 -0.153407 0.342338 0.437844
64 1 1.42316 7.69727 1.55096 -0.154652 0.810466 0.199175
65 1 8.86833 1.45246 4.3632 0.606305 1.05557 0.538057
66 1 3.23329 9.2443 5.17732 0.0784686 -0.459193 0.742563
67 1 4.60753 8.503 2.72342 1.19047 0.0805631 1.0557
68 1 5.2495 7.42689 7.98548 0.280147 0.157145 0.86921
69 1 7.36906 4.12827 2.86297 -1.13759 -0.818326 0.381751
70 1 7.08623 3.68665 3.888 0.547207 0.258675 0.280204
71 1 7.56044 3.60818 8.26277 0.68832 0.000135593 -1.31011
72 1 5.2839 1.35348 4.00791 0.741929 -0.705159 -0.435182
73 1 2.45447 8.34068 5.19331 0.671492 -0.959947 0.440342
74 1 5.53124 7.15152 1.97068 0.0770033 1.03274 -1.0265
75 1 7.49689 1.28415 6.97221 -0.170487 0.523811 -0.0224603
76 1 6.36465 0.822313 2.30316 0.895896 0.998202 -0.6026
77 1 0.847768 4.49517 4.05712 0.0765275 -0.915594 -0.5954
78 1 1.58574 6.7699 2.03633 -0.120567 -0.383081 -0.174375
79 1 6.36613 1.22341 6.61798 -1.58566 0.889513 0.85332
80 1 9.19911 7.47226 8.78065 -0.240614 0.395059 1.43025
81 1 1.53425 8.5053 6.12574 0.947503 1.09278 0.207239
82 1 4.91364 8.15328 3.61518 -1.34031 -0.492805 0.0983344
83 1 4.86471 4.78124 5.35106 0.802116 -0.523077 0.433166
84 1 0.443822 6.84877 5.56236 0.476228 0.517998 0.762993
85 1 1.41474 2.25195 8.16855 -1.59504 0.524557 -0.0921786
86 1 4.10885 2.15014 0.828445 -1.81007 -1.3031 0.683172
87 1 4.85485 2.99323 3.29611 -0.521935 0.279539 -0.663222
88 1 9.33929 1.14936 7.05817 0.267451 0.0912567 -0.118035
89 1 1.60762 5.01517 3.56572 0.166705 -0.754034 -0.150856
90 1 5.44534 3.4438 0.823391 0.0422533 -0.551774 -0.260576
91 1 7.28703 6.16474 6.10243 0.795529 -0.813585 -0.107335
92 1 7.40663 8.50005 8.13762 -0.145091 -0.115869 0.517515
93 1 2.30127 8.67547 4.1625 0.96809 0.195572 -1.1519
94 1 0.528318 6.46659 3.87652 0.0195991 -0.0233577 0.331834
95 1 8.82461 6.68045 3.94907 0.148593 0.550239 -0.201686
96 1 4.85668 8.56673 7.47074 1.18045 0.0972317 0.529599
97 1 1.1353 2.95017 0.92107 -0.68156 0.935413 0.169537
98 1 5.35197 8.1942 2.09932 0.908101 0.721468 0.523383
99 1 2.78391 0.142784 4.14667 -0.474859 0.533055 0.411719
100 1 6.36827 8.71859 5.09411 -0.752291 -0.278163 0.348351
101 1 4.44558 5.16912 3.50882 -0.106999 -0.211917 0.257328
102 1 3.82579 7.80828 2.63604 0.0713482 -0.767143 0.399276
103 1 2.66542 8.6976 3.17136 -0.897099 0.237214 0.899358
104 1 2.06901 7.85725 3.55181 -0.766169 -0.462345 0.24237
105 1 7.48044 1.07929 5.12129 -0.522865 0.114597 0.517255
106 1 7.70767 0.83676 6.09987 0.378004 0.184692 -0.593189
107 1 8.30371 7.55008 2.07111 0.51406 0.395045 0.489915
108 1 0.50299 1.90203 4.47732 -1.02432 -0.182307 -0.146813
109 1 6.32182 3.10423 1.14584 -0.512819 1.05441 -0.193156
110 1 9.14749 4.42561 7.23761 -0.116265 0.0970596 -0.293001
111 1 7.5922 5.15399 7.47706 -1.30899 -0.438471 1.27738
112 1 6.68357 0.196088 0.497456 -0.183417 0.0634495 -0.0311776
113 1 4.42328 4.45806 8.24587 -1.68167 -1.51437 0.0434059
114 1 0.715436 2.03819 0.328563 -0.287443 0.517585 -0.087792
115 1 5.7866 0.320277 4.11743 -0.112466 -0.24625 -0.0766717
116 1 5.56296 2.59108 8.62476 -0.510336 1.24079 1.20903
117 1 7.62008 8.75327 0.453108 1.61822 -0.0625824 -0.974914
118 1 7.71419 1.97295 5.82457 -0.381184 0.56455 0.909502
119 1 5.22148 9.40166 6.86938 0.182255 0.44883 -0.324811
120 1 1.09457 6.70266 9.37229 -0.925112 -0.545937 0.375232
121 1 5.64948 8.59936 4.31846 0.253737 0.188463 0.966214
122 1 0.872517 7.58893 8.87503 0.59109 -0.0157991 1.43485
123 1 1.95825 7.57217 5.78169 -1.12545 0.0423498 0.479475
124 1 5.18225 1.07784 6.52278 -0.126031 -0.510077 -0.394411
125 1 6.27909 6.0306 6.47185 0.646142 -0.148945 -0.547012
126 1 0.286459 4.30274 0.882983 0.409251 0.92595 0.202302
127 1 3.51194 8.67911 4.31147 0.251093 0.191692 0.896126
128 1 4.97312 5.33612 8.25481 0.530999 -0.591571 -1.33952
129 1 4.1531 4.82899 0.815719 -0.654501 0.171586 -0.519095
130 1 3.64635 0.565033 3.71576 -0.934354 1.08091 0.664697
131 1 9.35815 2.08468 2.6889 0.521937 -0.246993 -1.03888
132 1 7.21322 3.51899 5.01477 0.262828 0.0243419 0.577449
133 1 6.35492 8.32313 2.22354 0.338737 -0.389566 0.201844
134 1 0.912801 6.04694 4.73255 0.646937 -1.69489 -0.119638
135 1 3.72553 8.85582 3.21806 0.444426 -1.16504 -0.139968
136 1 9.35788 1.44845 6.06194 0.619196 -0.115359 -0.117697
137 1 2.05056 5.21676 0.615413 0.542918 0.517962 0.780054
138 1 8.34291 3.29259 8.90975 0.421072 1.01737 -1.32818
139 1 0.395554 2.22023 5.59599 -0.581344 -0.68814 0.636139
140 1 3.00123 4.18715 6.42893 -0.226524 -0.307424 -1.07472
141 1 3.45539 8.59171 8.29672 -0.61559 -0.967715 1.43824
142 1 3.66761 3.26559 0.989473 -0.0576777 0.453538 0.780076
143 1 4.83256 5.63457 0.536462 0.384788 -0.0174062 -1.0341
144 1 0.518302 3.16014 5.30898 0.241626 0.852293 0.53763
145 1 8.6087 3.98926 0.81747 0.565193 -0.487887 -0.784883
146 1 6.46786 1.23207 0.282583 0.466684 -1.2452 -0.212351
147 1 5.6232 1.78536 7.1409 0.0999005 0.0186798 0.490325
148 1 8.86171 4.68211 8.8131 0.667515 -0.239144 0.36809
149 1 1.68533 8.75647 2.74262 -0.323747 -0.646225 -1.15381
150 1 5.49252 0.702638 2.88325 0.195576 -0.481767 0.421958
151 1 0.725724 0.103637 4.58478 0.310016 -1.30705 0.356772
152 1 6.1731 0.268033 9.00601 0.870101 0.0320367 0.240041
153 1 2.25188 6.55217 1.25308 -0.132905 -0.453766 0.327166
154 1 4.81215 7.59053 0.536535 -0.497823 -1.17053 -0.555365
155 1 9.09762 9.13278 3.07842 -0.145419 -0.730483 1.0882
156 1 3.92012 7.15849 3.57565 -1.41265 0.457902 0.0993246
157 1 6.61792 4.09529 6.5644 0.0441181 0.609532 0.844111
158 1 2.36452 6.54551 8.50096 -0.849938 0.276851 0.943401
159 1 1.21492 6.89396 6.23609 1.07221 -0.321225 1.25802
160 1 4.79128 1.09008 7.47644 -0.763039 -0.290455 -0.491556
161 1 1.38434 3.69843 6.07657 -0.686488 0.692181 -0.0381679
162 1 8.25516 2.13948 8.60715 0.629046 -1.28789 -0.279873
163 1 1.0294 2.82096 4.55485 0.491471 0.541726 -0.876643
164 1 5.82745 8.19898 1.22612 0.318262 1.46917 0.734203
165 1 6.75272 3.11971 0.238444 -0.730854 -0.427779 -1.33344
166 1 5.26294 5.93704 3.67522 -0.547856 -0.774536 -0.334615
167 1 3.77704 6.71981 2.29171 0.4595 0.0737097 -0.144227
168 1 6.95593 3.99179 9.04344 0.160441 -1.12341 0.220539
169 1 1.91332 6.60692 7.50728 -0.0602167 1.62101 0.0333114
170 1 8.95147 2.97891 3.24971 -0.361251 1.26156 0.312095
171 1 7.14167 7.62033 2.44928 0.0623244 -0.0622587 0.215166
172 1 2.87787 3.53333 9.14201 -0.314857 -0.773423 0.854357
173 1 9.29702 5.53099 0.281647 -0.218399 0.456942 0.0661875
174 1 0.370632 4.03737 5.79272 0.412089 -0.71818 1.22654
175 1 7.16937 6.65371 1.51767 -0.641554 0.416445 -0.284034
176 1 2.62517 9.38703 6.66825 -0.412491 0.249929 0.604078
177 1 5.57505 8.25501 0.054099 -0.130948 -0.603242 0.563304
178 1 8.02577 3.43987 4.36918 -1.14222 0.407301 0.678554
179 1 4.71164 0.0939644 5.92518 -0.896162 -0.0470938 -0.100524
180 1 8.88433 9.02139 4.74943 -0.973422 -0.599831 -0.397765
181 1 6.87572 7.18801 4.36945 0.0250992 -0.286069 0.408675
182 1 5.64445 2.89319 5.5014 -0.170849 0.36329 0.373771
183 1 2.39635 5.54197 9.05919 -0.708036 -0.101376 0.6612
184 1 3.49851 0.217262 8.60928 0.115505 0.148889 1.63724
185 1 3.71943 6.76709 6.79221 0.769554 0.039068 0.495118
186 1 3.06239 5.24566 6.13467 -0.0789548 -0.238071 -0.0736745
187 1 2.69537 1.39719 6.01283 -0.247944 0.660097 -0.444935
188 1 3.95242 6.32674 0.595995 -0.109845 0.895644 -0.129927
189 1 3.54558 4.56624 3.23264 -1.35644 0.56731 -0.834016
190 1 6.06189 4.08475 1.4021 -0.309554 0.202594 -0.949945
191 1 4.45953 4.9994 9.1636 0.236477 -0.220502 0.397039
192 1 0.207758 4.92875 8.13188 1.32131 0.33463 -0.485941
193 1 3.35269 7.26053 8.41483 0.894841 -1.33303 0.350088
194 1 1.21541 8.69614 9.30468 0.365264 0.301702 0.0598049
195 1 7.63012 0.193834 3.59763 -1.09382 0.12112 0.367772
196 1 2.6406 1.08517 3.74542 2.19582 0.741698 0.165195
197 1 7.09119 5.84757 8.26044 -0.201762 0.630158 -0.61236
198 1 2.92356 2.04968 0.0811551 0.235373 0.264801 -0.239005
199 1 9.1114 6.98176 4.92647 -0.474107 -1.49098 0.148142
200 1 4.49591 9.26446 8.28438 -0.545024 -0.108679 -0.964004
201 1 4.05365 2.0344 2.53394 -0.509361 -0.371018 -0.237966
202 1 8.10216 9.10413 2.91872 -0.484895 0.2629 -0.620028
203 1 5.33683 7.66585 6.99393 1.66798 -0.21768 -0.0342066
204 1 5.10636 2.53034 7.59691 -0.748917 -0.157853 0.623439
205 1 5.33957 8.56419 5.29774 -0.436647 -1.43137 -1.09925
206 1 1.57484 1.93646 3.94307 0.373635 2.45786 -0.815003
207 1 7.75025 3.41928 0.323743 0.247208 -0.233764 -0.670018
208 1 7.68448 4.67872 4.67698 -0.893683 1.38465 -0.0321811
209 1 5.82522 0.46698 5.75575 -0.210786 0.511483 -0.54502
210 1 1.34307 0.660062 8.24422 -1.21231 -0.0167067 0.188749
211 1 9.14718 2.23139 0.809849 0.684382 -1.49792 1.3363
212 1 6.4888 6.70008 2.38308 0.0680073 0.160419 -0.332041
213 1 2.78177 3.09347 3.54879 -0.0146983 1.41753 -1.26534
214 1 8.88596 2.26639 7.38914 0.280443 0.363165 -0.917552
215 1 3.45978 5.40199 3.82607 -0.607838 0.540474 -0.317338
216 1 4.77861 5.96653 5.34761 1.46536 -0.261796 -0.442422
217 1 3.84173 1.41788 7.49956 -0.287664 0.955389 0.0552982
218 1 3.11121 3.49497 2.07709 -1.05409 0.496185 1.49105
219 1 5.74381 3.71276 9.23623 0.287915 -0.63964 0.615498
220 1 0.226938 2.30578 6.60404 0.49553 -0.402907 0.877729
221 1 6.75405 0.280968 5.10115 1.22395 1.4283 -0.200532
222 1 8.24542 5.14448 2.19167 -1.19553 0.899829 -0.812179
223 1 1.88937 1.44582 7.77516 1.58604 -0.731086 0.184721
224 1 7.33559 6.85016 5.33329 -0.687228 -0.0817797 -0.380919
225 1 6.86914 5.14376 6.55582 -0.601455 1.04002 -1.39332
226 1 1.54242 8.01614 4.45539 -1.81214 0.96323 -1.51054
227 1 5.10398 6.96531 3.88163 -1.48597 0.15483 0.974847
228 1 7.38639 2.69159 8.91204 1.08146 0.26943 0.946055
229 1 2.92686 0.526779 0.849942 -0.449736 -0.0629915 0.430157
230 1 4.47817 3.51522 7.67401 -0.880436 1.37339 -0.606033
231 1 6.22193 6.17784 7.69258 1.8972 0.273438 0.238986
232 1 9.02581 5.88116 2.02067 0.500986 0.340894 -1.05571
233 1 6.80143 7.70165 8.38612 -0.445675 -0.206596 0.856591
234 1 5.18317 9.1906 9.11078 1.26068 -0.00971105 -1.02813
235 1 6.86692 6.93634 6.72682 -0.942529 -0.376484 -0.118194
236 1 1.3213 6.34057 8.40512 0.180337 -0.18049 0.536952
237 1 7.28453 1.12074 0.994957 0.5111 1.52266 -0.0901275
238 1 6.72299 6.86746 0.648646 0.320365 -0.980085 0.0152855
239 1 3.61052 7.55596 6.08593 1.7408 -0.172031 -0.57911
240 1 3.90853 2.60863 5.51317 -1.28804 0.770214 0.16735
241 1 3.61566 5.1433 1.84975 -0.521734 -0.449414 -0.706628
242 1 7.43563 3.15305 2.3885 0.331958 0.321672 -0.962721
243 1 1.74608 8.45685 0.922658 0.018143 0.556169 -0.796212
244 1 6.23702 7.22933 7.56055 0.750636 -0.289281 0.283992
245 1 5.62675 3.78964 3.15513 -0.338122 0.576627 0.146627
246 1 0.381215 9.231 0.312769 0.705199 0.243387 0.730178
247 1 4.61059 4.17442 3.28959 0.234124 0.135428 0.520472
248 1 4.195 8.74415 5.13744 1.52077 0.922461 1.50228
249 1 1.99271 5.36019 6.08858 1.08538 0.51483 -0.585852
250 1 4.31693 5.38492 4.6529 0.292394 0.711116 0.0955057
251 1 6.70869 1.70369 7.53231 1.32114 0.800059 0.421233
252 1 1.63132 2.90994 3.62067 0.00729152 -0.00997341 0.323211
253 1 8.52675 4.26699 2.76792 0.575983 -0.310937 0.760975
254 1 3.33485 1.53276 1.86469 -0.173367 1.41713 -1.53705
255 1 7.62329 2.11119 1.15785 1.04844 0.362727 0.476976
256 1 1.1442 2.78112 9.25037 -0.222266 0.550408 0.519194
257 1 5.0275 0.782997 1.24677 0.431935 -0.754387 -0.787859
258 1 2.22023 8.2314 1.88576 0.697047 -0.0361908 -1.62473
259 1 4.09311 6.03645 7.73516 0.223606 0.58519 0.33621
260 1 2.70449 2.81615 0.706386 -0.260359 -0.423615 -0.834451
261 1 7.84359 5.28362 8.54774 1.25226 0.397508 -0.757995
262 1 4.618 1.20953 9.2852 0.0738515 0.687282 0.205636
263 1 6.15173 4.30328 3.88943 0.449561 -0.252809 -0.532638
264 1 7.18849 6.10177 7.18538 1.17533 0.589516 -1.2988
265 1 5.16734 4.85449 4.22876 -1.05005 -0.335234 -0.056274
266 1 5.50209 6.65181 4.84474 0.178456 -0.360478 0.0667905
267 1 6.81728 3.00267 3.18849 0.478346 0.203722 -1.81917
268 1 5.01555 8.42026 6.26656 0.612986 0.390332 0.131915
269 1 3.55185 5.48622 0.0334959 -0.103091 -0.351853 0.0678502
270 1 8.53362 0.34072 2.29886 0.0616656 0.193589 0.671273
271 1 6.47011 7.44038 1.65875 -0.0319492 -0.50851 -1.06518
272 1 8.49259 0.668969 3.28796 0.661952 -0.74293 -1.4076
273 1 8.30314 2.47951 2.63177 -0.334652 -0.69161 0.634704
274 1 5.53649 6.59185 7.01748 0.886599 0.858258 -1.40211
275 1 5.18845 5.66692 2.55791 1.435 -0.0208229 0.906233
276 1 7.74694 7.03047 3.20936 -0.579368 -0.791976 -0.0413538
277 1 4.50602 9.03021 4.15292 0.383455 -0.240873 0.590878
278 1 1.4208 4.658 5.74613 0.198342 0.571926 -0.31537
279 1 1.53565 7.76354 2.56191 0.0294316 0.173553 0.535483
280 1 3.15526 2.54692 2.62117 -0.129128 0.353678 -0.261612
281 1 5.96411 7.61276 3.9909 0.182996 -1.59684 -0.45113
282 1 9.22728 7.77761 2.47686 -1.09004 0.165897 -0.396826
283 1 0.266125 8.06213 3.32078 0.0539889 0.927658 0.167935
284 1 6.20152 7.64337 5.03387 0.294676 -0.757419 0.128479
285 1 7.12947 8.08216 3.78143 0.433464 -1.12143 -0.826066
286 1 2.80544 9.35046 7.78039 0.0695282 1.66517 -0.136066
287 1 3.00949 0.840148 6.94774 -0.600508 -0.401577 0.317777
288 1 3.29437 7.64444 7.44875 -0.291876 0.125923 0.220423
289 1 6.34103 2.22136 3.88526 0.00159558 0.784263 1.00362
290 1 3.07052 6.52468 7.72416 1.01703 0.212628 0.135747
291 1 4.70135 3.83355 9.08155 -0.480008 0.965204 -1.17116
292 1 0.400883 7.96008 6.05175 -1.00697 1.74052 -1.29509
293 1 0.647414 2.46371 3.50986 -0.0185174 -0.0931818 -0.779188
294 1 9.22479 5.86744 7.71585 0.291688 0.407195 0.599235
295 1 7.59063 4.46585 6.60117 0.35 -1.0727 -0.373664
296 1 7.66535 7.6386 1.31594 0.583845 0.206826 0.111722
297 1 6.13318 3.23349 3.96635 -0.461362 0.132676 -0.586554
298 1 3.20808 6.26924 5.90727 0.386944 0.21676 -0.17919
299 1 6.13207 6.45748 3.91596 -0.163544 -0.878772 -0.89399
300 1 0.738628 4.58787 1.85985 0.485061 -0.457882 -0.127122
301 1 2.58644 0.695378 5.17856 0.9014 -0.922967 -0.85546
302 1 6.76782 0.309734 6.28397 1.69545 0.123498 -0.0690185
303 1 1.17114 9.31109 1.92434 0.177719 -0.0494218 -1.22514
304 1 7.9823 4.25599 3.71588 1.02196 -0.0285504 -0.52347
305 1 2.24578 9.2407 1.44763 0.0796734 -0.0560222 0.914618
306 1 5.89502 9.20688 2.5262 0.19203 0.231652 -0.0615075
307 1 6.21709 9.27504 1.56674 -0.848432 -0.414284 -0.926546
308 1 1.06135 1.02195 7.21565 -0.557318 -0.177131 -0.127135
309 1 8.62259 6.93107 8.06728 0.222486 -0.147391 -0.285649
310 1 5.83713 5.09833 6.40498 0.320595 -1.1297 0.172953
311 1 8.31544 7.34426 9.34712 -0.925825 -0.381227 -1.26994
312 1 4.25605 5.97076 1.49928 -0.153276 0.285484 0.383107
313 1 7.33951 0.943774 2.0117 0.47641 0.48872 -1.59651
314 1 7.80718 5.06759 3.11157 1.68106 -0.528503 -1.48913
315 1 3.95934 5.54676 5.69473 -0.921278 -0.545326 2.38333
316 1 0.176108 4.09994 4.70044 -0.606061 0.487574 0.096059
317 1 9.12604 1.5063 8.25921 0.085773 0.409801 -0.619438
318 1 0.488368 6.064 6.60327 0.650598 0.67602 0.268149
319 1 1.76475 9.11264 8.11373 0.694931 0.063833 -1.00613
320 1 4.5273 6.17723 6.50287 0.891387 -0.738212 0.558109
321 1 0.642424 3.52536 1.68646 0.210057 -0.431043 -0.306159
322 1 1.05154 7.41512 3.62811 -0.761 0.220638 0.362948
323 1 4.08857 5.51675 2.62376 -0.91029 -0.629729 -0.853213
324 1 1.90187 4.1969 7.67179 -0.863865 0.038269 -0.85658
325 1 5.60229 5.07811 1.00165 0.885848 0.0875809 0.559581
326 1 5.75 2.0869 4.89989 -0.507913 0.887076 -0.155539
327 1 5.51781 9.332 7.95651 -0.457716 0.184757 -0.316433
328 1 6.83016 5.84752 0.780384 0.694446 -0.132455 -0.447388
329 1 8.98806 8.91322 8.54212 0.0489306 -0.996406 -0.987782
330 1 4.26975 5.96128 8.78868 -0.629639 1.01196 0.701191
331 1 3.73472 2.60377 4.5469 0.203681 0.766427 -0.730002
332 1 3.44346 1.64168 3.27045 -0.0214474 -0.759231 -0.472014
333 1 9.2483 4.93162 2.64621 0.662231 -0.890309 0.175935
334 1 0.289335 7.14927 6.58137 0.14868 -0.112518 0.443892
335 1 0.474167 2.38344 1.67692 0.713851 0.162189 0.361041
336 1 8.16172 7.43936 5.20266 0.828726 0.45128 1.00655
337 1 8.09884 4.17853 7.51244 -0.0130354 -0.413933 -0.517186
338 1 1.03672 2.74446 6.15045 0.189703 0.119931 0.824803
339 1 1.48279 3.28956 7.06364 0.578259 -0.3224 0.214701
340 1 3.70455 0.898159 2.53596 -0.387714 1.48696 -0.378971
341 1 7.21929 2.69726 7.83669 0.827017 0.816081 -0.449858
342 1 8.35765 5.24275 0.0906849 0.663045 1.4061 -0.287734
343 1 4.10586 6.16901 4.06269 -1.18333 -0.283241 -0.605678
344 1 1.52581 1.97273 5.15946 0.539717 1.64571 1.9749
345 1 7.09589 4.59021 8.14072 -1.11882 -0.89665 0.00140546
346 1 7.49318 8.54568 2.10909 -2.11052 -1.49676 -0.114777
347 1 5.6686 3.42416 7.309 -0.110714 0.127281 -0.320898
348 1 7.25754 2.33932 6.82126 1.2875 0.448914 0.678083
349 1 1.33033 5.24079 8.28577 1.12447 -0.0629963 0.34697
350 1 2.9431 3.92095 8.01147 -0.470569 0.586 -1.16601
351 1 6.6249 7.25876 3.37092 0.647261 0.0681697 0.278078
352 1 4.19495 7.8293 7.96876 -0.235779 0.399271 -0.14331
353 1 8.39744 2.56674 3.94847 -0.583079 -0.177832 0.719472
354 1 8.76247 6.51209 6.73557 0.628636 1.75462 0.705455
355 1 0.714249 8.38642 2.41511 -0.524438 0.771481 -0.694171
356 1 5.60785 1.63493 9.23126 -0.620443 -0.648941 -0.12691
357 1 0.470727 2.20545 8.63214 0.382351 -1.81533 -1.1656
358 1 4.10887 6.68033 5.67982 0.16851 0.566683 1.12474
359 1 4.58439 6.95541 7.28955 0.458799 0.620209 -1.18264
360 1 3.07532 0.256488 1.85865 0.0823938 0.131472 0.208658
361 1 6.83124 1.75716 4.70383 -0.593706 0.679063 -0.377617
362 1 0.747006 9.21781 3.09759 1.52043 0.199663 0.338977
363 1 7.29871 3.08825 1.34404 0.318349 0.275576 -0.0532135
364 1 0.521425 1.79615 7.54059 0.108281 0.301909 0.143317
365 1 1.31562 4.08322 1.10853 -0.386928 -0.140042 -0.464106
366 1 4.60893 0.0769937 0.634784 0.110395 -0.54956 -0.715307
367 1 3.5636 4.16197 1.47963 -0.0248641 0.0626124 1.17391
368 1 2.03945 3.54844 4.36349 -0.580146 0.153283 -0.121548
369 1 0.359826 7.16016 1.02953 0.773977 -0.705967 0.416184
370 1 1.26734 7.39234 7.90983 0.036856 0.309559 -0.902148
371 1 3.07161 3.97968 4.55602 -1.22179 -0.638225 -0.34302
372 1 5.82499 0.7798 7.31549 -0.755189 0.607821 0.631299
373 1 7.77133 5.9662 2.5584 -0.818284 1.0713 0.134817
374 1 8.89261 8.12351 5.42567 0.268085 0.730105 -1.1165
375 1 4.79338 6.51853 2.08586 -0.971021 0.0995989 0.0220625
376 1 5.87787 1.58141 8.07142 0.0659642 -0.920324 0.892482
377 1 2.71677 7.19375 6.46172 -0.0753076 -1.27422 0.380561
378 1 4.84165 8.54367 1.04243 1.23208 0.688081 -0.137379
379 1 6.53734 3.38826 5.77948 -0.180695 0.450686 0.60006
380 1 8.89229 4.60557 6.25834 0.717599 0.723416 0.490006
381 1 3.79892 2.62902 3.47651 -0.271731 0.262037 1.29988
382 1 4.44039 7.78621 5.42893 0.730248 0.359314 -0.838953
383 1 9.38364 8.55959 7.45269 -0.126035 -0.782596 -0.644552
384 1 2.93486 0.276679 3.00499 -0.137173 -0.258125 0.0980988
385 1 5.38066 7.36196 9.00515 -0.631461 0.774244 1.03053
386 1 9.36929 4.19315 3.44817 0.840916 -0.147824 0.982587
387 1 8.28662 1.30533 2.39959 0.909336 0.902274 1.16548
388 1 6.46327 6.06575 9.12006 0.775478 -0.759888 0.299641
389 1 5.08363 3.71188 5.17638 0.404994 0.466699 -2.38211
390 1 1.84961 6.98277 4.1264 0.541387 -0.633964 -0.74221
391 1 7.25961 0.7774 8.92283 -1.40357 -0.431252 0.0571304
392 1 4.74498 3.50139 2.36975 -0.568433 0.116585 -0.0789927
393 1 8.56427 7.28816 1.07053 0.307474 -1.08875 -0.306148
394 1 8.39443 5.45917 4.69119 0.303606 -0.298947 0.0163208
395 1 8.31961 1.05917 9.11493 -0.548794 0.958426 0.741065
396 1 2.1049 3.53343 1.40797 1.34228 -0.472568 1.01638
397 1 6.41908 3.09374 8.42152 -0.212346 -0.313944 0.455992
398 1 8.24531 2.44827 0.214102 -1.14846 0.302519 0.00959186
399 1 8.28123 1.48485 0.694708 -0.698447 -0.0148497 -0.393588
400 1 0.987915 6.25812 2.96979 -0.334955 -0.252492 -1.27806
401 1 4.50027 2.98464 8.56559 0.761487 0.483799 -0.728673
402 1 1.46783 2.78421 1.91314 0.015429 0.262619 0.50117
403 1 2.57053 4.34556 1.84925 0.433205 0.638013 -0.682179
404 1 4.8534 6.61493 0.0792795 0.410296 0.822407 -0.144647
405 1 2.54968 4.80775 8.31951 -0.691279 0.78964 -0.153992
406 1 5.18753 9.19126 1.72226 0.667769 -0.143574 1.32084
407 1 6.80983 0.56307 7.26926 -1.11521 -0.565347 -0.97381
408 1 2.38641 0.992047 0.143512 0.595261 0.469223 0.815623
409 1 2.887 3.12516 5.17298 0.568405 -0.887509 0.777648
410 1 8.74742 0.251506 7.92217 -1.34347 -1.37093 -0.0196232
411 1 4.72802 7.40388 2.92567 1.78101 -0.192371 0.617028
412 1 0.260297 8.8677 3.97261 1.18316 -0.105114 -0.708253
413 1 2.93508 8.52615 1.18458 0.150693 0.914583 -0.504575
414 1 6.5389 0.854809 8.18553 0.0520957 0.00758189 -1.49573
415 1 8.18441 0.0708907 8.90519 -0.750112 1.24865 -0.143212
416 1 0.260378 0.690115 7.9632 -0.168525 0.682288 -0.42132
417 1 4.53096 1.30594 3.17287 0.414552 -0.721158 -0.225138
418 1 3.05704 1.99814 4.12719 0.158259 0.123793 -0.463597
419 1 5.51473 1.44089 1.97881 0.187383 -0.398266 -0.524014
420 1 2.62311 4.86571 5.10995 -0.323158 0.0777958 -0.809185
421 1 6.33845 6.8946 5.77832 0.891911 -1.23913 0.0898414
422 1 8.04559 3.9173 5.48825 -0.249841 0.962133 0.455944
423 1 7.31829 2.5976 4.32083 -0.842523 0.50177 -0.123026
424 1 3.46231 6.20746 3.13809 -0.360939 -0.230439 -0.359057
425 1 1.9347 1.23814 6.70888 -0.388978 0.299985 -0.915094
426 1 2.49222 1.95819 8.47423 -0.099544 0.102557 0.193318
427 1 6.90419 4.44535 5.54342 0.726462 -0.0137143 0.21551
428 1 4.10296 7.93466 6.83598 -0.196757 -1.14541 0.136211
429 1 6.77829 9.07456 4.15864 0.00128452 0.988621 0.447391
430 1 8.08309 4.90415 5.65824 -0.764074 0.491093 0.184133
431 1 7.9729 1.97819 4.77543 0.0336961 -0.258027 -0.315399
432 1 2.60605 7.64589 2.67261 0.534073 -0.281579 1.19332
433 1 1.45594 8.80065 5.1165 -0.0411959 -0.757473 0.187841
434 1 7.47193 5.82517 9.32787 0.796893 -0.947309 -0.241969
435 1 7.60401 5.6526 1.44318 -0.632463 0.118272 0.118105
436 1 8.43042 6.28042 5.74373 0.0754195 -0.818361 0.173762
437 1 6.37677 4.63102 2.90736 0.2097 0.157456 0.519876
438 1 2.77236 6.54142 2.30905 0.0931023 -0.167911 0.761704
439 1 3.29087 7.94057 3.59637 -0.748058 0.78555 -0.469886
440 1 6.69016 4.96001 1.31513 0.751234 0.0670561 -0.0503625
441 1 6.59179 2.61067 2.06373 -0.739021 -0.844346 0.24703
442 1 6.16297 3.80532 4.8805 0.425981 0.150431 0.0636827
443 1 1.8567 4.73823 2.65911 0.282732 -0.700607 0.00682542
444 1 8.13467 6.02346 3.51755 -0.758288 0.710884 -1.44979
445 1 6.6302 3.78432 7.65468 0.641692 -1.32268 -0.348741
446 1 8.46988 1.57612 6.67394 -1.0457 -0.719728 -0.519355
447 1 0.669229 6.08622 0.630426 -0.732024 -0.761842 0.399734
448 1 2.49305 7.43539 9.13057 0.872623 1.11084 -1.11742
449 1 5.51143 5.54783 7.22164 -0.483152 0.413937 -0.990244
450 1 2.47095 8.34938 6.60636 1.03691 -0.250851 0.54663
451 1 5.32703 3.72584 8.31841 -0.578674 0.649529 0.00725565
452 1 5.42696 5.90799 8.99369 1.02242 0.492686 0.722994
453 1 2.35109 3.22216 6.1912 -1.70413 0.189725 0.353318
454 1 1.63185 7.64316 0.201462 0.353219 -0.516668 0.89258
455 1 9.34918 5.95342 5.31488 0.20875 0.373803 0.523289
456 1 1.42677 3.86236 2.24886 0.121962 -0.181863 -0.130155
457 1 7.84073 7.44236 8.34662 -0.507183 0.912883 -0.0149835
458 1 2.4379 5.35361 4.26964 -1.01629 -0.467297 0.514728
459 1 8.92182 3.85633 8.13883 0.0984385 -0.470834 -0.660568
460 1 6.70457 2.34942 5.84951 0.424798 -0.635509 0.836182
461 1 9.19861 3.85803 9.30153 -0.101899 -0.375935 -0.754866
462 1 4.08979 8.97749 9.19353 0.464453 1.34218 0.176297
463 1 3.31902 1.23473 8.94752 -0.0227546 -0.531319 -1.05584
464 1 7.51138 3.00491 5.97971 -0.112821 0.0524656 0.211594
465 1 0.820654 6.5135 7.42008 -0.365462 0.0881848 0.745266
466 1 4.89976 1.81787 8.38291 -0.95979 -0.773772 -0.886719
467 1 4.53071 1.60985 1.63937 0.797121 -0.309984 0.742035
468 1 8.00162 7.65412 4.18103 -0.716268 -1.33926 1.05584
469 1 5.86056 1.81714 5.95119 -0.928269 0.119998 -0.616011
470 1 8.24601 2.70157 6.74786 -0.586427 0.36755 0.886509
471 1 3.11404 2.38376 6.20451 -0.46515 -0.12241 -0.795041
472 1 9.01612 2.97564 2.03882 -0.165534 0.388421 0.563685
473 1 3.79912 1.99997 8.56825 -0.477707 -0.197265 1.03672
474 1 8.0523 0.57932 1.4008 -1.14561 1.7445 -0.588301
475 1 1.56214 1.51602 9.01338 1.14798 -0.239038 -1.41266
476 1 0.643963 9.34312 8.61213 0.380245 -0.0708446 1.52632
477 1 1.28206 0.0203437 0.869359 0.644655 0.0969243 -0.310755
478 1 5.22695 8.40029 8.48456 -0.10437 0.832884 -0.0478763
479 1 1.68168 4.89482 1.60229 1.03355 0.0163717 -0.0855042
480 1 5.54677 0.705589 0.341181 -0.258524 -0.0619051 -0.356658
481 1 3.68114 3.56271 2.95253 0.106795 0.106548 -0.146281
482 1 9.06105 3.26429 7.22691 0.0552533 -1.04481 1.32776
483 1 2.84401 6.86985 3.72662 -1.57762 -0.916836 0.409653
484 1 5.00806 0.0380796 5.00156 -0.163401 0.512663 0.682456
485 1 6.04378 5.41844 8.42073 -0.539229 0.461121 0.459977
486 1 6.49048 0.28649 3.23881 -0.0382806 0.963349 -0.287133
487 1 7.17783 4.967 2.32464 -0.859666 0.118849 0.992913
488 1 7.1182 6.83816 7.90624 -0.620906 0.960709 -0.253607
489 1 0.556843 1.16563 8.75604 0.914984 0.506396 0.154763
490 1 2.79438 7.55044 4.45902 0.241645 -1.41506 1.01208
491 1 7.96411 8.04975 2.99354 0.38633 -0.470088 -0.915115
492 1 8.00095 9.22164 6.32954 -1.10502 0.414987 1.69873
493 1 7.26856 1.67574 8.43047 -1.42622 0.0809018 -1.15704
494 1 4.77283 2.10392 5.84926 0.74358 -0.807908 -1.58245
495 1 5.8665 2.78875 2.82965 -0.701319 -0.423585 0.224952
496 1 3.1266 2.78495 8.44051 0.585014 0.244226 -0.529051
497 1 3.15554 8.98593 0.262912 -0.865895 0.554576 0.119336
498 1 7.65879 0.116163 8.03577 -0.0410053 0.265341 0.745894
499 1 3.91839 9.20334 2.17764 -0.71928 -0.539321 -0.808379
500 1 5.34177 5.91361 1.51105 0.330245 0.789474 -0.93099
501 1 4.1899 7.79751 4.30774 -0.129103 -0.0740477 -0.40695
502 1 0.846373 4.59727 2.92379 -0.0516989 -1.18757 -1.21211
503 1 5.57415 6.66965 2.93777 -0.192654 0.510851 -0.429763
504 1 6.67809 2.21214 0.839597 -0.0566835 0.319937 -0.680305
505 1 9.1171 6.92284 1.89365 0.265214 -0.258836 -0.183646
506 1 1.17579 0.305308 5.51414 1.06428 -0.256279 -0.113366
507 1 8.37372 8.77293 7.40447 1.10689 0.0675235 0.547445
508 1 6.14531 8.50808 3.38822 -0.535161 -0.31114 1.25947
509 1 0.24901 7.56155 7.65267 -0.103322 1.90454 0.519209
510 1 8.30229 0.498082 4.46216 -0.29855 0.550546 -0.511851
511 1 6.55042 6.26581 4.84886 0.117573 -0.231823 -0.0992949
512 1 9.29185 5.79821 4.27197 -1.5133 0.0459503 0.930561
513 1 1.10128 7.84911 5.38489 -0.83285 -1.9503 -0.134228
514 1 7.82418 7.20249 6.17611 -0.445005 0.529217 -0.392244
515 1 7.48171 5.73323 5.09557 -0.453572 -0.746359 0.199249