ITEM: TIMESTEP
30820000
ITEM: NUMBER OF ATOMS
1000
ITEM: BOX BOUNDS pp pp pp
0.0000000000000000e+00 9.4000000000000004e+00
0.0000000000000000e+00 9.4000000000000004e+00
0.0000000000000000e+00 9.4000000000000004e+00
ITEM: ATOMS id type x y z vx vy vz
1 1 1.07554 4.16685 9.25063 -0.87719 0.635139 0.555866
2 1 7.04592 5.79414 0.904012 -0.570026 0.387378 1.18235
3 1 3.50651 4.55205 2.13123 -0.20695 -1.33292 -0.534866
4 1 8.49763 7.58033 6.71771 0.598945 -0.193059 -0.525323
5 1 2.36022 0.173897 4.18287 -0.697507 1.58281 0.152841
6 1 5.41037 8.20891 8.5061 0.481939 -0.160573 0.120616
7 1 9.28641 6.84233 0.107515 -0.131847 -0.776022 -0.65929
8 1 3.99006 0.506642 6.77755 0.201274 -0.141068 -0.0360962
9 1 3.08828 5.54561 5.41054 -0.0171642 -0.937043 -0.246732
10 1 8.89197 7.77719 0.0762508 -0.781609 -0.991892 0.269133
11 1 6.17213 0.978906 6.97172 -1.07205 -1.03187 -0.167597
12 1 0.527059 1.1151 1.8517 -0.0603571 -0.997115 -1.40704
13 1 1.08094 2.3398 0.665309 -1.03787 0.337956 1.14288
14 1 4.17524 4.97885 2.82766 -1.19525 -0.593216 -0.629431
15 1 6.83953 2.84345 0.341049 -0.0635236 -1.19814 0.866596
16 1 1.23995 0.695214 5.79376 1.10132 -0.0689914 -0.867297
17 1 8.76081 2.51439 0.205865 -0.132571 0.045261 -0.433196
18 1 6.4606 6.45642 8.90906 0.357009 0.273949 0.714975
19 1 3.93133 3.77243 9.042 0.0615921 -0.52077 -0.927171
20 1 6.15926 4.20464 6.61481 1.16459 -0.428048 -0.231507
21 1 8.53627 2.34826 3.53123 0.900082 0.0433997 0.0303993
22 1 3.45891 3.16812 6.51548 -1.92868 -1.86155 1.16425
23 1 4.04051 1.14713 8.53891 -0.079502 0.513562 0.483666
24 1 2.43656 3.1524 6.67732 0.108365 -0.104685 -0.467448
25 1 5.53438 0.864895 7.73681 -0.577066 1.14072 0.838667
26 1 0.691708 4.36042 2.56606 0.296309 -0.751285 -0.929647
27 1 0.64684 7.2458 1.97665 0.603427 1.04953 0.179527
28 1 4.08173 3.26855 3.57528 1.177 -0.113897 -0.411277
29 1 0.726133 3.10222 5.80387 0.569423 -1.66609 -0.029574
30 1 0.780657 1.97438 5.78003 0.369512 0.351295 -0.375841
31 1 2.6769 3.97055 2.22242 -0.0756547 -0.688343 1.02694
32 1 5.93756 7.04281 6.33955 -0.453764 -1.12205 0.473636
33 1 1.46417 0.345725 7.40574 1.33322 1.10664 -0.685546
34 1 6.89491 0.00618131 3.55777 0.487375 -0.281188 0.628559
35 1 0.0229158 1.80867 3.70106 -0.508456 -0.369355 -0.781313
36 1 3.40122 7.81226 2.19105 0.533282 0.41107 -0.800778
37 1 4.63283 1.37269 0.125723 -0.51169 0.125584 -0.156184
38 1 2.38512 7.18792 5.17014 0.712938 -1.34448 -0.369531
39 1 0.385097 0.429592 7.76923 0.407594 0.944174 -0.180945
40 1 7.7279 1.14463 0.238867 0.446277 1.01532 2.15213
41 1 8.61693 6.57551 6.31133 1.23919 0.0209254 -0.156893
42 1 1.45365 0.261328 3.52831 0.14305 -0.661282 -0.122227
43 1 1.26378 2.22936 8.04808 -0.00511587 1.63859 0.749893
44 1 3.2836 3.60212 5.12936 -1.12958 -0.612567 -0.917789
45 1 5.39181 2.93054 5.24956 0.818224 0.228793 -0.41903
46 1 2.78574 4.54865 5.09113 0.00297571 -0.494658 -0.325822
47 1 1.33329 6.36992 8.4934 1.13964 0.474674 -0.532931
48 1 5.18273 5.1466 2.95367 0.178122 0.267767 1.33288
49 1 3.6114 4.17304 6.94242 -0.546081 -0.771532 -1.47374
50 1 1.26527 8.91991 2.79916 0.0682904 -0.0264424 -0.654929
51 1 2.89616 6.31976 4.74046 0.129855 0.0249212 -0.437324
52 1 3.28048 1.87716 1.49904 0.251235 0.164273 0.0173959
53 1 4.6546 2.65033 4.33049 0.243254 -0.271575 -0.0494355
54 1 7.38046 8.31864 8.1899 -0.860498 0.387676 -0.200926
55 1 1.02134 5.72062 7.27444 -0.190667 -0.310497 0.552547
56 1 1.19266 5.19874 9.25231 0.72342 -0.276717 0.646056
57 1 9.08052 8.80324 7.77878 0.407328 0.224686 -0.470286
58 1 7.82838 7.39428 8.07174 0.686864 0.824321 -0.211916
59 1 8.37561 9.15662 4.92381 -0.567669 -1.08224 0.568371
60 1 1.88579 8.4638 1.4535 -0.236969 1.65555 -0.295289
61 1 4.5178 2.27432 3.38802 -0.629045 -1.36485 -0.292918
62 1 0.786072 0.251188 0.0570899 0.189946 0.268945 -1.22679
63 1 7.17099 9.01117 6.72341 -0.828027 0.162573 0.734657
64 1 8.16562 7.02431 9.30541 -0.369084 0.528308 -0.692312
65 1 7.63097 1.58852 4.77715 -0.00879225 -0.00713502 -0.452574
66 1 2.78278 6.02725 7.49541 0.157589 -1.94261 -1.22095
67 1 2.58463 0.563147 2.37471 0.185462 0.307551 -0.53926
68 1 3.70741 6.343 0.399626 -1.06008 -0.534399 0.0143935
69 1 5.67919 4.06446 2.91326 -0.216234 0.924835 -1.59856
70 1 7.68441 3.8483 3.70328 -0.128149 -0.73409 0.585144
71 1 8.16023 4.06872 0.562889 -0.334814 -1.14092 -0.472565
72 1 7.81271 -0.0210561 5.92353 -0.445044 -0.879856 -0.470345
73 1 4.08494 5.84903 6.11338 0.5956 0.0620711 -0.718354
74 1 6.77851 0.158847 4.52897 0.699491 0.679185 0.232586
75 1 8.27147 0.319265 9.03631 -0.678447 0.522785 0.100798
76 1 6.87371 2.48892 1.32183 0.00809532 0.772234 -0.123708
77 1 2.40779 3.14367 4.77974 0.324181 -0.925586 0.0253488
78 1 2.78277 7.01999 1.44212 0.614533 -0.871437 -1.16663
79 1 5.4118 0.642234 0.317853 -0.820341 -0.55217 0.719435
80 1 0.219669 4.90621 6.76831 -0.425038 -0.724184 -0.180513
81 1 4.06816 8.35821 3.59455 -0.915578 -0.66265 -0.370121
82 1 5.77851 2.57252 4.17628 0.977925 0.041406 0.245091
83 1 4.33696 7.48777 4.19195 -0.266244 -0.164585 0.420572
84 1 0.389623 8.06109 7.744 0.266399 0.713609 -0.090777
85 1 2.3466 3.44122 1.41488 0.241741 0.649383 0.0700863
86 1 4.16093 5.3151 0.507761 1.26238 0.56147 0.120395
87 1 6.81526 2.99599 3.87006 0.275022 -0.643408 -1.60687
88 1 0.133361 2.39248 7.46272 -0.718545 0.492922 -0.652449
89 1 -0.0472265 3.62272 3.50834 -0.883901 -0.382116 0.1628
90 1 6.64268 3.91193 3.46313 -0.90789 0.602886 -0.329927
91 1 0.568108 5.80893 6.24309 0.025757 0.228428 -0.747991
92 1 7.95653 6.37185 8.53232 -0.699295 0.598844 -1.06444
93 1 2.44847 8.51771 3.90168 0.42084 -0.291839 -0.125972
94 1 8.70519 7.57693 2.73737 -0.436442 0.567573 0.661258
95 1 3.46749 5.74787 2.40714 -0.732811 -0.0559389 0.137958
96 1 3.00503 0.453797 0.3656 -0.843121 -0.0681715 0.311795
97 1 2.8874 2.71097 2.10284 0.837758 0.52622 0.191438
98 1 4.59212 0.623609 2.31281 0.326398 0.236638 0.696912
99 1 3.47 1.52754 5.15591 -0.466233 -1.09589 -0.288304
100 1 5.32644 8.83576 5.55613 0.723637 0.347932 -0.269445
101 1 3.94438 6.89586 1.89892 -0.705618 -1.02348 0.241597
102 1 7.03979 1.53297 2.82965 0.712943 -0.176833 0.413082
103 1 9.06565 7.83556 1.70262 0.00414369 -0.603688 0.445407
104 1 3.00847 8.36514 8.44983 -1.2435 -0.515913 0.822963
105 1 7.75485 6.71083 5.26016 1.38673 -2.0097 -0.283128
106 1 7.33357 2.74882 7.38776 -0.153222 -1.00978 0.714774
107 1 6.50357 7.38708 1.31746 -1.04198 0.575465 0.514838
108 1 7.73379 1.49818 5.77933 -0.16593 -0.905471 -0.512206
109 1 6.31821 4.98008 3.54502 -0.0193167 -0.516736 1.05365
110 1 9.30781 4.46398 5.7699 -0.388593 1.38505 -0.470583
111 1 4.29271 7.19137 8.51244 1.46559 0.0654899 -0.888108
112 1 3.8747 9.25791 0.864608 0.602642 1.34256 -0.644449
113 1 2.03786 3.71724 9.14208 0.376067 0.0689443 -0.559815
114 1 3.25365 7.81273 3.93529 -0.589626 -1.13464 0.78781
115 1 4.97022 1.24049 5.11797 -0.0515244 -0.09471 -0.57178
116 1 5.26772 5.62391 7.73549 0.201596 0.220659 -0.307323
117 1 6.95523 5.43529 9.04247 -1.03788 -1.92508 0.111252
118 1 7.26557 1.47548 7.09397 0.755948 0.731552 0.162748
119 1 8.70099 6.56557 2.88288 -0.677825 -0.344831 -1.07773
120 1 3.12605 6.78107 2.58695 0.993399 0.11404 -0.177309
121 1 5.46663 8.16325 7.43713 0.397138 0.0251525 1.39569
122 1 8.81363 0.63831 8.24137 0.214071 -0.249541 0.243223
123 1 2.27892 0.999879 6.70478 -0.159995 0.681275 -0.941435
124 1 4.64547 9.26239 6.22285 0.296297 -0.0411114 0.519099
125 1 6.37647 3.72794 5.64033 0.0382161 -0.00197308 0.243938
126 1 9.24901 4.8693 0.836513 0.703535 0.374269 0.0526196
127 1 1.84766 8.21909 5.11704 -0.0198044 -0.0750895 -0.88453
128 1 5.21198 7.30443 8.0828 0.621042 -0.514782 0.327694
129 1 3.48326 3.02239 1.21174 -0.882579 -1.36247 0.673657
130 1 2.88584 7.12845 7.62554 -0.534471 -0.811106 -0.37949
131 1 1.19346 1.46328 4.41224 -0.965265 0.0579739 0.686806
132 1 7.03819 4.98141 4.25689 -0.875974 -1.08904 -0.387039
133 1 6.33911 6.28784 1.57224 1.89934 -0.785439 0.329766
134 1 4.36982 1.54698 6.04448 1.17895 -0.470741 0.465412
135 1 5.90339 1.28411 4.46963 -0.894457 0.593577 0.376242
136 1 2.30592 1.86765 8.49008 -0.534926 0.434571 -0.293689
137 1 1.9746 4.80329 8.62248 -0.224506 0.514555 -1.30396
138 1 6.26304 5.45973 7.15753 0.500238 -0.184111 -0.325697
139 1 0.0693055 7.22301 4.65243 1.22062 -0.865997 0.757498
140 1 4.51599 4.33641 5.29381 -1.31915 -0.197824 0.284639
141 1 4.55038 8.76905 7.11534 -0.72373 -0.0483982 0.841424
142 1 2.00813 3.0293 0.470886 -0.53906 0.241717 0.744523
143 1 4.30024 6.26204 9.0029 0.792422 0.158815 0.013082
144 1 1.25506 5.03484 6.56597 -0.624217 -0.0844682 -0.513397
145 1 5.70417 3.33461 8.32162 1.57327 0.450335 1.21423
146 1 7.83275 0.165263 2.44353 -0.333327 -0.165627 -0.200507
147 1 5.0329 7.44125 5.92843 0.216988 0.460019 0.739414
148 1 4.35534 4.72391 7.51427 -0.426304 -0.783007 -1.37735
149 1 0.0181466 6.26169 2.23605 -0.696759 0.589676 -1.17844
150 1 3.76541 0.935363 0.972496 1.52796 0.736295 1.44042
151 1 1.34188 6.62166 6.5503 0.193471 -0.367526 0.751738
152 1 4.77157 6.69308 0.399371 0.413222 -0.135279 -0.909656
153 1 9.04236 5.16654 9.25084 0.821611 -0.355885 -0.875085
154 1 6.06844 3.6619 9.40756 -0.543791 1.4347 0.372469
155 1 6.88674 5.32943 1.83824 0.595432 -0.165924 0.066169
156 1 5.17596 0.448436 3.11771 0.923051 -1.23388 0.279981
157 1 8.41108 1.54765 6.53615 0.354193 -0.617145 0.291099
158 1 4.90332 3.94113 9.00036 -1.4033 0.573185 0.262315
159 1 1.35729 7.09659 4.6839 -0.0547373 -0.41875 0.729104
160 1 7.06109 8.2548 5.94485 1.64438 -0.292539 0.261165
161 1 9.10482 3.76224 0.850789 -0.940497 -0.656945 0.461296
162 1 9.39739 0.808377 0.364079 0.915436 1.71339 0.808334
163 1 9.12984 3.47351 6.00362 -0.0872484 1.07097 -1.02444
164 1 5.37916 6.17566 3.07778 1.13922 0.61368 1.61621
165 1 6.88738 9.2426 2.52309 0.438472 0.273208 0.990968
166 1 0.681662 4.57206 5.09989 -0.442497 0.0601914 -0.181221
167 1 5.58292 7.66198 1.82635 -0.0688769 0.289508 -0.151791
168 1 6.59858 4.52523 8.75441 -0.179297 0.255634 -0.521357
169 1 2.744 5.38769 8.37063 0.49967 -0.0223555 -0.581374
170 1 2.74232 2.13138 6.48882 -0.516276 -0.130678 -0.480918
171 1 0.641263 4.0999 4.20152 1.25053 1.00075 0.112861
172 1 3.66103 3.46369 2.16204 -0.667185 -1.37801 -0.668866
173 1 8.81766 7.76805 7.80167 -0.866726 -0.392396 -0.509955
174 1 1.55809 2.71865 5.19044 -0.595049 -0.761428 1.01255
175 1 6.81509 8.27796 3.13678 -0.235149 -0.913356 -0.576162
176 1 1.339 1.49935 6.47957 -0.520628 0.161562 -0.00755531
177 1 3.07685 0.125438 1.41561 -0.747554 0.354421 -0.81485
178 1 0.0377536 7.29425 6.85408 -0.348771 0.136149 0.278719
179 1 5.46139 7.93071 3.96018 -0.474986 0.560321 -1.06032
180 1 1.64052 0.612327 4.79938 0.237373 0.288463 -0.190627
181 1 7.46513 7.34154 0.529699 -0.0896662 0.717026 -0.163969
182 1 3.51956 0.925211 3.03609 2.08372 0.313511 0.500146
183 1 3.43016 9.12409 7.2562 -0.66912 -0.428933 -0.422917
184 1 2.89378 3.6979 8.64081 -0.212366 -0.33887 0.011343
185 1 0.654246 7.17624 8.52928 0.679814 0.186146 0.792871
186 1 1.21794 5.48006 5.38551 -0.545193 0.288137 -0.653282
187 1 1.11504 2.93912 9.1817 -0.907692 0.468484 0.535508
188 1 2.52034 6.07648 1.91787 -0.574313 -1.48583 -0.435019
189 1 1.16082 3.09593 4.14578 0.137132 0.432515 0.206699
190 1 8.36169 4.83469 2.41809 0.331862 -1.37276 -0.290793
191 1 5.46076 4.80929 0.0711483 0.359667 0.218925 0.127222
192 1 0.198385 5.28427 7.77504 0.220005 0.893749 -0.0794663
193 1 3.37181 7.37032 6.56222 -1.3748 2.35872 -0.45465
194 1 3.08032 3.42819 0.304004 0.632428 0.0519345 -0.0459264
195 1 0.800987 8.0597 3.06653 0.700349 0.365115 0.312338
196 1 2.25611 9.21992 2.97643 -0.581126 0.526948 -0.0132273
197 1 2.30779 5.07956 6.00162 0.0154462 -1.19476 -0.065616
198 1 2.44826 4.2332 0.478962 0.721497 -1.06439 -0.357208
199 1 2.53553 6.80724 6.71059 0.673946 -0.779729 0.221877
200 1 3.60284 8.64297 6.36319 0.605104 0.210707 0.267719
201 1 0.246446 7.53809 0.807432 -0.613851 -0.228159 0.606292
202 1 8.61431 3.66335 4.20902 0.433083 -0.51972 -0.21671
203 1 4.19797 6.71595 6.57775 0.111118 -0.36345 1.01372
204 1 4.6701 3.92349 6.75743 0.74726 0.747808 -0.15216
205 1 7.66648 7.27342 6.13257 -0.524892 0.542839 -0.40057
206 1 0.649147 2.24042 4.77245 0.156052 -0.527166 -0.524671
207 1 7.17622 1.93915 8.06465 -0.358141 -0.286466 0.539386
208 1 7.76665 3.96629 6.95512 0.0806765 0.0627317 1.1563
209 1 4.52274 1.13217 7.55282 0.534494 -0.283626 -0.491441
210 1 1.90315 3.0643 8.34437 0.432016 0.805612 0.119459
211 1 2.01058 2.28524 2.36989 -0.379214 -0.247541 0.158722
212 1 6.52379 7.62916 3.97375 0.34151 -0.225682 1.47281
213 1 3.16976 0.958317 4.01092 -0.595431 0.582435 0.247655
214 1 7.36008 2.18266 9.05759 -0.414796 -0.222995 -0.674045
215 1 2.1283 5.55569 4.93529 0.458822 -0.8814 0.588934
216 1 4.90066 5.35401 5.6964 -0.384178 0.84981 0.445067
217 1 7.47963 9.01379 8.92346 1.09966 -0.611835 1.38185
218 1 4.3455 3.56931 1.34126 -0.919849 -0.756523 0.577778
219 1 6.49686 6.7311 0.540523 -0.327637 -1.8416 -0.189484
220 1 0.371756 3.24003 1.96612 -0.581423 1.21208 -0.332779
221 1 9.21008 8.42378 6.79302 0.465619 0.422898 0.260597
222 1 4.53172 4.23563 0.488179 -0.844292 0.661941 -1.10593
223 1 4.2248 8.28323 0.456677 -0.813158 0.318299 0.256526
224 1 6.85156 6.33641 2.98249 -0.414104 0.7281 -1.11457
225 1 4.82694 5.51326 6.82377 -0.0629121 0.266662 0.587701
226 1 9.33229 6.71388 1.31785 0.0109121 0.775837 -0.775217
227 1 4.96835 8.1587 1.22881 0.0226908 -1.02283 0.69669
228 1 7.14177 3.61954 9.06005 -1.36746 -0.344797 -0.670579
229 1 1.0515 8.94612 7.84487 0.498863 -0.0230202 1.39845
230 1 3.58763 1.07084 1.93552 -0.508821 0.776644 1.4641
231 1 9.23225 5.88217 6.99381 -0.355449 -0.176818 0.828952
232 1 6.15831 5.80823 0.258654 -0.249214 0.187624 0.672781
233 1 9.32535 8.20365 8.68361 -0.140522 0.0877659 1.73119
234 1 2.10092 0.570948 0.895979 0.317745 -0.177272 0.342919
235 1 7.14067 4.27352 6.16554 -0.118793 1.42473 -0.075098
236 1 1.79761 8.73187 7.20388 -1.22834 -0.00686248 -0.362221
237 1 6.98584 0.932557 1.03616 0.376495 1.08456 0.122245
238 1 4.54738 8.98393 8.97874 0.426312 -1.07356 1.26796
239 1 2.38358 7.78587 5.98567 -0.210265 -0.486248 0.440102
240 1 5.697 1.20095 5.89637 -0.606793 0.532608 -0.165568
241 1 2.6468 7.35925 3.2292 0.738435 0.201972 -1.15184
242 1 8.45855 3.37718 5.25562 -0.573708 0.860562 -0.103389
243 1 1.45676 8.75849 9.40133 -0.327027 -0.0654919 0.908162
244 1 6.49564 0.517897 0.147635 1.93609 0.164815 -1.639
245 1 6.33176 3.59529 2.20369 0.261746 -0.0913936 1.00376
246 1 1.57542 6.05059 1.39919 -0.879595 0.103536 -0.0690788
247 1 5.08195 3.21612 3.52394 0.77942 1.19013 -0.0704414
248 1 6.69707 1.96829 4.42528 -1.27665 1.67285 -1.04983
249 1 1.29453 4.16155 8.12882 -0.318562 -1.04854 0.446087
250 1 3.89297 8.33032 4.66984 0.616555 -0.259188 -0.207222
251 1 7.50305 2.6047 4.54909 -0.783967 -1.34407 0.215071
252 1 3.67549 2.65962 2.82137 0.578613 -0.361064 -0.46272
253 1 0.300184 6.72441 5.99733 -0.492704 -0.218123 -0.993426
254 1 7.88577 2.5436 1.76525 -0.462106 -0.014437 0.712427
255 1 5.04144 1.30505 8.51565 -1.02856 0.556488 0.402485
256 1 0.29753 4.63346 8.60608 0.627838 0.77949 -1.31756
257 1 3.16614 8.1128 0.156176 0.46875 0.815746 -0.969384
258 1 2.61514 2.41788 3.25785 -0.184519 0.236675 -0.459999
259 1 3.58692 5.53117 9.04517 0.799931 1.63946 0.435508
260 1 4.05217 3.07778 7.31942 -0.218199 0.918918 0.467703
261 1 7.09404 3.81027 0.666327 0.559181 0.0716056 0.981091
262 1 5.67538 0.0575636 2.16701 -0.235692 -0.22726 -0.667923
263 1 5.95053 3.63545 4.21474 -2.0922 -0.499104 0.0435097
264 1 7.57332 5.83698 4.62713 1.03847 0.572492 -1.69142
265 1 5.44057 3.94993 5.02103 0.954853 -0.00484643 0.122061
266 1 7.3414 6.64391 3.83627 -1.17093 -0.316806 1.25524
267 1 4.17977 2.58824 1.85267 1.28504 0.0507883 1.13855
268 1 6.36795 8.78116 8.28688 0.457376 0.504528 -0.378154
269 1 2.60116 6.01449 0.81643 0.267763 -0.0324064 1.54689
270 1 7.60792 7.59625 3.43282 1.68863 -1.39724 -0.0877148
271 1 7.8652 7.98742 9.07697 0.203416 -0.354175 -0.75955
272 1 8.54369 1.33474 3.31352 0.226201 -0.797142 -0.169944
273 1 8.52257 3.30629 3.07684 -0.659983 1.58226 -0.536695
274 1 6.79662 7.44558 6.72093 0.701815 0.246329 0.608931
275 1 4.38734 8.25385 5.72552 -0.573613 -0.7723 -0.101674
276 1 9.28007 5.13407 1.93428 -0.252117 -0.398382 1.76388
277 1 4.057 1.79711 4.44057 -0.456933 0.442273 0.0982885
278 1 2.04389 5.64142 6.87745 0.406451 0.680078 -0.224148
279 1 2.39362 0.851946 3.32385 -0.45537 0.181385 1.82151
280 1 4.72041 4.20044 2.20192 0.718013 -0.850445 -1.84256
281 1 6.22046 8.62941 3.9709 0.349071 0.327653 1.49834
282 1 9.05161 0.103003 2.30437 -1.69074 -0.441808 -0.11762
283 1 7.7414 9.29084 4.15371 1.48187 0.51803 -0.174472
284 1 7.9774 8.21585 5.21291 -0.220837 0.196146 -0.168177
285 1 4.45185 6.09007 2.59321 0.25984 0.787622 0.0421879
286 1 9.13206 1.68142 8.19495 0.796808 0.389159 0.710432
287 1 3.55333 0.616739 7.7825 -0.284005 -0.650073 -0.671261
288 1 2.01955 2.00501 0.26493 -0.497503 -0.428752 -1.19774
289 1 6.68535 1.19066 5.18219 -0.36224 -1.63767 -0.415785
290 1 0.936548 8.20429 8.61726 -0.0354352 -0.00317751 0.688126
291 1 5.2909 1.82374 7.44417 0.86143 0.762613 -0.0759938
292 1 0.912519 7.14901 7.38049 0.667689 0.304628 -0.381327
293 1 1.55971 9.05469 4.41594 -0.338302 -0.534822 0.0909908
294 1 8.32554 3.86819 7.85345 0.43682 0.529086 0.139681
295 1 6.81946 5.40006 6.28135 -0.551167 -0.924769 0.061275
296 1 5.59441 7.36211 0.790558 -0.776915 -1.60164 -0.0775375
297 1 4.13534 2.09264 0.90831 -0.893667 0.117251 0.115325
298 1 4.01232 5.25208 5.14382 -0.522465 0.527107 0.527843
299 1 6.05691 6.71417 2.44862 -0.808545 0.0835971 -1.18253
300 1 7.34176 3.5997 2.74591 -0.271018 1.05142 -0.11818
301 1 8.8414 2.54989 6.58503 0.326412 0.782289 -0.800839
302 1 0.778787 0.493038 4.23931 0.845625 -0.394624 1.05958
303 1 0.341742 9.15041 8.54847 -0.199275 0.251252 -0.460262
304 1 5.58175 4.61124 1.94382 0.788686 -0.82763 0.223997
305 1 4.99459 2.3217 0.255431 -0.843604 0.18413 -0.900976
306 1 8.62169 0.24416 3.2165 -0.187868 0.202128 -0.208873
307 1 5.69424 8.27833 0.396353 0.0303947 0.0769829 0.024573
308 1 7.24895 0.742568 6.45208 -1.05955 0.595468 -0.0659988
309 1 8.66274 4.73885 8.41443 -0.5543 -0.145233 0.179975
310 1 2.81855 4.79409 6.85053 0.509914 0.676169 -0.364631
311 1 8.02733 8.34055 1.35729 -0.0308942 0.331438 -0.72209
312 1 2.10361 6.49521 2.78328 0.288865 0.176343 0.191538
313 1 6.05901 0.564808 1.28351 0.215046 0.501632 1.36597
314 1 6.08966 5.4889 2.47391 -0.434021 -0.340406 0.121622
315 1 5.34246 4.39621 6.01718 -1.31593 0.0681949 -0.0296482
316 1 2.48509 4.93402 4.1282 -0.244657 -1.24202 0.403363
317 1 9.08431 1.60248 4.65985 -0.189984 -1.64037 0.911765
318 1 8.61647 6.78801 7.53097 -0.339477 -0.667128 -1.32914
319 1 3.03119 0.199633 6.18117 -0.320576 1.0565 0.0452172
320 1 5.27426 6.88316 4.32639 0.863538 1.07871 0.0369156
321 1 3.01186 2.0277 4.41638 0.888881 0.130805 -0.293634
322 1 1.43645 7.50514 5.72842 0.0729643 0.73871 -1.80535
323 1 5.3767 9.01116 4.41762 -0.70244 -0.464206 0.671424
324 1 3.43531 4.64322 8.64867 -0.923811 -1.11598 -1.46252
325 1 3.44889 6.14911 1.39229 -0.956265 0.613373 0.468901
326 1 9.30044 0.555562 4.75444 0.751756 -1.13589 -0.45399
327 1 3.62901 1.36974 0.0825876 0.710377 1.04868 -0.560284
328 1 4.70447 2.93482 8.73451 -0.226532 -1.20102 0.72316
329 1 8.34018 2.05604 7.63872 0.163361 0.0291892 -0.642269
330 1 3.9375 8.13675 8.85573 0.123274 0.180167 0.0137362
331 1 4.56539 2.2469 5.3117 0.159179 -2.27944 -1.07806
332 1 1.76041 1.41756 7.4738 0.611725 -1.1741 0.884032
333 1 7.4521 4.41307 2.06322 -0.00999575 -0.841322 0.386629
334 1 1.75236 7.63359 6.80997 0.943807 -0.354226 0.56043
335 1 8.03363 1.96697 2.66133 -0.89355 1.74279 -0.58025
336 1 1.33495 4.98514 4.46749 -0.298441 -0.247783 0.346183
337 1 3.89735 7.03623 7.52457 0.0293538 0.137473 0.53773
338 1 9.17368 1.06218 7.24176 -0.285533 0.0868517 -1.29566
339 1 0.237126 4.25528 7.61366 0.411629 0.0708516 -0.30222
340 1 1.93005 9.36875 1.8543 -0.554863 -0.093882 -0.0467407
341 1 8.16191 0.848993 7.48944 -0.167373 0.900268 0.383516
342 1 6.07881 6.73932 3.68075 -0.392265 -0.119965 0.635332
343 1 3.81604 5.83956 3.40181 1.59032 -1.02947 0.140988
344 1 2.38595 9.24532 5.242 -0.597819 -0.303362 -0.0632856
345 1 4.33153 7.25864 5.23463 0.320575 -0.437602 -0.235809
346 1 6.4782 4.73293 0.410893 -0.619761 1.45375 1.0653
347 1 3.64466 2.95712 8.31274 -0.290057 -0.649848 0.0125744
348 1 6.97275 4.78658 7.10228 0.217751 -2.48341 0.36312
349 1 6.64553 2.79316 8.53925 -0.305845 -0.0149083 -1.14034
350 1 4.38988 5.0266 3.84879 0.792198 -0.994945 1.16366
351 1 8.34851 6.61827 1.87703 -1.41724 -1.40808 0.289693
352 1 0.571095 8.93807 4.74895 0.487901 -1.02915 -0.205003
353 1 0.939072 2.24283 3.74372 -0.0111253 -0.144846 -0.0536631
354 1 2.0058 7.12713 9.16166 1.22371 -0.849079 0.0971214
355 1 8.62136 6.03774 0.144705 1.56832 0.757348 -0.263738
356 1 5.02909 2.78332 7.70901 -0.238314 0.0406802 0.422523
357 1 0.18675 1.69124 9.28721 -0.30377 -0.945796 1.08619
358 1 5.8544 7.63275 4.80464 -0.822597 1.40974 -0.0766887
359 1 3.4277 5.275 7.60314 0.131269 1.18695 0.0832859
360 1 1.90527 3.99027 4.39475 0.928306 -1.20577 -1.25615
361 1 2.89451 3.96686 4.20937 0.249083 0.785433 1.08142
362 1 5.12684 2.46864 2.48659 -0.655262 -0.212318 0.710692
363 1 7.9567 5.43325 1.61966 -0.112893 -0.225244 -0.303771
364 1 2.03914 4.21848 6.57351 0.49432 1.47644 -1.80041
365 1 0.247173 1.77511 1.12501 -0.759435 -0.0528006 -0.275843
366 1 5.91663 7.63189 2.84678 1.20293 -0.045738 0.993371
367 1 0.851223 4.77888 0.744317 -0.0476289 0.340432 0.939565
368 1 3.30056 9.18182 4.41438 -0.105975 1.41498 -0.48992
369 1 7.97228 5.51575 7.97785 -0.745734 0.235721 0.51568
370 1 5.57474 9.13102 8.93712 -1.11235 0.435192 0.426904
371 1 3.08869 5.92174 6.51924 -0.100101 1.19359 0.338498
372 1 1.89094 3.60453 7.48742 -1.44804 -0.79512 -0.154828
373 1 6.53237 7.7049 0.237221 0.291112 -0.758863 -0.20324
374 1 8.78195 5.34291 6.19246 -0.292099 -0.961468 1.44409
375 1 5.74649 6.30447 6.99792 0.318127 -0.423845 -0.377415
376 1 2.99327 9.38725 8.24832 -0.703638 -0.133167 1.28958
377 1 2.09969 8.96474 8.14367 0.0187821 1.00917 -1.11396
378 1 5.16902 1.50578 2.9482 0.51575 0.666542 -0.119683
379 1 6.90402 3.89466 4.53255 -0.345205 0.526544 -0.129485
380 1 6.32363 4.76218 5.68197 -0.617506 -0.461666 0.50344
381 1 4.62303 9.10705 1.65667 0.981885 -0.214667 0.996093
382 1 6.70179 6.77558 4.66828 0.448063 0.310804 0.441164
383 1 0.933145 9.19016 6.58351 -0.75537 2.66398 -0.398054
384 1 3.20318 9.40246 3.40765 -0.100614 1.04663 -0.671309
385 1 3.96105 7.27419 0.0658596 -0.115485 -0.208151 -0.163218
386 1 1.07115 4.11124 5.96338 0.380178 -0.184532 0.14203
387 1 9.27654 0.777714 3.78524 0.588819 0.355319 0.210593
388 1 7.74769 2.13075 0.784649 -0.585552 0.239069 -0.407333
389 1 6.42627 2.9393 4.9395 0.163974 -0.0417362 -0.464081
390 1 3.00437 5.25201 3.24258 0.33202 0.171066 -1.40806
391 1 6.52006 8.87328 9.31356 -0.620977 -1.03319 -0.209097
392 1 4.54625 1.56982 1.74928 -0.170809 -0.460856 0.566827
393 1 1.92954 6.91893 0.785908 -0.688226 -0.105033 -0.398186
394 1 8.27808 3.25109 1.10996 0.231636 0.478534 -0.722132
395 1 1.3337 0.819681 1.41396 -0.244406 0.354605 0.770543
396 1 3.45743 1.79061 3.52526 0.645599 -0.695999 0.331603
397 1 6.23835 3.3505 1.03988 -0.391929 0.13177 0.219238
398 1 7.52443 4.69231 3.06419 0.00994458 1.52657 1.13501
399 1 7.35935 1.58718 1.82677 0.0143817 -0.328089 -0.704936
400 1 0.268314 7.02755 2.92802 -0.511861 0.554531 0.308521
401 1 3.66343 2.19559 5.9222 1.48748 0.0701048 0.299466
402 1 0.32815 5.82129 0.382779 1.10456 -0.717657 -0.163943
403 1 3.0365 5.08816 1.28588 -0.397345 -0.47344 0.275793
404 1 7.34605 5.04498 5.32842 -0.465055 -0.569377 0.804166
405 1 4.38506 4.76694 6.36071 1.00137 -0.476934 0.927689
406 1 7.47414 0.153679 0.480628 1.03893 0.1917 1.20613
407 1 7.17136 0.48383 7.48228 0.102843 -0.831594 0.416147
408 1 0.171222 3.20268 0.125221 -1.77584 0.694898 0.806491
409 1 3.93139 3.85734 5.91163 -0.699719 -0.912981 -0.765725
410 1 0.19579 1.77135 6.578 -0.446642 -0.193951 -0.0849865
411 1 7.22679 8.84909 5.04835 -1.15866 0.642047 0.832622
412 1 0.539296 0.284604 2.99012 0.127505 1.27994 -0.211079
413 1 1.7442 7.00936 1.83658 -0.117882 -0.243866 -0.731571
414 1 5.90988 0.821956 8.76221 0.052794 -0.620319 0.0668832
415 1 9.17071 9.16955 9.35447 -0.0480857 -0.722097 0.50749
416 1 0.22698 2.09386 2.16805 0.0325759 -0.762292 -0.464037
417 1 9.16276 5.77207 4.40811 -0.899462 0.0511119 -0.577657
418 1 3.67079 2.62586 4.92583 0.84534 -1.47309 -0.0541222
419 1 5.90731 2.67177 1.79717 -0.771125 -1.97641 -0.435455
420 1 0.0103205 3.63898 4.99212 0.216562 -0.659925 -1.19229
421 1 5.82885 5.71005 5.20149 0.298335 0.176027 0.960692
422 1 9.29401 2.55086 5.34254 -0.416971 0.964302 -0.792498
423 1 1.27035 4.88821 3.30341 0.233373 1.24891 0.604698
424 1 4.83492 7.77731 3.11376 0.689848 0.127179 -0.595176
425 1 1.73164 2.41762 6.11793 -0.344216 -0.207062 -0.289744
426 1 6.3173 9.33027 7.38304 0.847724 -0.300958 -0.28516
427 1 7.16812 3.79152 7.86268 0.642294 -0.599407 0.931519
428 1 2.3299 7.98713 7.71911 -0.609973 -0.37331 -0.514258
429 1 6.21351 8.42388 2.24948 -0.664243 -0.438644 1.05297
430 1 6.30261 2.73188 5.98563 0.547166 0.751004 0.507489
431 1 8.2892 3.02781 7.3018 1.03794 0.0425039 2.06332
432 1 4.46438 8.03121 7.82696 0.0119641 0.0844078 0.398111
433 1 2.85077 8.37525 4.89526 0.240215 -0.33213 -1.14489
434 1 6.99459 8.434 1.65893 0.0280338 0.932603 -1.41323
435 1 0.787425 3.27018 0.98828 -0.429106 -0.443474 -0.0702056
436 1 9.05654 8.4978 0.89417 0.404523 0.399736 -0.0376393
437 1 7.54979 7.38391 1.53614 0.334475 -0.194844 0.372475
438 1 1.13893 7.71059 0.0960108 0.363591 -0.388532 0.616365
439 1 3.80477 7.47632 3.04988 -0.463659 1.08819 0.612992
440 1 7.88971 5.82781 2.67381 0.813258 -0.38965 -0.837774
441 1 6.08995 1.81607 3.51436 -0.601006 -0.783605 -0.782811
442 1 5.42453 3.39091 6.20503 -0.788136 0.742844 1.5573
443 1 2.94376 7.1974 0.411292 0.576658 1.072 -0.302807
444 1 1.30567 6.05957 4.49967 0.550555 0.343751 -1.00926
445 1 5.77052 1.60024 9.33281 0.265666 -0.597795 0.327283
446 1 8.10879 3.28812 6.29343 -0.201947 -0.754427 1.45133
447 1 1.7308 4.4237 2.51307 0.82984 0.373802 0.696362
448 1 6.88759 6.84909 7.97211 -0.256515 -0.305131 0.40505
449 1 2.69251 1.41768 0.639859 1.23395 -0.667682 -1.34943
450 1 4.15457 5.48335 8.16024 0.827546 0.353891 -0.709032
451 1 5.36369 9.10744 7.90539 0.29155 1.3984 0.18883
452 1 4.36268 7.7874 6.7836 1.43149 -0.0114327 0.656479
453 1 3.44711 7.91778 5.66206 0.762358 1.17672 -1.07562
454 1 3.89902 0.663881 5.71 0.206991 -0.473834 0.618028
455 1 0.160558 5.38317 5.36611 -0.300255 -0.230551 0.34352
456 1 8.40399 5.11353 5.08398 -0.539354 0.312776 0.11096
457 1 4.96255 7.6854 9.40834 1.37224 -0.141101 0.14391
458 1 4.57845 6.66355 3.5187 -0.37219 0.463836 -0.131297
459 1 8.49039 4.41248 1.47791 0.811291 2.10564 0.215839
460 1 5.94116 1.98636 8.34259 0.0776475 -0.79168 0.0972766
461 1 9.0906 3.95042 2.49595 -0.064586 -1.35773 -1.37663
462 1 2.30875 7.81872 2.16396 0.28256 -0.439052 -0.19512
463 1 4.10797 2.23457 9.17558 -0.369582 0.834272 -0.604391
464 1 9.25072 3.27919 7.85976 0.594348 -0.674337 0.0312599
465 1 1.93907 0.0331872 6.33391 0.453932 0.145414 -0.903491
466 1 4.25917 0.484094 0.130085 -0.66897 0.419089 0.981621
467 1 5.04514 2.51405 1.33342 -0.582531 0.528006 0.546777
468 1 7.53449 0.592197 5.09142 -0.190539 0.968378 0.0866514
469 1 7.53475 2.7029 3.20062 0.32315 0.523647 -0.825731
470 1 1.01552 3.18193 7.70066 0.82722 -0.532207 -0.632197
471 1 5.71058 0.174686 6.31968 0.241347 -0.141877 -0.643131
472 1 7.29883 3.37423 5.43009 0.0666317 -0.504869 0.55696
473 1 5.92941 2.36906 0.711867 -0.692806 -0.458444 0.0945243
474 1 0.680742 7.37706 3.73575 0.265909 0.666487 0.769914
475 1 3.28875 2.36353 7.54657 0.274018 0.787171 -0.781841
476 1 0.307739 0.809825 8.72714 0.264784 2.1456 0.930294
477 1 2.01495 8.1132 8.79299 -0.103106 0.22613 -0.663163
478 1 1.50706 0.583235 2.54529 0.412937 -0.0422478 -0.432744
479 1 1.29583 3.80855 1.77766 -1.07857 -0.349625 -1.46909
480 1 7.8579 9.27226 7.92961 -0.56128 0.0170555 -0.311894
481 1 2.88141 8.05875 1.24581 -0.872886 0.603901 0.825682
482 1 3.85381 6.25688 5.00014 0.377465 0.131828 -0.0366312
483 1 5.31458 6.08027 2.0507 -0.662216 -0.388455 -0.686262
484 1 5.12916 1.18005 6.70984 0.238602 1.4341 -0.952403
485 1 5.82499 5.31647 8.66285 0.728263 -0.0152218 1.10635
486 1 9.36896 2.70981 2.93281 0.688575 -0.870549 -0.334051
487 1 0.166996 4.7579 3.54281 0.994519 0.114552 -0.348027
488 1 8.52868 6.72205 4.52279 -0.563368 0.90371 1.03147
489 1 2.83277 1.58418 2.59674 -0.801061 -0.19494 0.546983
490 1 4.97446 8.10162 4.85096 -0.0406561 -0.948274 0.549093
491 1 9.05775 8.58242 3.24787 0.117092 0.0126053 -0.121713
492 1 9.02094 7.04646 8.57902 -0.546592 -1.43154 -0.0856444
493 1 4.58513 0.322166 8.14394 0.231596 -1.04907 -0.598724
494 1 7.65509 1.7924 3.69088 0.824738 1.33007 0.0832249
495 1 4.11806 1.6931 2.63489 -0.167151 0.433961 0.320723
496 1 1.57727 1.54747 5.37699 -0.992208 0.186006 1.63924
497 1 2.04192 1.00305 9.23724 0.26419 0.394638 0.405958
498 1 7.97615 1.03729 1.27582 -0.290662 -0.000172568 0.774276
499 1 4.36192 3.38365 5.05932 -1.46648 0.170273 0.361894
500 1 5.4232 6.17688 0.997407 -0.224844 -0.19175 -1.24207
501 1 5.14299 6.35655 6.12257 -1.47192 0.813054 -0.973067
502 1 1.058 2.61537 2.73044 1.17057 -0.029818 1.21324
503 1 4.87662 6.31993 5.08825 -0.00202844 0.245431 -0.79121
504 1 5.21811 8.43797 2.36229 -0.21835 0.0982588 -0.649501
505 1 6.82856 5.18423 8.07765 0.120897 -0.550779 -1.00653
506 1 3.42715 7.26429 4.84488 0.0712412 -0.0183678 0.475963
507 1 7.18626 7.30212 8.90237 0.175342 -0.875431 0.179786
508 1 3.68463 7.42724 1.06841 -0.558795 -0.265455 0.575347
509 1 8.6676 1.26167 9.08026 1.33105 0.557616 -0.864689
510 1 2.32956 1.3063 4.51817 -0.916961 1.51557 -1.12945
511 1 7.08799 3.2551 6.45386 -0.450312 -0.415048 -0.826388
512 1 7.7377 6.91982 2.71572 0.986245 0.117315 -0.381924
513 1 2.2141 7.60957 4.20789 0.598827 0.976532 -0.861307
514 1 9.37851 6.53932 3.78044 -0.0087707 -0.25339 -0.669273