ITEM: TIMESTEP
11710000
ITEM: NUMBER OF ATOMS
1000
ITEM: BOX BOUNDS pp pp pp
0.0000000000000000e+00 9.4000000000000004e+00
0.0000000000000000e+00 9.4000000000000004e+00
0.0000000000000000e+00 9.4000000000000004e+00
ITEM: ATOMS id type x y z vx vy vz
1 1 0.152842 3.08937 6.43716 0.25257 -1.3056 -0.693089
2 1 8.18772 2.48641 8.39169 -0.496828 0.159776 0.238526
3 1 2.68573 4.34853 2.67429 0.798813 0.846062 0.572443
4 1 7.28884 7.70446 0.544344 -0.00254424 -0.248051 0.911593
5 1 1.60274 0.293315 3.84468 -0.502863 -0.600112 0.69568
6 1 6.48321 0.20624 7.60879 -0.0479507 -0.296483 0.708471
7 1 0.255922 0.574313 0.303967 -0.721619 -0.649016 -0.307073
8 1 4.1756 2.71149 5.1555 0.296108 -1.56423 -0.893613
9 1 3.32117 3.33981 5.58135 0.436764 0.219788 0.578145
10 1 8.58325 6.78529 8.5597 0.290638 1.01965 0.209783
11 1 8.47807 0.546292 8.25556 2.02032 -0.171073 1.09121
12 1 7.00711 1.91746 1.96348 -0.535176 0.317392 -0.421729
13 1 7.94086 2.95527 4.10103 0.862813 -0.907782 0.0265867
14 1 2.91587 5.79893 1.67808 0.462218 0.320198 1.48382
15 1 0.256961 2.20157 9.32807 -0.467882 0.545222 0.0932731
16 1 3.20485 9.34621 5.29158 0.545947 -0.604186 0.713576
17 1 0.551194 3.87003 7.62795 0.402602 0.123864 0.272898
18 1 0.0996534 6.57025 0.672007 0.569406 0.613371 1.46047
19 1 3.82523 2.14926 7.95572 -0.632095 0.854863 -0.30833
20 1 7.18321 5.32336 8.62873 -0.384175 1.02417 0.108966
21 1 0.369253 3.39208 3.59259 0.715977 0.217349 0.371391
22 1 3.99666 1.57474 6.08771 0.587054 -0.637423 0.665569
23 1 6.37533 3.42017 7.9317 -0.0545076 -1.46889 0.794247
24 1 3.79582 8.41638 7.51615 -1.74518 1.06333 -0.871574
25 1 6.82624 0.919904 6.85665 0.0851484 -0.529894 -1.38751
26 1 8.15896 5.4165 3.21714 -1.82627 0.591883 0.188624
27 1 8.59117 8.55315 0.00949862 -0.0225552 -0.449358 -0.372513
28 1 3.35136 4.41206 5.2029 -0.00434145 0.884004 -0.694512
29 1 1.05694 1.40022 7.20063 0.0507386 -1.15422 1.06663
30 1 8.83845 0.328462 2.80804 0.179456 -0.792691 0.400383
31 1 2.11622 5.17677 2.05239 0.00816805 0.184479 1.46723
32 1 3.87805 1.01054 5.13587 -0.160322 1.01723 0.0193042
33 1 1.92181 1.29652 0.56793 -0.0695615 0.845239 -0.13086
34 1 5.79766 8.69262 2.41046 -0.529681 0.0295241 -0.0539709
35 1 7.71724 0.324628 2.81133 -0.577729 -0.366182 -0.495115
36 1 1.67893 9.37724 2.73809 0.811147 0.15033 0.801346
37 1 6.32288 2.33737 2.95925 0.681501 0.335268 0.20126
38 1 0.757635 8.37069 4.25538 -0.0957649 -0.0855914 0.23714
39 1 1.7757 8.72129 4.41797 0.0438869 1.1718 -0.499185
40 1 1.35982 1.88364 9.1277 0.756144 -0.161374 -0.935709
41 1 7.53708 8.3286 9.15477 -0.518917 0.203142 0.715543
42 1 2.79635 8.2115 7.1956 -0.696023 -0.612724 -1.35185
43 1 2.26359 2.41194 1.84044 -0.406033 0.0699723 -1.18497
44 1 4.40525 3.41397 4.4183 -1.02853 0.353622 0.502019
45 1 5.75887 0.900467 8.11822 0.0331108 -0.518349 0.277025
46 1 1.36486 5.7607 3.56952 0.248587 0.93919 -0.481022
47 1 3.60869 7.34954 8.57162 -0.255948 0.257976 -0.0836865
48 1 5.03548 5.15618 3.84267 0.913722 -1.27095 0.0316565
49 1 4.38085 3.47106 5.97477 -0.70585 -0.489906 -0.447355
50 1 0.675685 0.581012 4.23238 -0.838607 0.365 -0.133222
51 1 3.96211 6.31986 3.62952 0.34849 -0.0447146 -0.534737
52 1 5.06003 1.57804 9.01577 0.0402864 0.398281 1.17962
53 1 5.67049 3.37491 4.38793 0.657752 0.276224 0.0994016
54 1 8.15423 5.74929 8.8801 0.156042 -0.473281 0.0294858
55 1 2.22147 2.99993 6.03558 -0.176505 -1.69902 -0.606149
56 1 2.04496 4.01148 6.22806 -0.103211 -0.191217 0.113882
57 1 1.35277 0.273731 7.40165 0.765336 -0.800947 -0.240802
58 1 6.56051 0.153154 0.169889 0.651201 0.621716 -1.35835
59 1 8.64131 8.91518 3.44374 -0.480342 0.306642 0.829158
60 1 1.49188 5.22112 0.506784 0.0927782 0.730973 0.624444
61 1 5.00189 4.85606 1.44532 -0.205993 -0.630767 -1.28398
62 1 9.10902 0.688471 1.25188 -0.211945 1.58868 -0.342925
63 1 4.09204 5.64835 8.64997 0.666391 0.578201 -0.145395
64 1 5.84782 6.14524 0.171865 -0.112822 1.15217 -1.21314
65 1 5.47882 3.31829 6.37892 0.620821 -0.344027 -0.0115934
66 1 6.10001 4.34123 7.56272 -0.125867 -0.162045 -1.2004
67 1 3.61634 8.5633 2.63994 -1.54819 0.488024 0.716237
68 1 3.42322 6.39814 8.15688 0.761941 -0.530446 0.380154
69 1 3.12227 4.59084 0.0723463 0.318213 -0.964665 0.445882
70 1 1.04034 4.94731 4.35877 -1.29992 0.175531 0.0934266
71 1 8.583 4.56057 8.67855 1.11213 0.490088 -1.05283
72 1 5.6954 7.92338 8.67304 -0.263992 0.391378 -0.793512
73 1 2.47499 0.330123 0.369318 -0.0735345 -1.25328 -0.327221
74 1 7.29445 8.27569 7.48107 0.505448 -1.84101 -0.752264
75 1 0.951944 1.77944 5.06852 -1.1222 -0.242659 0.38457
76 1 5.69477 2.55713 0.923217 0.0423502 -0.666789 0.243944
77 1 2.67333 2.70472 4.98803 -0.953015 -0.314631 0.778442
78 1 1.8291 6.79234 1.50817 -0.114708 -0.737153 -0.911644
79 1 5.95112 0.413317 2.1758 0.500572 -0.406078 -0.978136
80 1 7.62506 6.01104 6.01121 -0.74317 0.202792 0.306373
81 1 3.22177 1.08217 4.23464 -0.0517224 -0.363201 0.00676913
82 1 6.48068 1.33006 2.62626 -2.08099 -0.340541 -0.708395
83 1 3.78611 0.242809 4.4686 0.670123 -0.795 0.869248
84 1 0.936394 6.49166 8.93076 0.216874 0.250915 0.521211
85 1 2.72161 3.8453 0.968878 0.363065 1.24811 -0.199925
86 1 5.6806 5.11253 0.580449 -0.381416 0.0383424 0.354022
87 1 6.5763 3.88277 4.75353 0.541122 -0.124346 0.174928
88 1 0.90542 7.66921 8.51618 0.714541 -0.948733 -1.02831
89 1 0.0517825 4.57539 2.20269 -0.629322 -1.67954 -0.00960803
90 1 6.50321 7.22807 3.63594 0.0803964 -0.19681 0.72036
91 1 0.0747445 5.77983 7.28265 -0.0919462 -0.323276 0.151611
92 1 9.22996 7.49182 8.04758 0.69351 -0.178442 -0.045527
93 1 1.45893 8.47982 1.14823 1.02411 0.0947198 -1.10326
94 1 8.77455 8.31099 1.40991 -0.11212 1.26491 0.113893
95 1 4.62168 5.20077 2.72925 -0.890002 -0.568232 0.485862
96 1 4.84318 8.63955 8.92945 0.00648206 0.171578 0.943702
97 1 3.20001 4.57996 1.84482 -0.097508 1.34156 -0.797111
98 1 7.7886 7.80088 1.47845 -0.513611 1.34418 0.492893
99 1 1.79045 1.24453 5.59057 1.00443 -0.265082 0.499453
100 1 5.70799 1.23495 5.26257 1.21923 -0.068848 0.587053
101 1 3.72028 7.37676 1.22123 1.23499 -1.35385 0.00572716
102 1 7.97736 9.06194 8.49914 1.29345 -0.323963 0.180221
103 1 1.48187 1.60283 1.45615 0.807184 0.168257 1.00354
104 1 2.21187 8.918 7.75979 -0.8311 -0.706834 -0.603258
105 1 7.36524 0.0775561 6.83976 -0.411881 0.652522 -1.10232
106 1 5.13383 3.43004 5.32402 0.0184454 -0.479011 0.479593
107 1 8.97422 9.2264 1.80955 -0.226705 0.125158 -0.369188
108 1 8.16409 9.19741 6.31258 -0.392023 0.397002 -0.475715
109 1 6.25001 4.20821 2.65893 -0.310704 0.466464 -0.791047
110 1 1.18156 5.74056 6.73311 -1.04635 1.55496 -0.234435
111 1 2.0334 7.78125 7.87411 0.148554 -0.426859 -0.609331
112 1 3.92059 1.56308 2.82958 1.14739 0.17647 0.962185
113 1 1.71627 5.45027 8.44774 -0.38788 0.548435 -0.34501
114 1 3.25445 7.00822 4.09262 0.173669 -0.93841 -1.55317
115 1 4.79293 0.683761 5.68625 0.989331 -0.560558 -0.754272
116 1 4.86437 6.70993 7.01596 -0.120703 -0.548336 -0.62488
117 1 7.16779 6.32954 8.49363 -0.229072 -0.681159 -0.828912
118 1 7.96651 2.86412 9.28874 -1.57178 0.0677734 0.77418
119 1 0.534935 5.67197 2.07951 -0.143296 -0.681787 -1.02511
120 1 6.12841 8.20373 3.93108 0.131752 0.809904 -0.157824
121 1 6.00515 8.23833 6.04991 0.67566 -0.178535 0.146049
122 1 9.00381 1.46838 0.306443 0.625109 -0.398163 0.731675
123 1 1.41453 3.32301 3.71569 -1.43545 -0.338433 -0.859918
124 1 1.16393 7.30662 2.12615 1.12456 0.591749 1.00713
125 1 7.54618 3.86968 4.32998 -0.871466 0.42652 -1.2375
126 1 1.20388 3.95169 6.84941 1.13769 -0.499686 0.696036
127 1 1.67416 8.02205 5.23456 -1.21391 0.309317 -0.0593211
128 1 4.52104 9.04569 7.88233 -0.220337 -0.27592 -0.843973
129 1 3.71071 6.49256 1.81257 -0.605743 -0.308476 0.513479
130 1 3.75133 3.1195 8.23423 -0.335777 -0.495329 -0.403593
131 1 7.72129 1.24965 4.29669 1.04622 0.25124 -0.280956
132 1 6.0012 5.75569 4.33923 1.41574 -0.0372676 -1.79411
133 1 8.52688 7.27164 0.915129 0.274934 -0.952782 -0.11239
134 1 5.18335 1.06619 7.25294 0.35353 0.167314 -0.256791
135 1 5.99763 1.57266 6.98537 -0.546276 0.656975 -0.133875
136 1 1.35953 0.554909 0.181307 0.18035 -0.574012 1.57323
137 1 3.39628 5.47156 7.79111 0.169235 0.777011 -0.0523499
138 1 4.52809 3.09121 6.99244 0.0862874 -1.13198 -0.0185585
139 1 0.503629 8.10639 5.30861 0.349409 0.758688 -0.991743
140 1 1.43814 4.37429 5.18246 -0.0251615 0.8644 -0.286819
141 1 3.28157 7.26603 7.51517 -0.100629 -0.180343 -0.251649
142 1 3.58228 2.83154 7.22858 -1.35132 0.362626 1.48718
143 1 3.84431 6.65963 6.84973 0.162149 0.955166 -0.920067
144 1 9.21246 5.60082 5.66358 0.179649 -1.1035 2.02123
145 1 5.38319 5.1739 7.89495 0.0840791 1.01332 0.240565
146 1 6.97733 9.09296 2.31147 -0.542897 -0.832872 -1.00783
147 1 0.344215 7.29653 7.24931 -0.741335 -1.11317 0.418301
148 1 6.41089 2.49697 7.46762 0.327763 -1.19651 0.445327
149 1 9.3723 8.16793 3.36063 -0.161684 -0.92421 -0.571209
150 1 5.734 8.50229 5.08311 1.22611 -0.115079 -0.454162
151 1 0.192377 7.80201 6.2841 -0.351542 1.35652 0.56358
152 1 4.92087 9.07124 0.875852 -0.405082 -0.452579 0.25596
153 1 0.574651 5.63295 0.227848 -0.115576 -0.0301821 -1.3213
154 1 5.82264 5.26574 8.87759 1.1542 0.502585 0.408403
155 1 7.06208 8.63926 6.43468 0.791218 -0.870256 -0.0488459
156 1 3.81562 1.41781 1.25431 1.38017 0.88705 -2.10884
157 1 7.41447 0.0943597 5.74601 0.961508 0.895652 -1.18429
158 1 3.96668 9.28053 6.98334 0.772682 0.225532 1.00545
159 1 6.98469 7.26142 4.6217 -0.223878 0.613409 0.581999
160 1 8.18398 1.16554 9.04679 0.48506 0.0615227 -0.330111
161 1 8.33078 4.93565 0.994031 -1.28416 -0.427696 -0.828254
162 1 8.96892 2.84331 8.96764 0.204251 0.838415 -1.35866
163 1 9.01504 2.14266 7.70652 -1.85295 0.931154 0.26244
164 1 4.61951 7.91683 4.98296 0.78016 0.355213 0.159865
165 1 0.449823 9.27948 8.84567 -0.269214 0.369831 0.259552
166 1 8.59836 6.42574 5.56567 0.254103 -0.17335 1.37288
167 1 4.62614 7.73488 0.920085 -0.333733 1.0677 0.207328
168 1 6.33655 3.3205 8.98505 -0.161048 0.016853 0.636607
169 1 4.81174 6.03651 5.47361 0.5827 0.0751939 -0.366966
170 1 2.1513 8.23912 8.85253 -1.1465 0.00909483 -0.369479
171 1 8.59001 3.90337 3.89342 0.590936 -1.1184 0.0300222
172 1 4.74832 2.02976 1.31873 -0.605388 0.119627 -0.302318
173 1 6.47098 6.9806 2.62205 -0.261494 0.232611 0.180693
174 1 2.43554 3.44357 3.39937 0.786039 -0.123455 -0.24
175 1 4.63398 7.5946 9.10384 -0.0256939 0.615006 0.259309
176 1 0.700196 8.72195 6.85851 -1.2051 -0.455554 -0.752636
177 1 2.77797 8.59454 4.54496 0.375817 -0.436092 -0.710924
178 1 7.73743 7.70038 6.81882 0.116786 -1.8758 0.701659
179 1 5.70826 7.20569 0.106068 -0.220467 0.346825 0.253279
180 1 3.13405 9.31155 7.65752 0.532337 -0.863111 -0.723009
181 1 8.74197 5.26857 1.91848 -0.0475076 -0.292723 -0.0347519
182 1 5.94868 3.07624 2.31251 0.921515 0.658944 0.667965
183 1 3.79825 7.26315 0.210126 -0.767125 -1.08743 -1.12673
184 1 3.06759 2.40437 8.7501 0.47994 -0.503007 -0.492128
185 1 0.469691 4.19774 5.66754 -0.445239 -0.516288 0.413346
186 1 7.8885 7.1758 5.76472 -1.81732 1.06344 1.05746
187 1 4.12034 2.80213 0.890844 0.00677273 1.3626 -0.515378
188 1 0.504748 6.12092 3.09028 0.336262 0.384353 0.200261
189 1 2.38001 3.73315 5.25856 0.95017 1.1117 -0.778384
190 1 8.25231 4.60319 4.71129 -0.678865 -0.069671 1.82512
191 1 5.40476 3.3978 7.39612 0.162032 -0.0137459 -0.498409
192 1 8.80329 4.97405 7.08772 2.48558 0.276403 0.0823714
193 1 3.60688 7.58152 4.92668 -2.01521 -0.035103 -1.25681
194 1 3.95022 0.552012 7.99766 -1.24985 0.369885 0.169011
195 1 7.47337 0.217509 1.1771 -1.14757 0.906978 -0.0267354
196 1 3.46642 8.68759 3.71431 -0.193137 0.62346 -0.821007
197 1 2.0419 5.12092 3.9992 0.146298 0.478917 1.80043
198 1 2.88848 3.44247 6.62632 -0.519551 -0.325212 0.238407
199 1 2.08946 6.82261 4.16977 0.985465 -0.132594 0.155313
200 1 3.80927 8.64523 4.97149 -1.54744 -0.763789 0.68817
201 1 7.82646 7.07287 9.2812 0.665051 -0.94144 0.119519
202 1 0.53145 2.6757 5.52821 -0.097215 -0.392038 0.0115139
203 1 2.33404 7.19132 7.0693 -1.62573 -0.665273 0.532849
204 1 6.40289 4.71364 5.81507 -0.524292 -0.269177 1.05504
205 1 0.362422 6.56268 8.04167 0.18796 0.304539 0.578973
206 1 1.19896 1.31549 3.4482 -0.446424 0.307564 1.16018
207 1 6.61454 1.33396 7.77234 0.0546068 -1.13168 0.684612
208 1 8.16378 4.23579 5.7023 0.339334 -0.0750651 0.739148
209 1 5.28362 0.601004 1.3888 -0.31194 0.355919 -0.617932
210 1 1.56135 4.34027 7.89366 -0.0789984 0.40876 0.334328
211 1 2.51952 2.03879 2.80925 1.08757 0.923778 0.876753
212 1 6.0856 7.69637 2.00256 -0.167617 -0.85521 -0.038322
213 1 3.68092 9.1158 8.56229 -0.325718 -0.823014 -0.353298
214 1 7.78403 4.94601 0.0250116 -0.417493 -0.104642 -0.0615845
215 1 1.07608 7.24278 5.73061 0.25007 0.140117 -0.338602
216 1 3.59409 2.53818 6.1938 0.309715 -0.0554856 0.0869663
217 1 6.41108 0.32592 1.26085 1.15836 -0.825117 -0.226058
218 1 3.6249 3.71539 1.52326 -0.584668 -0.0248358 0.0118338
219 1 4.84893 4.76045 8.64985 0.791104 -0.119231 0.124341
220 1 8.71123 3.97291 0.974583 -0.220936 0.378337 -0.822545
221 1 0.480483 9.16081 7.79311 -1.27217 -0.410453 0.420302
222 1 4.67786 3.77472 1.18736 0.287207 1.07643 -0.653469
223 1 1.13885 8.42789 2.40171 -0.504095 0.36918 0.70281
224 1 5.29951 6.02894 0.981403 0.716969 0.614584 1.08279
225 1 3.33164 5.59165 5.30638 -0.323427 0.544902 -0.260664
226 1 8.47509 6.32298 0.231563 -0.259856 -0.250874 -0.400056
227 1 4.25973 8.4425 1.57768 0.0888735 0.114414 -0.361788
228 1 6.92857 4.20852 9.36011 -0.376791 -0.139191 0.991813
229 1 1.59369 1.1217 4.48827 0.709223 0.178237 -0.295647
230 1 2.93298 0.742351 1.18103 0.260667 -0.454222 -0.428438
231 1 1.21689 4.68843 6.16138 0.706388 0.0123939 -0.0166549
232 1 4.34386 6.65615 8.869 0.494525 0.564308 0.109746
233 1 8.1563 7.23454 7.73073 -1.56549 0.468389 -1.83213
234 1 0.977796 2.63294 0.537433 0.122448 -1.01179 -0.185338
235 1 7.2521 4.63056 5.07519 -0.666307 -0.473773 -0.783437
236 1 2.60061 8.25413 0.723168 1.33118 -0.173118 0.80729
237 1 7.7228 1.46531 7.07876 0.562307 0.811835 -0.109717
238 1 5.33616 8.32287 7.79766 -0.577335 -0.318958 -0.237302
239 1 1.88578 6.18111 7.27818 0.549762 -0.754891 -0.822549
240 1 5.69078 0.233885 5.08969 0.38699 -0.513826 0.160642
241 1 6.32289 5.86689 2.44386 1.29756 -1.55969 -0.15387
242 1 6.58171 3.43064 6.75488 -0.223226 -0.929752 -1.09546
243 1 3.10079 8.3133 1.59448 0.239015 -0.0500248 0.817105
244 1 6.64516 2.73051 1.32995 -1.21883 0.393999 -0.258458
245 1 7.44219 2.63802 2.75388 0.311213 0.0707216 0.139681
246 1 0.577631 4.97441 1.27717 1.31136 0.0696068 0.364786
247 1 7.64712 1.39061 2.67219 1.13242 -0.558595 -0.399761
248 1 7.9063 6.63316 6.77734 -0.13083 0.174448 -0.429129
249 1 0.0613419 4.75549 7.90877 1.34274 1.25862 -0.144902
250 1 2.86682 7.77508 2.49724 -0.135256 0.372073 1.03317
251 1 8.73937 0.997801 4.32046 -0.0858252 -1.37789 0.0391538
252 1 4.5209 3.40206 2.69103 0.0307427 0.281939 1.69362
253 1 0.865987 6.26238 5.49316 -1.22849 -0.0852673 -1.68398
254 1 7.95097 0.482143 4.92321 -0.980705 0.480869 0.602675
255 1 6.40629 8.51432 9.2915 0.296465 0.648327 0.164583
256 1 0.849171 4.85072 7.33744 -0.290688 -0.302966 -0.497259
257 1 2.90827 7.73148 9.26459 -0.682634 -0.57986 -0.443534
258 1 4.11799 1.60075 4.25013 0.428461 -0.280147 0.0355473
259 1 4.90147 5.08186 6.99361 0.0659457 0.480046 -0.669064
260 1 5.46225 9.31222 7.36754 0.378892 0.0110211 -0.863465
261 1 6.67557 5.24168 0.164733 -0.443876 -0.687565 -0.64471
262 1 3.30911 1.90846 3.56372 -0.11987 -0.288962 0.215257
263 1 8.10851 3.24059 5.9186 0.721899 -0.32361 0.170351
264 1 6.95433 5.66916 5.25013 -0.968998 1.11752 0.672539
265 1 6.07515 5.13994 3.31058 -0.58599 -0.240904 0.112402
266 1 7.75111 5.47752 4.40971 0.541006 0.622998 -1.59079
267 1 2.36662 1.31151 1.95678 2.09868 0.794638 -0.969436
268 1 4.67584 2.44629 6.11149 -0.471627 0.536946 0.309918
269 1 2.72616 3.81191 7.69699 -0.123122 0.327924 -0.694771
270 1 8.19756 9.34812 7.45695 -0.960943 -0.475631 -0.444058
271 1 0.964563 1.52233 0.573798 -1.03112 0.323744 -0.153701
272 1 7.12263 2.88215 6.00988 -1.13069 0.505101 0.404327
273 1 7.7661 4.61793 3.6398 -0.467608 1.38136 -0.588974
274 1 5.73056 6.36081 7.60566 -0.417502 -0.830056 -0.163068
275 1 2.9 6.32427 7.18167 -0.0978048 -0.541319 -1.09756
276 1 0.154438 7.88371 2.31889 -0.831274 1.46758 -0.625583
277 1 6.71816 4.11076 3.72333 0.603796 1.16655 0.534797
278 1 2.6008 2.41142 6.90162 -0.0811499 -0.382183 -0.732326
279 1 1.02801 9.23689 1.81217 -0.660184 0.46162 1.19888
280 1 4.83803 4.3026 0.334113 -0.790065 0.0018511 0.428803
281 1 6.02799 7.55812 4.83999 1.94378 -0.832257 -0.253524
282 1 5.49005 1.2086 2.61727 -0.376458 1.56851 0.192409
283 1 8.30915 7.94481 3.42995 0.500388 1.11589 0.550665
284 1 6.2708 8.63778 7.47019 -0.436875 0.526758 0.173725
285 1 4.4169 4.39597 3.39651 0.0236454 -0.727472 -0.14314
286 1 9.18563 9.20552 6.92002 0.605725 -0.588307 -0.967705
287 1 3.73184 6.74416 5.80478 -0.328324 -0.0970755 0.0653648
288 1 0.327872 2.17434 1.11952 0.120934 0.712128 0.932635
289 1 5.80089 2.44561 3.93326 -0.117118 -0.221416 1.05293
290 1 1.22371 8.24397 6.16417 -0.823065 -0.0476823 -0.642975
291 1 2.21897 8.69564 6.00872 -0.524571 -1.21415 0.361997
292 1 1.69902 5.62067 5.66113 -0.521504 0.334916 0.185991
293 1 3.92482 0.222932 2.68985 0.358619 0.820203 -0.24052
294 1 2.39882 5.30681 0.0912374 0.800336 -0.688341 0.384796
295 1 5.72578 4.36814 6.57962 -0.726078 1.4225 0.101947
296 1 5.1713 6.00119 8.51625 -0.313404 -1.1107 -0.186492
297 1 0.800672 3.82904 8.58807 0.320171 -1.05639 1.75819
298 1 2.94547 6.63212 5.1758 0.76878 0.522374 0.9959
299 1 5.13321 5.7706 1.99707 -0.646299 -1.13707 -1.49888
300 1 7.60207 4.39871 2.56497 -0.31217 -0.737717 -1.2343
301 1 9.25655 1.11335 6.01216 -0.802601 -0.180319 -1.20058
302 1 7.60374 8.94111 4.59162 -0.431689 0.654039 0.335055
303 1 1.57519 7.86733 0.287457 -1.02837 -0.575774 -0.359707
304 1 6.07465 3.33059 3.41052 -0.710028 0.620611 0.105116
305 1 3.05223 2.93618 1.34833 -0.515654 0.567185 0.312784
306 1 1.15154 8.7821 3.39416 -0.159937 -0.131603 0.0431838
307 1 4.58919 1.09624 1.88182 -0.734953 -0.432188 0.732886
308 1 4.72904 0.64987 4.65207 1.12592 -0.988096 -1.12977
309 1 1.94516 3.23671 7.05574 -0.140868 -0.893458 -0.167182
310 1 1.83391 1.85133 6.4587 0.548468 0.638491 1.13952
311 1 7.89085 8.86388 1.81683 -0.464936 0.3538 -0.815273
312 1 9.07175 5.323 2.95192 0.342919 -1.01138 0.964493
313 1 7.69021 2.57512 0.929581 0.249009 -0.166689 -0.881476
314 1 4.5457 3.76525 8.04942 0.107223 0.858659 -0.38925
315 1 3.87443 4.99263 6.89151 -0.110045 0.592675 0.24013
316 1 1.02433 2.3991 3.43698 -1.39478 0.629199 0.0782687
317 1 0.733787 2.35179 7.40652 0.834324 -0.503185 0.641849
318 1 0.570192 5.49673 8.5672 0.0908479 0.0379699 -0.516521
319 1 4.00277 7.79882 5.82898 0.791077 0.178866 -0.0349209
320 1 5.14921 0.719742 3.66623 0.43348 0.504191 0.921303
321 1 3.14379 4.25031 3.58957 -1.56268 0.676395 0.83619
322 1 1.28754 8.73215 8.38063 0.548658 -0.827784 -0.0942426
323 1 5.16419 8.43677 3.39646 -0.443142 0.39582 0.801947
324 1 5.67923 4.13371 1.08599 -0.206943 -1.24954 -0.0856603
325 1 6.72451 4.85197 2.00189 -1.31632 -0.325758 -0.0180499
326 1 1.42125 8.98772 5.46976 0.211629 0.147211 -1.10693
327 1 5.35181 8.18035 0.35008 -1.02082 0.0613776 0.0638915
328 1 4.1306 0.435688 1.10755 -0.241865 -0.995325 -0.533494
329 1 9.1333 2.86912 3.03591 0.672011 -0.57251 1.00371
330 1 4.0585 9.05239 0.285936 -1.20648 0.197609 -0.00703847
331 1 4.60303 1.32717 8.11667 -0.924368 1.32834 -0.0803826
332 1 1.97269 2.3902 8.47954 0.27746 0.296657 0.897407
333 1 6.03637 5.35961 1.45991 -0.617223 0.116481 0.750802
334 1 4.47767 5.88394 6.44527 0.115287 -0.0385413 -0.892922
335 1 5.37973 3.36417 0.181042 0.503262 0.520863 -0.178249
336 1 8.9065 4.74546 6.08622 0.919853 -0.984042 -1.02108
337 1 4.25525 7.64701 6.92723 -1.00629 0.284903 -0.240775
338 1 8.81743 1.7462 6.74584 -0.0241246 -0.0720491 0.148337
339 1 8.18558 5.30083 5.43683 0.0562662 0.95274 0.000729989
340 1 8.6634 8.33347 2.48256 -0.177989 0.245091 -0.167855
341 1 7.8724 9.39344 0.135037 1.32753 0.819346 0.494159
342 1 4.21638 5.8114 1.02595 0.158628 0.44818 -0.108765
343 1 2.07366 4.05272 4.26928 0.150281 0.286342 1.15747
344 1 4.0425 0.808902 3.5149 0.253484 0.764561 0.886335
345 1 6.98649 6.23422 4.27391 -0.536811 1.08576 -0.022966
346 1 9.34275 4.66701 0.537384 -0.047258 -0.736473 -0.88858
347 1 4.9005 2.42785 0.326565 0.785831 0.497579 0.519414
348 1 7.56304 4.3812 8.48633 0.0761174 0.916455 0.574956
349 1 5.77914 4.2364 9.22751 1.60395 1.5909 -0.836317
350 1 4.93549 6.78607 3.42958 -0.238481 -0.407197 0.0458402
351 1 7.4713 3.61753 0.821185 -0.287473 -0.882376 -0.596561
352 1 4.20564 6.9754 7.77572 0.0667957 0.319838 -0.89406
353 1 0.253853 1.83098 2.9866 0.892642 -1.74755 0.21126
354 1 1.14695 0.480348 8.44831 -0.688352 -1.56016 0.256137
355 1 0.203512 4.53466 8.8623 0.264251 -1.45159 0.830438
356 1 3.77347 3.92222 7.26742 0.912846 -0.00988156 0.469466
357 1 7.99834 8.61559 0.790033 0.0142366 0.605073 -0.0962723
358 1 5.65307 7.56702 3.01416 0.0213177 -0.00973461 0.155914
359 1 2.65532 2.7787 7.84009 -0.40395 -0.206306 -0.89301
360 1 3.38915 3.47413 4.55961 0.269993 0.675591 -0.185004
361 1 1.5148 1.79104 2.52927 -0.374488 0.0655457 0.270893
362 1 5.46205 4.28008 3.39214 -0.138586 -1.53946 -0.117409
363 1 7.36519 5.29545 1.0914 -0.679781 1.39999 -0.954075
364 1 2.58976 1.55625 8.35959 -0.558436 -0.915417 0.642671
365 1 0.767425 3.80912 0.277141 0.704113 0.26817 -0.975119
366 1 6.63855 7.74611 6.73017 0.817719 0.857796 -1.34984
367 1 1.41056 4.19632 0.967074 -0.205464 0.59023 -0.316605
368 1 1.55857 7.79162 3.93626 -1.10182 0.188725 0.772429
369 1 6.52954 4.53131 8.45194 1.38652 -1.22372 -1.36998
370 1 6.1288 1.93412 0.023908 -0.318398 0.178896 0.280567
371 1 1.2595 6.09482 4.5445 -0.895403 0.185372 -0.217228
372 1 2.91226 4.41021 6.888 0.52962 0.851476 -0.0169848
373 1 6.7304 7.14961 1.42826 -0.406379 -0.274021 -0.446249
374 1 7.99829 6.30749 3.85541 0.440325 -0.597652 1.67828
375 1 5.55254 6.19809 6.46074 0.237838 0.18443 -0.77945
376 1 2.47875 1.91167 0.0075125 -1.59473 0.459875 0.0436355
377 1 1.94055 6.231 9.28476 -1.36228 -0.191522 1.27252
378 1 5.41142 1.47341 0.713483 -1.08549 -1.20756 -0.655502
379 1 7.758 5.43834 6.98236 0.261146 0.436615 -0.109848
380 1 7.70792 5.33803 2.09071 -0.138483 0.348667 0.328128
381 1 1.90381 0.617805 1.3797 1.30098 0.177293 -1.3408
382 1 7.39711 6.25919 2.79058 0.40505 -0.0684903 1.23321
383 1 8.99256 5.82882 8.22402 -0.314245 -1.3216 -0.0681186
384 1 4.69391 8.60209 2.56546 0.606741 0.212537 0.253729
385 1 4.42426 7.89254 8.15157 -0.309634 0.289301 0.328612
386 1 9.3908 0.905365 3.55288 -0.960565 0.49331 0.638771
387 1 8.85012 9.30846 4.52398 0.0944297 1.1663 1.23006
388 1 9.00707 1.845 8.63881 -1.0759 0.076726 -0.515281
389 1 5.67108 4.36832 5.26304 0.736849 -1.10866 0.486307
390 1 2.63882 6.69567 2.20392 -0.132199 0.485337 0.152711
391 1 4.2875 2.12722 8.91757 0.322056 -1.28041 0.215121
392 1 8.2467 2.45244 5.19918 0.162695 1.52461 -0.0672039
393 1 0.556135 7.34203 0.139653 -0.497105 0.275644 0.704214
394 1 9.11265 3.7574 0.0388807 -0.280792 -0.0912414 1.5349
395 1 8.44231 8.34794 4.36762 -0.0745101 -0.382481 -0.867776
396 1 3.77067 3.39154 3.53985 -0.588351 -0.50202 -0.537128
397 1 4.67214 3.17234 8.88023 0.515553 -0.886426 -0.294123
398 1 8.31605 6.22409 2.33839 -1.8386 -0.0948542 0.75773
399 1 8.29888 3.24202 2.54285 0.590172 1.69356 0.32313
400 1 7.07211 7.98152 2.19347 -0.656011 -1.09656 -0.159503
401 1 2.20176 0.310388 5.92077 -0.634761 0.0451964 0.158053
402 1 8.36174 1.11078 3.37593 0.119716 0.436383 -0.534797
403 1 1.35645 5.77474 1.54419 -0.658758 -0.760614 1.28974
404 1 6.95272 6.79872 5.68012 0.797686 -0.240314 0.176577
405 1 3.42991 1.76222 6.93749 -0.701801 -0.623194 -0.351445
406 1 4.88218 0.566763 0.385236 -0.322458 1.07304 -0.265609
407 1 4.80824 1.93652 2.38909 0.912863 -0.941749 -0.608062
408 1 1.04906 3.52327 1.98255 -1.63465 0.82809 0.428107
409 1 3.8674 4.41581 4.32273 -0.646365 -0.986048 0.0226318
410 1 9.20309 2.13974 4.86688 0.240517 -0.513102 0.433913
411 1 4.83018 1.65188 3.39189 -0.178431 0.0906526 0.141277
412 1 7.57286 1.38026 5.34836 0.357457 0.388255 -0.953435
413 1 2.01644 9.29548 8.76881 -0.596035 0.535178 -1.20646
414 1 6.90581 1.66713 6.15945 0.818729 0.425636 0.332804
415 1 1.20531 2.5164 1.70313 -0.191851 0.170021 0.157193
416 1 5.80415 2.11161 2.06406 -0.575271 -0.158552 -0.333091
417 1 0.0116082 7.03748 5.40042 -0.0913315 0.261649 -0.669488
418 1 3.32435 0.970199 2.17478 -0.211584 -0.412501 0.523479
419 1 6.98284 2.93583 3.65989 0.68261 -0.234399 0.507601
420 1 1.09457 0.558252 5.23997 0.279015 -0.149244 -0.245243
421 1 6.88281 7.83433 5.71879 -0.163127 0.0691945 -1.25165
422 1 6.5288 2.85573 4.6698 0.654889 0.817506 -0.753281
423 1 8.48253 2.105 2.81665 0.159294 -0.0840653 0.275583
424 1 5.24415 9.19084 4.22884 -0.025517 0.0168671 0.0747249
425 1 1.63352 2.24978 4.31882 -0.451452 0.387849 0.414977
426 1 6.64844 1.21469 8.89922 1.50177 -0.755494 0.370228
427 1 8.06392 5.20302 8.02001 0.211397 0.341376 0.956553
428 1 3.27622 8.75531 6.49082 0.364065 -0.286802 -1.16421
429 1 5.37301 8.3561 1.47184 0.137476 -0.192224 -0.485547
430 1 4.40615 9.19437 3.62496 -0.453982 -0.632675 -0.209225
431 1 7.93723 2.03147 6.13784 -1.00466 -0.102409 -0.0455045
432 1 3.64499 0.362103 6.13058 0.667391 0.233755 -1.30112
433 1 4.89959 8.21987 5.95154 -0.0171634 0.0216421 -0.697215
434 1 5.98543 6.47089 1.66065 0.367169 -1.08699 0.637392
435 1 9.03377 2.97572 4.05068 -0.140591 0.489523 0.20396
436 1 8.28092 0.78654 0.694029 0.0752395 0.333809 1.03922
437 1 8.59011 7.35661 2.09918 0.410451 0.0503054 0.116994
438 1 8.86368 0.184499 9.09972 -0.201251 -1.07908 -0.951891
439 1 4.69856 6.62936 1.5103 -0.984205 1.07719 0.254512
440 1 7.76862 3.66255 3.30348 0.616257 -1.43693 0.666103
441 1 4.74578 2.56246 4.20037 -0.397402 -0.386615 -0.428234
442 1 5.40401 2.4385 6.99015 -0.281617 -0.688256 -0.260668
443 1 4.8425 6.82478 0.423554 0.509839 -0.201486 1.81015
444 1 8.71185 5.97435 6.53641 1.40287 0.403488 0.234478
445 1 4.04206 0.595574 9.15388 0.160555 0.255666 -0.620693
446 1 7.59506 3.50694 6.73428 0.722676 -0.488912 -0.509777
447 1 2.74881 5.23883 3.31286 -1.40922 -0.48692 -0.430989
448 1 6.11675 7.53654 7.75265 0.590336 0.878116 -0.513453
449 1 1.89277 8.92637 0.286212 -0.503507 -0.149572 -0.798889
450 1 3.08579 3.78227 8.77056 -0.776422 -0.852094 -0.597507
451 1 7.24835 0.412223 8.7062 0.606147 -0.982989 -0.194798
452 1 5.40474 7.59415 6.77176 0.15965 -0.916953 -0.105665
453 1 4.59489 7.67656 3.06322 -0.553905 -0.71101 1.13797
454 1 5.86804 7.20735 5.87596 0.317868 0.521423 0.335683
455 1 7.40604 5.03421 6.07211 -0.428074 0.297764 0.926053
456 1 7.73591 6.53608 4.91237 -0.483484 0.0543949 -0.413756
457 1 4.71627 9.31367 1.83474 -0.0342281 -0.519537 0.0623463
458 1 1.37468 6.32782 2.43078 1.13223 -0.413648 -0.212912
459 1 9.08342 6.3228 1.68493 -0.47505 1.10458 -1.4296
460 1 7.43364 1.9678 8.93479 -0.358272 0.48278 -1.1034
461 1 8.8168 4.10854 2.94204 0.465448 1.28814 0.818375
462 1 3.01947 0.991806 3.17076 0.0295742 -0.909302 -0.695077
463 1 2.79313 1.70934 1.01953 -0.127063 -0.264531 -1.11524
464 1 0.272073 4.24286 6.65765 -0.0762215 -0.972686 1.52357
465 1 0.0210014 8.26633 7.36413 -1.28004 0.140633 -0.878789
466 1 7.06444 0.780971 2.01244 -0.225953 -0.0210185 0.683361
467 1 5.52931 2.55835 8.80559 0.236394 -0.993111 -0.510541
468 1 6.24244 0.588689 3.93302 0.758701 0.74741 0.182355
469 1 9.21296 3.42571 5.50931 -0.152628 -0.397586 -0.587936
470 1 2.16414 1.3645 7.32546 0.343925 -0.936953 0.757289
471 1 4.15417 8.90595 5.947 0.564017 -0.0526338 0.676914
472 1 5.19442 5.12083 5.99343 -0.92465 -0.480856 0.582036
473 1 9.16653 3.73864 8.32968 -0.369632 0.317855 -0.027341
474 1 3.16539 6.51279 0.966672 0.0142783 -0.0465513 -0.553994
475 1 2.92393 0.468952 8.59733 -0.40644 -1.61415 1.3005
476 1 0.0724505 0.640722 8.27443 1.11194 -0.106703 0.553684
477 1 0.0158693 8.01926 8.96674 -0.952385 0.107955 -0.475238
478 1 0.343244 9.13853 4.95497 -0.170304 0.0725426 0.600303
479 1 1.78759 3.32101 0.419427 -0.641834 -0.268622 -0.344394
480 1 6.2955 6.79823 6.8864 -0.25715 -0.138965 1.48618
481 1 3.9357 7.72396 2.16924 0.0484174 -0.920738 0.355663
482 1 5.45222 5.92446 3.21957 -0.431072 -1.17481 0.624626
483 1 4.03332 5.0047 0.118221 1.22721 -1.1656 -1.76838
484 1 8.1084 3.92801 9.38166 -0.493601 -0.88728 -0.273295
485 1 7.41271 5.95355 0.169169 0.39711 0.628327 0.150481
486 1 1.19794 4.27486 3.59906 1.2926 -0.340582 0.0876289
487 1 0.236016 6.57529 4.48014 -0.703725 0.263609 -0.602102
488 1 6.79545 5.13499 4.10922 0.723235 -0.233478 0.551908
489 1 9.1298 9.19904 0.72656 -0.0320933 0.506949 -0.883926
490 1 7.1027 5.20436 3.0182 -1.2988 0.0733975 0.423731
491 1 7.37695 7.48609 3.0383 0.21301 -1.09947 0.277631
492 1 0.481995 8.41597 1.48103 0.329118 -0.948596 -0.28771
493 1 7.53955 6.79964 0.889297 0.527945 -0.174924 -0.176934
494 1 4.97686 4.24693 4.41746 -0.058055 0.186085 -0.363529
495 1 2.58074 3.22388 2.26454 0.137934 -0.510663 -0.465759
496 1 3.5855 4.76398 2.8099 -0.13415 1.22007 0.318775
497 1 9.37713 7.99817 0.644109 -0.813404 0.480771 -0.0875372
498 1 8.1972 1.50202 8.00989 0.515332 -0.373077 -1.77784
499 1 3.64092 2.59094 4.25085 1.14204 0.802031 -0.747762
500 1 6.61179 6.06945 0.853397 -0.216075 1.10646 0.899666
501 1 7.0213 6.11154 7.20869 -0.636708 0.714308 -0.828343
502 1 8.45402 4.185 1.9712 1.07764 0.908303 1.23978
503 1 4.45206 7.08781 4.32206 0.944932 0.225272 0.419333
504 1 5.39446 6.76221 2.48591 -0.262142 -0.573741 0.959714
505 1 8.12916 3.52844 8.4676 -0.904726 0.562108 -0.839227
506 1 2.73707 6.69274 6.18894 0.234525 0.0345601 0.336792
507 1 8.325 8.30297 7.72383 0.649348 0.0692876 1.16938
508 1 4.45735 6.20955 2.56074 0.548407 -1.58514 0.196186
509 1 3.54428 1.33728 8.57742 -0.281344 -1.06559 -1.06569
510 1 5.0822 2.87668 1.8453 -0.93467 0.404664 -0.949447
511 1 4.49508 1.93628 7.07283 -0.728035 -0.764854 1.5127
512 1 9.1337 5.64777 0.888601 -0.639604 0.11796 0.230324
513 1 2.27284 8.84547 3.49693 -0.711064 0.836779 0.986163
514 1 0.393822 5.62389 4.0586 0.267024 1.34397 -0.130665