ITEM: TIMESTEP
32970000
ITEM: NUMBER OF ATOMS
1000
ITEM: BOX BOUNDS pp pp pp
0.0000000000000000e+00 9.4000000000000004e+00
0.0000000000000000e+00 9.4000000000000004e+00
0.0000000000000000e+00 9.4000000000000004e+00
ITEM: ATOMS id type x y z vx vy vz
1 1 0.832246 3.97764 0.398266 1.37779 -0.318878 0.630131
2 1 7.01612 6.7228 1.38767 0.253524 -0.0481656 -0.940851
3 1 3.62773 3.78682 1.87675 0.0223758 -0.0714617 -0.346769
4 1 8.70457 7.61326 7.03413 -0.295235 0.0272542 1.84938
5 1 1.946 0.291584 4.57828 -1.2666 0.134433 -0.0833759
6 1 6.44777 7.87309 8.6351 -0.229741 -0.546603 0.153186
7 1 0.262865 6.48457 0.321705 -0.147546 -0.989971 0.229508
8 1 4.60874 1.06986 7.14746 0.0552842 1.09866 -0.412749
9 1 1.88928 5.6249 5.90932 0.232217 -0.551718 -0.242645
10 1 0.701462 7.19784 8.60803 -0.127548 -0.36157 0.238658
11 1 6.17523 0.342022 4.19983 -0.23372 -0.903481 -0.693211
12 1 0.925452 0.997759 2.45178 -1.3242 -0.76533 -0.286764
13 1 1.19701 2.22262 1.5229 0.584361 0.076253 0.620318
14 1 4.70278 5.56826 2.4396 1.50919 -0.746481 0.486777
15 1 6.68822 2.68964 0.49966 0.226765 0.0828005 0.00867661
16 1 1.01996 0.52717 6.94575 0.398046 -1.35262 1.40594
17 1 8.38443 2.27703 0.919385 -0.594929 -0.0609966 0.23435
18 1 6.5773 6.8398 8.40645 1.03008 -0.339935 -0.220143
19 1 4.44505 3.83023 9.22641 -0.236281 0.339105 -0.7154
20 1 6.41228 4.61122 6.83928 -0.134357 -1.10734 -0.771022
21 1 8.46268 1.23207 4.28614 0.414131 -1.93241 -0.740508
22 1 3.42673 3.40351 5.6865 -0.62423 0.90923 -0.0118523
23 1 5.00049 1.35789 8.48325 -0.996924 -0.0682381 0.525541
24 1 2.26255 3.30439 6.37676 -0.86168 0.656655 -0.237719
25 1 6.85789 0.945599 7.11669 0.260854 -0.44095 -0.388506
26 1 0.535599 4.1589 2.60229 -0.804101 0.135199 0.273081
27 1 -0.00513762 7.39033 1.8801 -0.235367 0.684927 0.459535
28 1 4.04065 3.43829 2.78302 0.902035 -0.717944 0.869369
29 1 1.31174 3.63403 6.41155 -0.663843 -0.132139 -0.133191
30 1 0.8344 1.61893 6.77074 -0.080902 0.609402 -0.40099
31 1 2.55162 3.64779 2.25096 0.0309182 -0.416502 0.701741
32 1 7.73002 5.5186 6.01456 -0.468423 -0.633241 -0.260004
33 1 1.08879 8.76289 8.49725 -0.288537 0.577967 0.405803
34 1 6.68092 9.14432 3.5261 0.0757941 -0.181678 0.247945
35 1 0.30442 1.34364 3.20593 0.941273 0.11824 -0.481431
36 1 3.40739 7.49664 2.31915 -0.0311848 0.625661 -0.392463
37 1 4.91526 9.00539 8.87439 -1.2675 0.73675 -0.205171
38 1 2.56144 6.52068 3.27192 0.339134 -0.179184 -0.286101
39 1 0.713281 0.167326 7.981 -0.784029 0.0266668 0.37561
40 1 6.96881 1.4442 0.408146 0.00489456 -0.250466 0.723346
41 1 8.17043 6.44923 5.50048 -0.319798 0.166159 2.02201
42 1 1.03164 0.496772 4.18875 -0.751594 -0.0507499 0.505841
43 1 0.208809 1.10628 8.23447 0.0119903 1.83176 0.21698
44 1 2.41492 2.90219 5.28527 -0.365965 -0.356364 -0.571824
45 1 4.79006 3.37208 5.00445 -0.516215 1.57954 -1.70344
46 1 2.54468 3.3644 4.10086 -0.0557137 -0.65202 0.435659
47 1 2.03072 6.02758 9.30252 -1.28085 -0.528212 0.225387
48 1 5.86592 4.85421 3.16131 -0.0796151 -0.374862 0.00372161
49 1 3.91752 4.88829 7.03648 -1.04302 0.584851 -1.45637
50 1 1.19391 8.72151 3.29274 -1.29918 0.670646 0.833165
51 1 1.00368 5.50004 3.80027 -0.464571 -0.957047 0.57923
52 1 2.84634 1.2058 0.817545 -0.0277428 0.122511 -0.753547
53 1 4.16088 2.05283 3.98673 0.215469 1.06744 0.619613
54 1 7.22663 7.50539 7.97488 1.12757 -0.726828 0.524334
55 1 1.07064 5.80666 7.69307 0.592339 0.720208 0.412375
56 1 1.70669 4.95015 0.235159 0.461366 0.441286 0.0926539
57 1 8.51671 8.60632 7.00554 -0.300015 -1.00362 1.24954
58 1 9.16732 7.05932 9.06018 -0.437223 0.485426 0.960842
59 1 8.56733 8.91485 5.61319 -0.142756 -0.0770929 -0.528389
60 1 1.7157 8.4109 1.85105 0.476015 1.20762 0.470249
61 1 3.69085 1.70967 2.69261 0.569769 -0.405322 -0.0251854
62 1 0.961809 8.8419 0.211981 -0.18073 0.210262 0.0402
63 1 6.66803 8.44575 6.6491 1.02933 0.110192 -0.921758
64 1 8.07734 6.84024 9.24079 0.349617 -0.57444 -0.617336
65 1 7.66271 1.07145 4.76881 -1.0997 0.134777 -0.474941
66 1 3.40994 6.62087 7.02221 -0.553221 -1.48818 0.342649
67 1 3.52108 8.99504 1.18268 0.504395 0.359851 -0.481866
68 1 4.25102 6.23028 0.935683 -1.17882 -0.0375682 1.16337
69 1 6.33668 3.84469 3.06375 0.30741 0.231523 -0.389824
70 1 7.60885 3.63259 4.07004 1.37314 0.65581 0.367169
71 1 8.25159 4.12578 0.304029 -1.14612 0.175711 0.597316
72 1 6.74827 0.656202 5.0387 0.5243 0.962452 -1.32846
73 1 3.35373 6.87389 6.06115 -0.0433727 -0.133406 -0.120218
74 1 7.40397 0.229037 4.19979 -0.281492 0.225005 0.144441
75 1 7.87001 0.0920157 8.61199 0.185684 -0.589816 -0.12077
76 1 6.24365 2.63233 1.49865 0.0522705 -0.00716503 0.81209
77 1 1.4687 3.30156 3.82743 0.239461 0.129437 0.771296
78 1 3.55906 6.73424 1.64587 0.470079 0.272026 0.68283
79 1 5.61607 0.453466 8.86273 -0.328965 1.49487 -0.1057
80 1 9.21894 5.71556 7.78 -0.735164 0.749112 0.0535549
81 1 4.11218 8.24903 4.69062 1.08358 -0.315957 -0.405712
82 1 5.88723 1.29769 4.53719 0.540408 0.1735 -0.348541
83 1 4.77452 6.94555 3.8791 0.418832 -0.345339 -0.612318
84 1 1.54062 7.74386 8.16396 -0.27708 -0.241416 -0.477137
85 1 1.81405 3.16069 1.09398 0.318663 0.213143 0.437349
86 1 4.20876 5.06216 1.05125 -1.04766 -0.0133572 0.562722
87 1 6.6335 3.34678 3.97545 0.560005 -0.767907 0.396806
88 1 8.6318 2.68126 7.71291 -0.598184 0.0117029 -0.327348
89 1 9.0616 3.44575 2.61399 -0.221746 -0.205246 1.51121
90 1 7.37606 4.36517 2.80944 -1.65116 0.189615 1.13169
91 1 1.12229 6.04107 6.5261 0.53785 -0.159054 1.10088
92 1 7.22322 6.42019 7.73678 -1.428 1.18248 0.607829
93 1 3.10027 7.91831 4.25354 -0.0957491 0.15781 -0.966259
94 1 8.88876 8.03063 2.54569 0.515632 0.312299 -0.297199
95 1 2.83022 5.27489 2.35953 0.450194 0.206383 0.367716
96 1 2.43907 1.42362 8.38135 1.24618 1.37385 0.484032
97 1 2.162 1.84038 1.86717 -0.57228 -1.25357 1.28972
98 1 4.0753 0.649806 2.48237 -0.361658 -0.262613 0.0426191
99 1 3.40966 1.63155 5.38181 0.418724 -1.3445 -0.666756
100 1 6.40567 8.00348 4.05274 1.52689 -0.341137 -2.00199
101 1 4.52665 6.58239 1.92332 -0.800786 0.671591 0.360196
102 1 6.94456 1.39623 3.07899 -0.497815 0.0717339 -0.130978
103 1 9.30188 8.33975 1.41642 -0.238983 1.64221 0.346527
104 1 3.26867 8.31315 9.00498 0.375064 -0.259756 -1.28409
105 1 6.99021 6.572 6.13773 0.142107 -0.129408 0.29072
106 1 7.79678 2.21018 6.33567 0.99594 -0.123639 0.803469
107 1 6.67434 7.84742 1.30434 0.991715 -1.05105 -0.127902
108 1 8.29728 1.63321 7.31101 0.327475 -0.347706 0.250342
109 1 6.17336 4.28554 4.0039 -1.54121 -0.223913 0.746086
110 1 9.27281 4.95555 6.50493 0.437648 -1.00431 0.678096
111 1 3.43723 6.94685 0.576588 0.975086 -0.362161 -0.755689
112 1 4.28581 0.346452 8.71315 0.737919 1.32584 -0.403156
113 1 2.6924 3.63816 8.90607 0.130695 0.844715 0.126736
114 1 3.80566 7.10217 4.4314 0.782255 -0.797183 0.873683
115 1 4.1336 1.19073 4.67058 -1.08071 -0.24801 -0.576334
116 1 5.19101 5.77671 7.68681 0.765825 -0.724243 -1.60145
117 1 7.81229 5.73647 1.16099 -0.46801 -0.200811 0.260983
118 1 7.25293 1.94587 7.22625 0.128462 0.915464 -1.20766
119 1 9.10363 6.65814 3.51593 0.92268 -1.61288 -1.76343
120 1 3.25916 6.37854 2.61065 0.958989 0.39335 0.0955691
121 1 5.65694 8.69319 7.04006 1.35965 -0.459724 -1.26031
122 1 8.32963 8.89677 7.9662 0.00562695 -0.0615914 0.55325
123 1 1.71228 0.0840477 7.63715 0.156837 0.622999 -0.623421
124 1 5.88185 9.39361 6.29328 0.174205 0.0637132 0.162655
125 1 6.26316 4.5712 5.8148 0.728925 -0.0017247 -0.00967846
126 1 0.00217038 4.68922 1.53942 -1.61624 -0.30957 0.502859
127 1 2.12264 7.95435 4.70462 -0.177724 -0.553342 -0.409012
128 1 5.64325 7.31339 8.0347 2.27134 -0.256239 -0.214052
129 1 4.24979 3.24549 1.20634 -0.798469 -0.562998 0.849287
130 1 4.08706 7.17097 7.4477 0.278628 0.0684143 0.571086
131 1 0.647331 1.62246 4.13725 0.639979 -1.30899 0.328457
132 1 7.17089 4.55233 4.29541 -0.868053 0.800559 -0.868525
133 1 6.05927 7.02627 1.73488 0.330069 1.10923 -1.09902
134 1 4.29749 1.42037 5.89582 0.262298 1.62526 -0.260565
135 1 4.92803 1.31733 4.10153 0.08762 0.224024 -0.278201
136 1 1.73562 2.17105 8.42771 0.451737 0.040145 1.15472
137 1 3.06326 4.72955 8.68884 -0.324629 -0.251744 0.296261
138 1 5.97035 2.87422 7.10641 0.0707021 -0.696944 -1.22665
139 1 0.153845 7.24887 4.56805 0.586944 -0.0887999 -0.804682
140 1 3.87042 5.4146 5.02726 -0.321372 -0.781901 0.444789
141 1 3.06046 8.64976 7.003 1.23728 -0.623852 0.683951
142 1 1.39736 2.46288 0.452503 -0.610934 -0.828536 -0.558676
143 1 3.68372 7.31234 8.78252 0.970958 0.340014 -0.71128
144 1 1.90117 5.44544 6.96513 -0.603239 0.539841 -0.758661
145 1 6.14824 4.32435 8.3971 -0.89194 -1.13878 -1.33078
146 1 7.23813 0.931612 2.07218 0.980405 0.237502 1.40161
147 1 4.08411 7.58716 6.48176 0.305979 0.295988 -0.140902
148 1 4.91785 4.58295 7.51926 -1.3521 0.110674 -0.155252
149 1 8.83232 6.85723 2.57875 -0.749524 -0.689396 0.15805
150 1 3.83136 0.573122 0.410517 -0.664982 0.0972307 0.808264
151 1 0.453039 7.16691 5.57369 -0.65013 -0.272755 0.0539648
152 1 4.42414 6.92437 0.0533956 -0.527086 -0.919673 0.726813
153 1 0.0841828 5.4032 0.0351544 0.500693 1.05393 -1.06783
154 1 6.44463 4.5936 0.120811 0.922425 -0.728881 -0.284187
155 1 6.5312 5.64672 2.68391 -0.475061 1.02576 0.488616
156 1 4.73149 0.613131 3.2681 0.0399879 0.611696 -0.496723
157 1 7.06681 2.40452 5.5876 0.788061 -0.627437 -0.550112
158 1 5.4901 3.96568 9.27462 -0.759212 1.44331 -0.0931994
159 1 1.21564 7.13943 4.3734 -0.141071 -0.994533 1.62951
160 1 7.04685 7.6555 6.0644 0.0116235 0.542389 0.949268
161 1 9.25076 3.91408 0.718738 1.4558 -0.640558 0.311097
162 1 0.0879593 0.765974 9.29 0.0587213 0.736752 -0.790454
163 1 0.403467 4.17368 6.07239 1.12779 0.785661 0.238209
164 1 4.47165 6.03004 3.40287 -1.22202 0.461926 -0.840307
165 1 6.78196 0.00362958 2.48394 -0.0865226 0.15219 -0.156615
166 1 8.74408 5.73932 5.90792 -1.10181 -0.871231 0.161122
167 1 5.31975 7.82482 1.38696 0.840443 0.19173 -0.598319
168 1 6.90773 5.11634 8.46185 0.491018 1.02746 1.13637
169 1 3.45186 5.40464 7.90178 1.33276 0.37477 -0.238265
170 1 2.53 1.09153 5.91634 -0.150854 -0.0587146 -0.297468
171 1 0.523926 3.34994 3.23873 -1.22487 -0.288522 -0.302378
172 1 2.72197 3.34454 0.512209 1.35299 0.15026 -0.37491
173 1 8.10696 6.81082 8.15685 -0.205848 0.107613 0.504594
174 1 0.723036 3.32499 5.59469 -0.702777 0.839227 -0.114538
175 1 6.96857 8.12208 3.1974 0.430925 -0.287747 -1.27911
176 1 1.84785 1.85634 6.45064 -1.68969 -0.0637238 -0.598492
177 1 4.00537 8.95961 0.109252 -0.38726 -0.416671 0.254439
178 1 8.93572 6.65284 6.19776 0.446215 0.158837 0.773765
179 1 5.74957 8.64488 3.50826 0.327358 0.967814 0.0801409
180 1 0.889129 1.08039 5.05598 -0.3232 -0.838284 -0.301284
181 1 7.72117 7.80445 0.550319 -0.561319 0.988047 -0.00507537
182 1 3.13605 0.804946 2.87615 1.85225 -0.259365 0.491013
183 1 2.37574 7.85726 7.67021 0.853431 -0.637612 -0.669603
184 1 3.63291 3.74354 8.4953 0.157636 -0.254293 -0.0877998
185 1 2.15326 6.82088 8.21045 0.310718 -0.529446 -0.627157
186 1 2.09347 4.74697 5.35629 -0.63583 1.46023 1.27501
187 1 1.5266 3.23029 8.52636 -0.398476 0.398397 -0.110699
188 1 2.59995 5.91186 1.56586 0.281525 0.425539 0.0528157
189 1 1.69982 4.0321 4.44078 -0.872483 0.959084 0.18862
190 1 7.82286 5.77649 2.26693 -0.347407 0.192149 0.779342
191 1 5.74106 5.30053 9.37095 0.792288 -0.942899 -1.0447
192 1 0.675604 5.23119 8.54824 -0.787273 -0.967824 1.44177
193 1 2.48165 6.97931 6.77619 -0.0868994 -0.685285 1.30938
194 1 3.71318 3.25529 0.173959 -1.40222 1.28045 0.955486
195 1 0.825265 8.09469 2.41502 0.0728493 0.100459 0.155905
196 1 2.73579 9.3256 3.41437 0.334025 -0.129314 1.10923
197 1 2.70534 5.96933 6.52193 1.15602 0.271346 0.531722
198 1 2.68592 4.35683 0.229115 1.10474 0.367166 0.454071
199 1 1.41013 7.05282 6.32707 1.01278 -0.865457 -0.801285
200 1 2.70804 0.0373362 6.33649 0.64997 1.01851 -0.0596242
201 1 9.32933 7.53288 0.652393 -0.488667 0.416876 1.08896
202 1 9.06493 3.0277 3.64427 0.350605 0.539237 0.295482
203 1 3.1912 7.61569 7.04388 0.00396173 -0.0764194 -1.18807
204 1 4.37389 3.21812 6.0084 0.398121 -0.495263 0.407624
205 1 8.05318 7.39534 6.19929 0.101502 1.24331 -0.0521546
206 1 0.607906 2.13678 5.08877 1.09686 1.23015 -0.579052
207 1 6.83003 2.47517 7.90708 0.695402 -0.0686906 1.37063
208 1 8.00511 3.82492 6.08492 0.591847 0.213636 -0.0693825
209 1 5.21025 1.91909 7.51631 -0.394507 0.0582064 0.831226
210 1 2.38174 2.96529 8.10257 0.424836 0.250912 0.000719681
211 1 1.27379 2.03758 2.58702 -0.130847 -0.480796 -0.338005
212 1 5.85097 7.39935 3.39028 -1.00375 -0.185405 -0.385006
213 1 3.1741 0.354946 4.27677 -0.240676 -0.0838405 -1.3433
214 1 7.06925 2.17083 9.00467 -0.135645 0.74421 0.425003
215 1 1.74914 5.67527 4.77969 0.454626 0.214946 1.34073
216 1 4.34187 6.59923 6.43958 2.00142 0.869355 0.0212395
217 1 7.61811 8.72517 9.31627 -0.540944 -0.177903 -0.834302
218 1 4.69249 3.7526 1.96041 -0.725432 -0.296391 -0.919679
219 1 7.03192 6.92066 9.38531 -0.935507 -0.712334 -0.228865
220 1 9.11663 2.53288 2.08336 0.0999281 0.0203712 0.028937
221 1 0.139751 8.32054 6.92265 0.411515 -0.415615 -0.207127
222 1 4.91343 3.97055 0.806509 -0.345894 0.966635 -0.580482
223 1 3.48211 8.0683 0.555044 0.712872 0.914183 0.576131
224 1 6.92485 7.07552 3.39983 0.468423 -0.95786 0.0192111
225 1 4.75103 5.51514 6.69867 -0.614966 -0.188498 -0.218933
226 1 8.93052 6.66823 1.2577 0.363299 -0.59721 0.300581
227 1 4.53528 8.47539 0.97633 -1.40967 -0.261212 0.188961
228 1 6.54636 3.63047 9.09197 -0.569414 -0.0108385 0.307006
229 1 0.417845 8.0887 7.85792 0.345949 1.08401 -1.23317
230 1 3.499 0.662589 1.46226 1.49587 -0.473346 0.0699052
231 1 0.367397 6.62377 7.61839 0.416461 -0.512948 0.553244
232 1 6.53978 6.00594 9.0423 -0.108321 -1.6318 -1.6021
233 1 9.02483 8.21886 8.49646 -0.0985613 0.528225 0.188368
234 1 2.68104 0.192876 0.541679 0.811617 0.857818 1.05232
235 1 7.4063 5.941 6.8515 -0.346901 0.256838 -0.044452
236 1 1.07059 8.68142 7.38733 1.10098 -0.0193626 -0.262125
237 1 7.06592 0.288275 1.07252 0.231655 0.67296 -0.55881
238 1 6.01574 8.78312 9.2606 0.4342 -0.430206 -0.807067
239 1 2.34838 7.53633 5.92833 -0.287702 -0.592827 0.210805
240 1 5.12765 0.861855 6.1318 1.61372 0.272776 0.798806
241 1 3.23134 7.25 3.36873 0.0973942 0.885926 0.0745322
242 1 9.29729 3.08711 4.8585 0.921198 -0.537911 0.202232
243 1 1.59096 8.19582 0.784534 -0.10454 -0.0421268 -0.0159297
244 1 6.29691 0.393594 0.257341 -0.589077 -0.436193 -0.694422
245 1 6.36064 2.98561 2.53274 -0.353153 0.274766 -0.274285
246 1 0.824139 5.83236 1.63584 -0.00578812 -0.252246 -0.364616
247 1 4.81055 2.97407 3.49505 -0.320616 0.199824 -0.699498
248 1 6.36501 2.04446 3.96424 -1.14935 -0.134292 -0.265987
249 1 2.08542 4.13311 8.11091 -0.0806137 0.327864 0.0704206
250 1 4.92378 7.86561 5.29399 1.55556 -0.117238 -1.2355
251 1 7.86768 2.01554 5.07567 0.288325 0.223937 -0.379117
252 1 2.93227 2.40181 2.52865 -1.19541 1.44906 -1.75634
253 1 0.543326 5.54759 5.8722 0.886117 -0.88056 0.0879185
254 1 7.2179 2.96061 2.00583 -0.163695 0.750066 0.208894
255 1 4.9507 3.91278 8.33434 -1.39921 -0.21966 0.098225
256 1 1.30201 4.3719 8.82118 -0.70888 0.154713 0.731251
257 1 3.15515 9.29691 9.0134 0.443525 -0.243415 -1.72598
258 1 2.07758 0.600391 2.65732 -0.332347 -0.64408 -0.00131531
259 1 3.69218 6.16417 9.30922 -0.755209 0.31429 0.495534
260 1 4.03028 3.05289 6.96186 0.196207 -0.0518526 -0.511068
261 1 7.20211 3.82481 0.55857 0.11754 0.349626 -0.629726
262 1 5.02718 0.470264 2.161 0.0284686 0.0332537 -0.229325
263 1 5.60249 3.54561 4.35904 0.806169 -0.835645 -0.715902
264 1 7.64831 6.41686 4.3739 -0.155599 0.632236 -0.682513
265 1 4.44876 4.4945 4.83816 -0.684233 0.0342528 0.2042
266 1 8.74065 7.57744 4.08256 -0.630621 0.341001 -0.280625
267 1 3.87355 2.53481 1.87069 0.237809 -0.848804 0.154992
268 1 5.8031 8.89646 8.06447 -0.183868 -0.820392 0.107987
269 1 3.35417 5.81941 0.87091 0.257987 0.235077 1.57504
270 1 8.1555 8.14457 3.45243 -0.766064 -0.160248 -1.44358
271 1 7.63321 7.71339 8.92985 -1.45819 -1.14765 -1.50432
272 1 8.59236 0.777558 3.21879 -0.804972 -0.488629 -0.903704
273 1 8.74219 1.78474 3.32817 -0.430737 -0.107385 -0.753231
274 1 6.00222 6.87128 6.45306 -0.350982 -0.74243 -0.446597
275 1 4.17953 8.47918 5.74069 -0.891133 0.0681383 -0.00772012
276 1 0.0127077 5.08812 2.56248 -0.0341644 -0.0712342 0.347848
277 1 3.28293 1.62366 4.27482 -0.438458 -0.138153 1.49373
278 1 2.65716 6.1845 7.54729 -0.418112 0.320608 -0.503274
279 1 2.58833 8.85488 4.42711 -0.656269 0.844557 0.157183
280 1 5.54544 4.22176 2.29559 0.332599 -0.653414 2.01887
281 1 6.61291 9.02873 4.64289 -1.11485 0.0973562 -0.967258
282 1 9.26395 0.524457 2.46354 0.271741 -0.49726 -0.473223
283 1 8.26355 8.5272 4.47528 0.610599 0.544997 0.922102
284 1 8.84746 7.37716 5.28952 -0.587178 0.0340825 -0.233922
285 1 4.10223 6.98047 2.86642 0.505885 -0.302028 -0.701064
286 1 8.83058 1.8097 8.27674 0.127181 0.54029 0.522435
287 1 4.03752 0.100223 7.71019 -0.0573596 -0.600497 0.301297
288 1 2.18837 1.60023 0.0210729 1.72809 0.608424 -0.355189
289 1 6.91029 1.71476 4.8039 -0.447068 0.0741799 -0.0807088
290 1 1.58402 8.06823 9.14366 0.777121 0.528308 1.57134
291 1 4.86573 3.08601 7.74463 0.561775 -0.540618 0.771367
292 1 0.389221 6.9657 6.63892 -0.0640488 1.67365 0.00107183
293 1 1.45692 8.6903 4.30474 0.070723 0.261403 -1.15011
294 1 8.2922 3.82021 7.63308 0.0139916 0.697636 -0.210327
295 1 7.45827 4.89524 7.2653 -0.2502 -1.51263 1.07067
296 1 5.28954 7.52728 0.429396 -0.523962 -0.616277 1.15799
297 1 3.44116 2.50919 0.882944 -0.524796 -0.0648596 1.67696
298 1 4.03384 6.35855 5.45856 -0.146062 -1.10991 -0.114234
299 1 6.11014 6.65937 2.71145 -0.488372 0.492089 1.38652
300 1 8.03565 2.59568 3.5614 -0.0760678 0.286974 -0.721957
301 1 8.77159 0.996778 6.62884 0.656015 0.186514 -1.07518
302 1 8.94278 0.494995 5.66331 0.892089 -1.66522 0.21471
303 1 0.201527 9.11937 8.9074 0.495801 -1.0094 0.27087
304 1 6.25703 3.63215 1.80195 -1.22324 -0.525078 0.236344
305 1 5.06341 1.90584 9.40631 -0.376874 -1.17021 1.00568
306 1 8.3102 9.23822 3.75807 0.281818 -0.263637 -1.40933
307 1 5.90385 8.34628 0.817821 0.750995 0.448772 0.00933342
308 1 7.13004 1.35738 5.71346 0.801164 0.118076 0.226111
309 1 8.90486 5.02804 8.55584 -0.405931 -0.98469 -1.04026
310 1 2.86462 4.99646 6.80457 1.12514 -0.16811 -0.462188
311 1 8.24937 8.39714 1.81448 0.0149885 -0.372374 0.661056
312 1 2.52106 6.93944 2.06848 0.30919 0.404949 0.681733
313 1 5.9644 0.386664 1.37029 -0.522196 0.380179 0.661264
314 1 6.86154 5.08428 3.49622 -0.191998 -0.0990115 -1.27825
315 1 3.88964 4.02153 6.42031 0.233749 -0.0469044 -1.32465
316 1 1.91985 4.95436 4.01578 -0.808969 -0.0036198 -0.200888
317 1 8.83879 2.16674 6.31241 -0.109125 0.0918843 1.06536
318 1 8.77839 6.60158 7.34909 -1.63177 0.679185 -0.0876987
319 1 3.52883 0.625001 5.92907 0.428998 -0.22085 0.170179
320 1 6.20512 5.57872 5.2825 -0.0023002 0.408399 -0.626635
321 1 2.38455 0.951397 3.73842 0.628428 0.404041 -0.568072
322 1 1.55474 7.32091 5.35428 -0.2589 0.388538 -0.800693
323 1 5.09302 8.06187 4.10018 0.690688 -0.495016 0.387828
324 1 4.10769 4.67178 8.47127 -0.840252 -0.829358 0.408929
325 1 3.82025 5.66907 1.89683 -0.122419 -0.820176 -0.226258
326 1 8.95207 2.2199 5.31928 -0.165625 -1.92426 -1.15777
327 1 3.96439 1.30282 9.08499 -0.986755 0.168287 0.971554
328 1 5.83253 2.92345 9.33188 -0.250983 -0.438081 -0.240586
329 1 7.80188 2.21123 8.16647 -0.604716 1.77135 -1.78386
330 1 4.02512 8.65816 8.38944 -0.116104 -0.699269 -0.892703
331 1 4.16147 2.36522 5.1481 0.802296 -0.127972 -0.874096
332 1 1.92829 1.58466 7.44162 -0.417637 -0.349825 -0.959558
333 1 7.6733 4.84772 1.78171 -0.361547 0.67003 1.14342
334 1 1.69441 7.99943 6.7281 -0.848844 0.170876 0.464042
335 1 7.92481 1.55875 2.77127 0.616134 -0.834923 0.35272
336 1 0.644383 5.43191 4.8155 -0.134798 0.966095 0.934595
337 1 5.08555 8.44017 6.29013 0.669346 -0.42503 0.395095
338 1 8.21991 0.355044 7.47766 1.46865 0.623382 0.22297
339 1 0.389422 4.32294 8.17381 0.298674 -0.145391 -0.213675
340 1 2.14368 8.86364 2.66635 -0.782535 -0.364887 -0.2761
341 1 7.55687 8.85974 7.27756 -0.072426 0.671996 1.92423
342 1 6.36925 6.27817 3.69039 -0.767268 -0.428678 -0.725427
343 1 4.11409 4.57524 2.28661 0.635753 0.523042 1.24072
344 1 1.7988 0.14239 5.83368 -0.347503 0.188871 -0.275073
345 1 3.97872 7.42508 5.39231 0.174474 1.01639 0.0401862
346 1 6.53676 5.40738 0.726491 1.66235 -0.410097 1.15551
347 1 3.53162 2.99668 7.88783 -1.10748 1.3116 -0.817321
348 1 8.29082 4.53696 6.73101 0.67197 0.37062 -0.0133315
349 1 7.31225 3.11125 8.68744 0.262556 0.02905 0.462892
350 1 4.53374 3.79658 4.04064 0.625134 0.536504 0.754847
351 1 8.13226 6.69112 1.8917 0.102127 -0.434514 0.265116
352 1 0.261197 8.81814 5.52955 -0.520389 -1.20553 0.048395
353 1 0.567342 2.7493 4.08921 0.56898 -0.687992 -0.0287329
354 1 1.75377 7.05532 9.17015 0.283601 -0.378667 0.654116
355 1 8.55509 6.03907 0.356253 1.32616 1.53564 0.981216
356 1 5.75014 3.97473 7.4429 0.46663 -0.32335 1.37625
357 1 0.108064 1.79847 9.1064 -1.32003 0.446607 -0.700222
358 1 6.6791 6.97639 4.44036 0.13964 -0.154137 -0.978373
359 1 4.19002 6.02191 7.40038 -0.243648 0.707472 1.13294
360 1 3.12438 4.34002 2.67982 -0.376836 0.343286 -0.292647
361 1 3.8312 3.13603 3.73948 0.562474 -0.158289 0.0747664
362 1 4.56369 2.30069 2.68055 -1.21094 0.466902 1.99793
363 1 6.94179 5.64602 1.73925 -0.500706 -1.41884 -0.373861
364 1 2.07841 4.29537 6.95714 -1.09708 0.441485 1.57548
365 1 0.441994 2.17821 0.748242 -0.172147 -0.519294 0.0766694
366 1 5.60971 7.75684 2.37959 0.0948398 -0.869262 0.860859
367 1 0.869598 5.04064 0.906276 0.316163 0.200425 0.319333
368 1 3.25021 8.42452 5.17026 0.532793 0.194124 -0.52173
369 1 8.54605 6.02515 8.70417 0.539996 1.23149 0.360398
370 1 6.06901 0.632686 7.97796 0.852093 1.19964 0.18806
371 1 3.3036 6.17608 4.78452 -0.174028 -1.22583 -0.296237
372 1 1.64379 3.41127 7.4362 0.450004 1.63318 -0.513113
373 1 6.16746 7.09568 0.748729 -0.0495276 1.42567 0.628563
374 1 0.104859 5.89114 6.79319 -0.225908 0.138963 -0.606742
375 1 5.7969 5.77402 6.76508 -0.538628 -0.647136 -0.106659
376 1 2.98059 1.29388 7.49446 0.482501 -0.296746 -0.485694
377 1 2.14736 8.76747 8.46927 -0.311476 0.0677341 -0.178979
378 1 5.21024 1.41824 2.67127 0.484085 -0.736503 1.13933
379 1 6.5524 3.89755 4.92028 -0.0429732 0.209169 -0.33852
380 1 6.70611 5.5551 6.22197 -1.15304 -1.00632 -0.177224
381 1 4.31716 9.21492 1.78983 0.395066 0.982093 -0.719213
382 1 5.40092 6.23383 4.29024 1.20848 -1.36061 1.24006
383 1 0.918822 8.95791 6.37319 0.238807 -0.180007 0.814123
384 1 3.54573 8.85027 4.05113 -0.947476 -0.877382 -0.66864
385 1 4.39734 7.98933 9.28418 -0.341782 -0.851186 -0.800492
386 1 0.801616 5.07346 6.87726 0.492833 0.370206 -0.703687
387 1 9.3014 0.476038 3.87753 -1.03089 1.17152 -1.6842
388 1 7.24386 2.16353 1.18879 -0.714349 0.0185953 0.302075
389 1 6.17337 2.67445 4.84791 0.32463 0.726897 0.237025
390 1 3.01067 4.87859 3.5803 0.310393 -1.09308 -0.147627
391 1 6.80561 8.92804 0.46416 -0.217107 1.44206 0.57078
392 1 3.95675 1.46549 0.963574 0.0189946 -0.977166 1.14132
393 1 1.70976 5.70587 0.929855 -0.124527 -0.268226 0.616323
394 1 8.05601 3.34702 1.16384 -0.617585 -0.405938 -0.800443
395 1 0.938407 0.475649 0.712196 -0.329617 -0.203808 0.701888
396 1 2.17137 1.5924 2.92117 -0.810783 0.245613 -0.245955
397 1 6.19346 3.59693 0.700529 -0.759384 0.49184 -0.502571
398 1 8.36946 4.57939 2.63308 -0.372998 -0.304121 -0.540486
399 1 7.0825 2.0045 2.21033 -0.36322 -0.502336 -0.233307
400 1 2.36192 7.59986 2.8188 0.319067 -0.988066 -0.53699
401 1 3.63249 2.50075 6.11147 0.44596 -0.408431 -0.58264
402 1 0.0284469 5.71593 0.980406 -0.692545 -0.13239 0.00657259
403 1 3.29762 4.86531 1.57033 -0.062942 0.271193 -0.112683
404 1 9.00608 4.67757 7.58469 0.683249 0.117864 0.786249
405 1 4.34765 4.87267 5.84044 -0.796541 -1.31417 0.388979
406 1 8.11598 0.164983 0.81171 0.104372 -0.08841 -0.162688
407 1 7.22796 0.381737 7.89569 -0.121503 -0.855835 0.405011
408 1 0.325229 3.06044 0.214931 -0.302989 0.672656 0.153709
409 1 3.54177 4.5144 5.3654 -0.519543 0.165964 -0.176476
410 1 9.35879 1.69709 7.25076 -0.62262 0.249651 0.470292
411 1 7.54972 8.96515 5.13807 0.266938 -1.09358 -0.490379
412 1 1.73539 0.125302 3.57729 -0.327579 0.129281 1.05245
413 1 1.71078 6.46946 1.64045 0.392759 -0.156898 0.0263679
414 1 5.12232 2.41731 8.52396 0.950691 -0.261451 0.987675
415 1 9.32336 9.10887 0.530789 0.487096 1.03247 1.064
416 1 9.1404 1.76121 1.2901 0.00960421 0.509032 0.230254
417 1 9.02489 5.51696 4.60442 0.178586 0.01521 -0.286963
418 1 3.25434 2.70314 4.50922 -0.629062 0.223369 -0.436824
419 1 5.34116 2.25616 1.89042 -0.387798 -0.16921 0.461246
420 1 0.729004 3.72532 4.51061 2.14677 0.422715 0.644048
421 1 6.16668 6.66525 5.34963 -0.753055 -0.322274 0.133102
422 1 0.539159 2.47831 6.13626 0.219683 0.182229 1.01339
423 1 0.208685 4.67656 4.18962 -0.44441 0.363084 -1.25077
424 1 4.81128 7.81331 3.12624 0.279175 0.65862 -1.39264
425 1 1.50238 2.7228 5.91118 0.501151 -0.821231 0.458636
426 1 5.03241 0.396731 7.86674 0.403231 -0.087708 -0.0877887
427 1 8.29833 3.12356 6.73846 1.51066 0.766066 1.58179
428 1 3.40395 7.85011 8.00905 1.27433 0.382769 1.15049
429 1 6.19218 8.6215 2.59708 0.14159 -1.13627 1.65408
430 1 5.73022 3.48235 5.38806 0.341052 0.559952 -0.459185
431 1 9.17565 3.14921 6.04994 -0.784141 -0.0813197 0.169033
432 1 4.93157 7.89198 7.20589 -0.378497 0.481195 -0.731209
433 1 2.9718 7.37416 5.16118 0.524837 0.356477 0.742165
434 1 7.46609 8.58237 1.13671 -0.685251 0.132113 0.268727
435 1 0.828198 3.15414 1.09384 -0.0167642 -0.598348 -0.214429
436 1 8.52911 7.86491 9.34808 -0.426746 -0.176192 0.141938
437 1 7.64038 7.53164 1.66098 -0.329097 -0.0014796 -0.990508
438 1 0.85026 7.38864 0.236769 -0.564885 0.0779817 0.693415
439 1 4.0581 8.01526 3.68102 0.143779 -0.365235 0.724465
440 1 7.34886 6.06733 3.39787 -0.602384 -1.05784 0.236587
441 1 5.37546 2.09118 3.47179 0.0877814 0.519665 0.0732319
442 1 4.96272 4.12457 5.83118 -0.470425 1.31958 -0.25547
443 1 2.53316 6.5632 0.687642 -0.123542 -0.50324 -0.0508565
444 1 0.790324 6.50688 3.3329 -0.209936 -0.391327 -0.990665
445 1 6.12273 1.95542 9.38804 -0.326944 0.9141 1.56391
446 1 8.23661 2.91678 5.64092 1.60852 -0.507571 -0.242436
447 1 1.46788 4.78186 2.88601 -0.751858 -0.0107606 0.645512
448 1 7.35149 8.50646 8.26871 0.111587 0.157557 0.88147
449 1 3.17174 1.87005 0.149163 0.500432 0.949541 0.665357
450 1 4.3226 5.69602 8.45573 -0.47185 -0.834532 1.26609
451 1 4.8212 8.78532 7.73987 -1.34462 -0.34405 -0.814144
452 1 3.96288 8.26223 7.34538 1.0192 0.17843 -1.72482
453 1 3.80878 9.16436 6.55114 0.585179 0.677759 -0.512462
454 1 4.82852 0.0403946 6.93808 0.640726 0.224045 -0.963426
455 1 8.48235 4.77102 3.97204 -0.436569 1.20134 -0.645259
456 1 9.29018 4.83096 5.35756 0.969325 -1.00843 -0.591066
457 1 5.43343 8.1694 8.74385 -0.0684528 -0.0751232 -0.209148
458 1 3.79596 5.33412 2.97146 0.278308 -1.15731 -0.0977508
459 1 8.57231 4.06245 1.64586 0.563257 -0.313796 -0.691861
460 1 6.99077 2.91196 6.74943 -0.0612001 -0.270605 0.163701
461 1 7.98809 3.64433 2.29847 0.443859 -0.229353 0.443912
462 1 2.97266 8.40095 2.01176 -0.594217 1.81241 -0.204596
463 1 4.16519 2.24765 0.139668 -0.760716 0.64439 0.757601
464 1 9.26412 3.52206 7.89662 0.75536 -1.67821 -0.165198
465 1 1.90704 9.02704 6.70879 -0.0397764 -0.0370433 -0.423956
466 1 3.23571 0.598004 8.23361 0.389101 0.53762 -0.333133
467 1 4.49558 2.26445 1.1426 0.241079 0.97954 -0.584889
468 1 7.81194 0.469652 5.56634 -0.179262 -0.444788 -0.675246
469 1 7.24259 2.55466 4.39068 -0.775278 -1.09536 -0.571804
470 1 0.0913825 2.7768 7.08065 0.00916322 0.666975 -0.0767035
471 1 6.17693 0.982651 6.19447 -0.904045 -1.64734 1.24929
472 1 8.32078 3.00275 4.47145 0.152246 0.75522 0.329475
473 1 5.62312 2.24449 0.813219 -0.999609 1.55826 0.260734
474 1 0.225549 7.4063 2.96799 0.772892 -0.406793 1.26567
475 1 3.28375 2.24548 7.20137 0.206275 1.98325 -0.128109
476 1 8.89615 0.41338 8.372 0.0836243 -0.186195 0.126859
477 1 2.2762 8.77633 0.0814741 -0.0660796 -1.16077 0.0620007
478 1 2.595 0.954381 1.79921 0.882639 -0.929703 0.588383
479 1 1.25633 3.79817 1.87878 1.234 0.365875 -0.0177943
480 1 7.00657 1.34129 8.03903 -0.0456947 0.728458 0.215759
481 1 2.94401 7.54701 1.3403 0.279002 -0.0324588 -0.40602
482 1 2.6366 5.78016 4.02475 -0.250793 -0.502374 -2.10832
483 1 5.52169 5.8183 3.23697 0.0184946 -0.603484 1.12506
484 1 5.61823 1.04675 7.10376 -0.784104 -0.177017 0.525998
485 1 5.63375 6.12864 8.55564 0.901449 0.138053 -0.68227
486 1 0.332973 2.35729 3.12341 -1.1644 -0.549986 0.599199
487 1 9.20833 4.30831 3.2719 0.715696 0.0509963 1.48783
488 1 8.32939 5.78873 3.87786 0.149312 -0.269052 0.655883
489 1 3.21474 1.76506 1.67422 0.199745 0.79309 0.333947
490 1 5.70955 7.32187 4.65172 0.821109 0.472999 -0.750522
491 1 9.05658 8.47628 3.65446 0.837209 1.13988 0.35958
492 1 9.13686 7.30359 8.02936 -0.503853 -0.271008 0.161618
493 1 5.99452 1.87149 8.36917 0.0592377 -0.142303 0.00253775
494 1 7.64012 1.74276 3.85269 -0.043404 -0.977078 0.423022
495 1 4.3923 1.47958 1.88823 0.21066 0.343583 0.12835
496 1 1.7633 1.85731 5.3618 0.308085 0.0474652 0.196198
497 1 1.8326 0.661155 0.160461 0.550788 -0.558885 -0.225684
498 1 7.88951 1.24396 0.846845 0.636372 -0.39719 -0.896909
499 1 3.8344 3.58309 4.79098 0.242313 0.66626 -0.4415
500 1 5.74826 6.31222 0.247796 -0.5044 -0.196635 0.193568
501 1 5.11596 7.35073 6.35647 -0.282158 -0.213481 -0.416987
502 1 0.78624 2.99812 2.23868 0.335623 0.728372 0.213584
503 1 5.21073 6.28413 5.98998 0.0604379 -1.12912 -0.501381
504 1 5.17338 8.69224 2.53763 -0.622507 0.00996713 -0.480124
505 1 7.50155 5.91339 8.6652 -0.86161 -0.0681088 0.907231
506 1 2.30839 6.61036 4.61349 0.224782 -0.0863476 0.0984029
507 1 6.76606 0.00431993 8.80127 -0.208573 -0.264578 1.26263
508 1 4.34495 7.33483 1.03133 -0.0425531 0.674589 0.268036
509 1 8.1489 1.05435 8.23126 0.544277 -0.364828 -0.524696
510 1 1.70063 1.32836 4.38866 -1.44101 -1.1157 0.348759
511 1 7.31696 4.60646 6.24326 1.99008 0.763735 -1.72249
512 1 7.8333 7.39977 2.76468 0.201116 -0.330712 -0.558737
513 1 2.22433 7.28521 3.86733 -0.280779 -0.302308 -0.371029
514 1 8.63959 6.58822 4.50074 -0.129827 0.65901 0.0692901