ITEM: TIMESTEP
83720000
ITEM: NUMBER OF ATOMS
1000
ITEM: BOX BOUNDS pp pp pp
0.0000000000000000e+00 9.4000000000000004e+00
0.0000000000000000e+00 9.4000000000000004e+00
0.0000000000000000e+00 9.4000000000000004e+00
ITEM: ATOMS id type x y z vx vy vz
1 1 4.5706 7.12351 3.19216 0.693185 -1.40469 0.403081
2 1 2.56369 5.50339 1.59185 -0.0462989 -0.288497 0.656966
3 1 2.12691 3.54056 6.39486 0.111767 0.347767 0.874291
4 1 2.00191 6.78661 0.370611 -0.590973 0.0101113 -0.0188182
5 1 0.521088 0.433481 4.08101 -0.487372 -0.929742 -0.284117
6 1 4.80766 5.83529 4.69906 -0.0656836 1.5529 -0.905929
7 1 6.20273 5.132 6.5241 -0.96747 0.479595 0.558685
8 1 8.213 2.89517 6.70552 -0.258239 0.524536 0.21795
9 1 0.67357 7.48442 6.37419 -0.360612 0.732517 0.814979
10 1 0.284424 5.86246 8.80052 0.0225928 0.272882 0.885646
11 1 3.91027 0.648276 4.95477 -0.0884145 -0.208647 0.429633
12 1 8.00675 1.41899 8.28316 0.329484 -0.135881 -0.942397
13 1 8.89931 0.300064 6.7267 0.433873 1.17413 -0.272174
14 1 2.91719 3.86435 8.01717 -0.549303 1.34741 -0.657538
15 1 0.365598 9.02331 8.42014 -0.253015 0.922697 0.126229
16 1 8.64813 7.34051 9.26103 -0.214761 0.233826 0.013058
17 1 6.89686 0.424751 1.41902 -1.03448 -1.11311 0.00760119
18 1 5.62103 6.79705 5.8053 0.0438338 0.373667 -0.808054
19 1 8.94342 6.7537 1.63317 -0.217089 0.676553 0.957587
20 1 6.97876 2.78905 0.320334 -0.0575024 -0.0876463 -0.260711
21 1 8.49117 3.42897 8.24567 2.16156 -0.245822 1.05003
22 1 7.82816 0.0882482 1.07109 -1.21932 0.0325445 0.355378
23 1 7.25754 0.645628 7.96718 0.644201 1.05449 0.0650436
24 1 1.66874 4.76097 9.14973 0.601876 0.160647 -0.978247
25 1 6.19184 8.20832 2.37764 -1.41084 -0.00708148 -1.27022
26 1 5.41516 1.94366 4.07029 -0.110115 0.00422216 0.821058
27 1 5.10638 1.8698 7.43182 0.369592 0.491578 -0.274453
28 1 6.51126 3.11145 3.40479 -0.155491 0.153323 -0.915676
29 1 0.681072 4.66853 8.59768 0.694685 -0.811151 -0.737023
30 1 9.08268 2.92011 2.8453 -1.29721 0.666799 -1.01308
31 1 0.160658 0.703466 0.233377 -0.321949 1.03923 -0.26788
32 1 5.40045 5.7786 5.53452 1.00018 -0.677852 0.282183
33 1 6.68736 8.21212 0.404488 -0.677085 0.554336 -1.0325
34 1 3.77977 7.79992 0.799283 -0.144905 -0.0758488 0.836706
35 1 3.74381 5.69194 4.5969 0.421306 0.029551 -0.419371
36 1 2.60224 0.128225 2.59855 0.313986 -0.926014 0.600709
37 1 7.02482 4.82047 9.08482 -0.903103 0.922212 -0.529869
38 1 9.20115 0.486849 2.09494 0.363816 -0.614247 0.117858
39 1 5.47901 7.61248 2.9537 0.925698 -0.0830778 0.259317
40 1 4.71233 9.29675 9.30606 1.43345 0.52102 0.854253
41 1 3.56592 9.2753 6.64734 -0.450601 0.648991 0.777157
42 1 1.70658 8.84124 2.68409 -0.441695 0.918806 0.408314
43 1 5.00197 0.838745 8.85785 0.261227 0.0366085 0.0504368
44 1 1.92406 0.130438 5.0207 0.183928 -0.975511 0.742653
45 1 1.23143 7.51606 8.27451 0.12409 -0.294906 -0.0816572
46 1 0.796479 4.85083 2.35824 0.31028 1.72039 -0.0711284
47 1 8.06205 8.8337 1.80304 0.609859 -0.321371 -0.825539
48 1 3.09627 1.30191 4.59627 -0.436205 -1.34164 1.04001
49 1 0.379161 2.592 6.59595 -0.695473 -0.785101 0.886804
50 1 8.17269 2.6995 4.41777 -0.152351 0.352408 0.531868
51 1 7.48962 7.00313 2.65721 0.527527 1.36688 0.867187
52 1 5.17997 7.66908 1.6673 0.697426 0.292979 -0.0542602
53 1 1.12027 8.68626 7.57845 -1.15446 0.0644851 -0.391369
54 1 6.02593 9.19019 5.91003 1.01923 0.0917711 -1.41282
55 1 2.19501 4.81251 3.00752 0.226858 -0.197368 -0.480511
56 1 1.07838 7.87862 5.36694 0.242849 -0.675415 0.899293
57 1 3.50863 5.14579 5.38427 -0.445549 -0.0507143 -0.0773199
58 1 5.62088 5.22072 0.824845 -0.183702 -0.670751 0.562161
59 1 6.67642 7.40051 6.76623 0.110786 0.580429 -0.0122965
60 1 2.19561 1.32129 5.30608 0.449633 -0.103983 0.501907
61 1 3.74668 6.76437 3.78048 -0.341753 -0.353958 0.326246
62 1 7.00432 8.96767 2.2206 -0.330018 0.409599 1.19952
63 1 0.183487 4.47744 4.42427 0.509324 -1.4854 0.308246
64 1 0.220461 8.55762 1.30002 1.65836 -0.0758212 -0.660158
65 1 7.19452 1.2567 3.23989 -0.038864 -0.267445 -0.280743
66 1 1.50963 1.97569 8.4465 0.133745 1.27334 0.318416
67 1 0.439884 6.24088 6.70867 0.880895 0.666819 0.096647
68 1 4.09976 7.05573 7.58375 -0.315737 -0.100663 0.113408
69 1 9.01385 7.42177 3.51192 -0.206207 -0.15362 -0.0857815
70 1 8.42603 5.65164 3.28061 0.0315394 -0.394141 1.05171
71 1 7.00298 8.29469 7.35172 0.880895 -1.22129 0.563997
72 1 2.95101 2.77679 0.36549 -0.318313 0.0519629 0.516634
73 1 4.28475 5.32133 1.80425 0.317668 -0.195271 0.799143
74 1 3.55455 0.584137 2.80288 -1.51556 -0.985768 0.447161
75 1 5.26786 2.67673 2.09584 -0.0618731 0.126193 -0.419352
76 1 8.08496 6.53272 7.70264 0.0249486 0.0510414 -1.50774
77 1 0.852435 3.8035 4.82908 1.07001 0.244735 -0.644751
78 1 4.13266 7.14918 1.66419 1.2428 0.524887 -0.121273
79 1 6.59636 9.24277 7.88803 0.774919 1.05297 0.287649
80 1 0.892533 1.54484 9.15877 0.291845 -0.276091 -0.33223
81 1 2.93766 4.14584 6.9695 -0.312294 0.334719 0.285014
82 1 4.25964 9.14491 2.75484 -0.711289 -0.419175 -0.24447
83 1 4.65496 7.81577 5.13935 -0.960559 -1.3576 0.63426
84 1 0.417112 3.62887 6.44803 0.627624 0.359171 -0.363781
85 1 6.0058 3.10078 8.20781 -0.535343 -0.2574 -0.55106
86 1 3.84458 4.48751 7.56017 -0.627655 0.36938 0.762895
87 1 2.18985 2.79973 3.70536 -0.1841 -0.0491568 -0.400016
88 1 8.4445 1.16676 1.9908 -0.430633 0.431969 0.0503598
89 1 6.22105 5.00392 2.33511 -0.522729 -0.0630301 -1.30686
90 1 5.50772 6.56108 2.56353 -0.409515 -1.74874 1.75453
91 1 1.10477 6.31541 2.91904 -0.32609 -1.41675 0.147556
92 1 7.88367 0.454832 8.8582 0.612376 0.652018 0.163359
93 1 3.61856 0.868008 5.96605 -0.812464 -0.296555 0.19913
94 1 1.74111 5.16973 5.16692 -0.179821 0.78673 -0.362337
95 1 7.97769 8.35776 5.76557 -0.658789 -0.918404 -0.083169
96 1 5.35381 7.59808 7.06711 0.21725 -0.319347 0.369914
97 1 0.742989 5.35157 0.33019 -0.57599 -0.988043 -0.5579
98 1 6.2418 7.82714 1.45739 1.06487 -0.637907 -1.67098
99 1 6.62101 8.43662 6.45141 0.903031 -0.518733 0.183746
100 1 6.39735 7.07401 0.346562 -0.601826 0.612573 -0.0886234
101 1 5.6458 4.9584 7.59562 -0.80386 -0.0815779 0.800401
102 1 3.06155 3.72097 2.814 -1.2058 0.695932 0.459089
103 1 5.16139 8.64671 5.73566 0.302907 -0.221943 -0.0334317
104 1 5.89875 5.94424 4.60074 -0.457518 0.688232 -0.068208
105 1 2.09132 7.48006 4.64819 0.219797 -0.417283 -0.104273
106 1 8.88868 1.27025 5.36263 0.903692 -0.187679 1.06485
107 1 4.6619 5.20194 2.85637 0.574928 -0.19078 0.979169
108 1 8.30819 9.30032 3.76127 0.502446 0.874883 1.33281
109 1 5.38088 2.88183 9.27783 0.594361 -0.612237 1.5789
110 1 7.35829 5.77906 9.16409 0.0213327 0.140998 -1.35671
111 1 6.56968 8.92719 8.92512 -0.00266679 -0.0564818 0.307522
112 1 6.85204 3.49301 8.75615 -0.10709 0.268572 -0.42748
113 1 2.97553 3.44579 9.02248 -0.245815 1.76705 0.294375
114 1 4.66918 3.95348 2.77714 -0.105767 -0.177931 0.581216
115 1 4.84433 0.976922 3.89804 -0.271417 -1.01549 -0.421684
116 1 6.96697 1.71566 0.0965413 1.5036 0.363896 0.225457
117 1 8.16356 9.31397 7.48805 0.97312 -0.831169 0.64214
118 1 7.92451 3.00056 0.640905 -0.111799 0.0713258 -0.739402
119 1 3.20632 2.82517 6.2558 -0.594671 -0.9571 0.449475
120 1 2.01145 8.49388 6.86943 1.8488 0.585951 0.560859
121 1 3.88948 1.75538 5.40287 0.716356 0.178604 -0.204408
122 1 2.74838 7.73893 5.50375 0.00919208 -0.669082 -0.126013
123 1 3.92789 5.21903 0.318475 -0.295644 1.10241 -0.0550372
124 1 0.481678 0.236858 6.25618 0.288868 0.404055 -1.09474
125 1 5.13458 5.29194 6.64607 -0.407235 1.52394 0.285398
126 1 7.00516 4.70283 1.58838 -0.308116 0.940454 1.22945
127 1 3.64491 8.17694 4.92658 -0.0897432 1.36022 -0.821687
128 1 7.43288 5.95012 5.15874 -0.117459 -0.52614 -0.148767
129 1 9.2762 8.77258 9.37531 -0.297208 0.145845 0.318815
130 1 3.09187 1.87183 1.99042 0.283281 0.207922 1.03266
131 1 7.8471 2.01248 1.90869 -0.318831 -0.10753 -0.250372
132 1 0.517222 7.54995 1.55096 0.0115677 0.503452 -1.17719
133 1 6.05033 2.89636 4.41082 -0.883302 0.351125 -1.08727
134 1 0.236201 6.98153 0.182814 0.431838 2.51135 -0.0500674
135 1 8.20628 7.23885 4.31189 -0.0427687 -1.32817 1.29478
136 1 6.87127 0.353333 5.9904 -0.500652 -0.205877 0.261839
137 1 2.38288 6.76612 7.28594 0.908777 -0.0964189 -0.0959102
138 1 4.89589 7.45754 6.11359 0.531707 -0.498452 0.48806
139 1 1.61659 0.94811 7.14506 -0.170652 -0.42689 -0.668721
140 1 0.639778 4.24901 0.840889 0.544793 1.04897 0.460936
141 1 1.57393 8.54958 3.59819 -0.333942 -0.426198 0.518346
142 1 5.58982 0.0114916 7.51183 -0.139447 0.611212 0.319415
143 1 5.45346 3.01728 1.10716 0.7035 -0.689988 0.842848
144 1 1.3274 2.25154 4.15807 0.215405 -1.56595 -0.919519
145 1 7.96489 5.06333 8.55817 -1.09377 -0.114979 -0.448412
146 1 4.88447 1.0467 2.59887 -0.218449 -1.32989 0.0144243
147 1 6.72715 2.49076 7.60845 0.555076 0.720244 0.129904
148 1 1.96199 7.61995 3.42451 -1.90332 0.70191 -0.0642386
149 1 2.62005 0.535609 3.51819 1.10997 -0.261805 0.0419798
150 1 1.16021 7.74801 4.2013 0.426474 -1.10902 0.149607
151 1 6.98772 8.85214 5.17889 -0.817974 1.29934 -1.36005
152 1 5.64303 8.68023 6.77331 0.00340754 -0.648447 -0.607389
153 1 3.86853 6.83121 0.619959 0.438592 -0.42533 0.153178
154 1 3.63441 5.74445 1.09919 -1.55237 1.20503 0.566719
155 1 8.42608 8.28285 4.1219 -0.421895 0.0461967 0.0383682
156 1 6.46728 6.62653 5.17588 0.348369 0.348367 0.502534
157 1 6.45122 4.53454 8.27616 -1.16654 0.28322 0.017855
158 1 2.68739 7.32596 8.71649 -0.277097 -0.713111 -0.325977
159 1 1.79669 7.20307 5.72309 0.9321 0.88762 -1.28617
160 1 6.5745 5.3894 7.59454 -0.389823 -0.711131 -0.935411
161 1 0.639059 2.3885 7.55647 -2.19014 0.41357 -0.796223
162 1 0.816622 4.024 1.7727 0.098627 -0.0643349 -0.249281
163 1 8.20687 8.99005 4.99705 1.23181 -1.29564 -1.0857
164 1 2.14021 9.29597 6.07905 0.755026 0.300604 0.082048
165 1 2.47933 6.60139 3.95097 0.325251 -0.96153 -0.853987
166 1 5.53724 5.86263 8.14165 0.0260502 -0.265276 -0.192129
167 1 3.44827 9.10956 2.15585 0.215945 1.96701 0.193968
168 1 6.51575 4.59591 0.652119 0.175149 -0.497155 -0.0639858
169 1 0.95251 6.36126 0.0121332 0.240723 -0.413027 0.464654
170 1 0.459942 2.96012 5.4835 0.865476 -0.83027 -0.0052465
171 1 3.76585 7.6434 9.16431 -0.452236 0.267326 -1.03222
172 1 2.64478 5.13344 -0.00217887 -1.05908 0.999264 -0.655947
173 1 3.59748 4.57063 1.27185 -0.641784 0.751845 0.555746
174 1 4.2019 5.05317 8.55864 0.533699 -0.528823 0.339366
175 1 6.42349 4.31731 7.16757 0.872446 -0.267625 -0.8155
176 1 3.30819 0.807054 6.99311 0.755467 0.418661 -0.398437
177 1 5.07416 6.62024 1.54649 1.65257 0.36612 0.361876
178 1 7.15095 3.80728 0.998574 -0.398147 -0.492691 -0.121953
179 1 5.80636 3.70033 3.73874 -0.482614 -0.365322 -0.345228
180 1 1.88283 8.28626 5.88377 0.641836 1.23506 0.231549
181 1 8.19955 5.95263 1.2058 0.607704 -0.115125 1.12804
182 1 1.84091 1.68474 6.2883 -0.121811 -0.03554 0.479287
183 1 3.25338 4.31923 0.161143 -0.209775 -1.49042 0.473893
184 1 5.08877 6.68648 7.74038 0.535408 0.159324 -0.0218059
185 1 9.0149 8.61889 7.67517 -0.633645 0.586641 -0.221179
186 1 0.24019 3.87371 2.73751 0.673652 0.619828 0.416409
187 1 0.759926 1.87682 4.93166 -0.424095 -1.49168 -0.707988
188 1 1.0996 7.00968 2.12521 0.475351 0.0436293 -0.353059
189 1 2.66935 5.66143 4.8314 0.197184 -1.47874 0.346444
190 1 5.49734 5.75154 1.90373 0.124515 -1.40934 -0.856864
191 1 4.75982 2.2903 4.83391 -0.31334 -1.10035 0.37118
192 1 2.47266 1.50518 8.73497 -0.560456 -0.495763 -0.288806
193 1 4.50381 2.13087 1.62082 -0.812475 -0.472613 0.294309
194 1 0.852071 8.90499 4.47672 -0.651933 0.244297 0.648904
195 1 5.93355 9.19681 2.29213 0.118219 -0.288908 -0.0663274
196 1 0.715441 0.730131 1.27248 0.0170908 -0.92458 0.0341499
197 1 5.81689 4.05747 1.2458 -0.120517 0.113018 0.154432
198 1 8.21203 1.03006 7.36208 -0.9083 0.467555 -0.635933
199 1 6.41537 0.22904 4.76498 -0.618876 0.748308 -0.924085
200 1 3.76104 0.359952 0.237717 0.161701 0.546747 -0.405031
201 1 5.01976 1.29531 4.96994 0.537787 0.965443 -0.333083
202 1 2.99829 6.53578 3.01191 0.605787 -0.560598 0.0474483
203 1 5.37408 0.268275 6.60285 0.146962 -0.440031 -0.360938
204 1 5.46516 8.62819 1.51215 0.95853 0.23393 0.145322
205 1 4.27985 0.536271 6.76747 -0.428887 0.189492 -0.332873
206 1 4.12783 0.486899 8.02707 0.488439 -0.325841 0.391869
207 1 7.199 3.36957 2.56928 -0.404397 -0.566509 0.321097
208 1 9.18332 4.76558 2.3601 -0.00528038 -0.192877 0.995594
209 1 7.06054 7.83566 5.69024 0.0303264 -0.435857 -0.761751
210 1 1.71105 2.82101 7.84272 -0.120102 0.024728 0.246832
211 1 6.44803 8.81734 1.24 0.43241 -0.817326 1.07194
212 1 5.24177 7.37319 3.90287 0.721823 -1.31276 1.58298
213 1 1.31797 6.7626 4.82879 -0.781397 -0.352766 -0.510404
214 1 7.53365 2.79137 3.55554 -0.250599 0.994129 0.358865
215 1 5.6947 5.63095 3.00996 0.581491 -0.160696 0.848791
216 1 7.0707 4.62219 6.29664 0.61737 0.529591 0.283303
217 1 2.28688 0.652261 7.93519 0.44402 1.40941 -0.415035
218 1 2.1268 3.19923 2.70138 -0.423488 -0.512951 0.754327
219 1 7.432 4.00526 0.0674818 -0.3719 -0.541028 -0.648357
220 1 1.05202 2.25732 0.589998 0.484027 -0.479209 0.644562
221 1 6.04969 8.24548 7.98168 -0.153897 0.675246 -1.24757
222 1 4.72104 5.82751 0.948658 -0.270082 -0.271838 -0.454524
223 1 3.13812 1.24344 7.93561 -0.597747 -0.171827 0.659132
224 1 6.78538 5.49827 4.34536 1.04617 -0.295579 0.418593
225 1 2.04034 3.5786 8.60638 -0.590164 -0.185383 -0.834501
226 1 2.89009 2.09543 5.31918 0.0889741 0.14445 0.951681
227 1 7.1756 4.97381 5.28624 0.208486 -0.513204 -0.507459
228 1 8.9269 0.0107662 5.67262 0.375477 0.390325 0.595579
229 1 9.07933 1.31187 7.87816 -0.824726 -0.295613 0.24217
230 1 6.84815 1.5082 8.37915 0.190237 -1.64173 0.423324
231 1 5.60343 4.29941 6.46643 0.271066 0.522664 0.274169
232 1 4.35112 4.25192 0.058437 -1.12772 -0.145977 0.800294
233 1 0.697249 8.84116 2.31817 0.418047 -0.103393 0.0343562
234 1 6.37347 7.78347 3.68208 -0.444991 0.101282 0.140885
235 1 7.61044 8.32259 0.968419 0.63659 0.200219 -0.398157
236 1 8.64456 4.51147 4.97874 -0.836499 0.405318 -0.228393
237 1 7.49978 1.86122 4.10163 -0.42508 -0.631288 0.865917
238 1 7.96454 2.12278 7.43655 1.21066 -0.464927 0.0345936
239 1 6.38878 5.60789 5.54141 -1.18834 -0.45347 -1.29853
240 1 9.38383 1.73027 0.128024 -1.46328 -0.964471 0.889552
241 1 3.13191 4.63122 3.39827 -0.954928 0.42133 -0.543523
242 1 4.21954 3.50934 7.69757 -0.263648 -0.884404 0.983942
243 1 6.6071 7.89645 4.72483 0.0493452 1.56901 -1.11893
244 1 7.09645 4.5365 4.36055 0.0642025 0.313235 0.291828
245 1 6.47766 3.89436 1.98006 0.734568 -0.40864 -0.59785
246 1 8.50467 1.88464 3.93601 -0.24332 -1.11439 1.40705
247 1 6.45593 3.04201 1.29796 0.495169 2.10386 -0.127475
248 1 5.7898 7.87776 6.12983 0.0714989 -0.107244 0.838529
249 1 5.5186 4.97336 4.9861 -1.34538 1.91668 1.07339
250 1 5.09589 4.23504 4.36122 -0.576636 -0.552247 -0.122342
251 1 7.21187 2.55308 4.89591 -0.0643313 1.06208 -0.328656
252 1 9.26277 5.51856 3.9075 -1.42572 1.35449 0.0681297
253 1 2.61213 8.36571 2.02483 -0.584396 0.538588 -0.0907902
254 1 6.10317 2.27556 0.429872 -0.532323 -1.0055 -0.110201
255 1 5.17005 4.78208 2.00744 0.384025 1.29326 1.01842
256 1 1.35806 3.86751 0.00963371 0.0865591 0.11099 -0.634344
257 1 7.42884 0.0628398 4.46454 0.560266 0.519608 -0.523253
258 1 3.61966 7.19393 2.5737 -0.293135 1.0703 -0.309025
259 1 4.3909 3.5049 5.05733 0.962956 -0.776349 1.17167
260 1 3.91851 4.57346 2.55678 0.37905 -0.181694 -0.773956
261 1 0.374307 6.90423 8.4957 0.28029 -0.583635 0.0292611
262 1 6.81861 0.599961 8.86907 -0.0170653 -1.0253 0.277295
263 1 7.91295 5.12708 4.57989 -0.848914 -0.334275 -0.787906
264 1 8.04771 4.80207 6.85207 -2.18516 0.746374 1.22644
265 1 3.68288 2.71156 1.2422 -0.192434 0.164152 -0.110549
266 1 8.0429 6.50339 8.96569 0.11527 -0.0227528 -0.218148
267 1 6.32462 2.88575 2.36124 1.58732 0.67468 -0.591491
268 1 7.42792 0.850248 0.348277 0.0171655 0.0206176 0.551085
269 1 1.67774 6.23515 1.60057 -0.568317 -0.293857 0.0101602
270 1 0.879057 0.448613 2.29178 -1.1695 -0.084375 0.398422
271 1 1.96612 7.84977 0.337535 0.282165 -0.074802 -0.668339
272 1 2.03384 2.84106 0.866104 -0.261745 0.377574 -0.286256
273 1 7.51273 5.97556 3.09343 -0.743622 1.35287 0.503969
274 1 4.31829 2.46667 7.78507 -0.0600618 -1.45765 0.5858
275 1 5.81318 0.318021 1.28211 -1.00536 0.0796566 0.29056
276 1 8.20968 8.33317 0.0832973 -0.475373 0.578011 -0.422029
277 1 6.34877 1.97838 3.54544 -0.853193 -0.848386 0.358784
278 1 2.86051 2.92052 4.56771 -0.820986 -0.472337 -1.5059
279 1 0.348351 3.76018 9.24274 0.575469 0.384103 0.518826
280 1 4.49215 1.59239 8.36908 -0.414597 -0.278459 0.438798
281 1 5.18794 8.56721 2.47598 0.706882 0.892316 -0.809238
282 1 0.760781 9.13216 3.34782 0.574956 -1.00117 -0.595365
283 1 0.992408 8.43067 6.51584 -0.349494 -0.260103 -0.638045
284 1 7.2688 7.06593 4.76023 -0.118614 -1.33852 -1.26635
285 1 9.28361 2.15039 5.80327 -0.0331882 -1.09584 -0.37449
286 1 2.55563 1.45525 7.12341 -0.358645 -0.188258 0.324496
287 1 4.45705 9.06421 4.92942 -0.283103 0.152932 0.162906
288 1 1.83715 7.34972 1.24588 0.674778 0.851613 -0.271813
289 1 8.37951 1.30384 0.143601 -0.0661157 0.446018 0.35366
290 1 4.85328 4.30905 7.19114 -0.820508 0.399665 0.0955343
291 1 7.58165 2.91292 7.9247 -0.606312 -0.484637 0.281799
292 1 6.14444 3.22052 7.10849 -0.177433 -0.251438 -0.189494
293 1 8.32837 3.4211 3.48687 -0.858115 2.00907 0.186408
294 1 9.10235 3.40006 7.30639 0.790413 1.05709 0.0871658
295 1 6.67056 3.66613 6.19876 -0.955016 0.519428 -0.723875
296 1 8.37169 7.51167 0.852111 -0.701171 0.530081 0.363341
297 1 8.68577 6.13762 4.52512 0.0397418 0.751233 -1.18534
298 1 0.774946 4.82283 5.21747 1.95129 -0.492099 -1.82085
299 1 2.53477 0.85335 6.26597 0.378167 0.380201 0.421453
300 1 0.363532 1.37222 2.27226 -1.16594 0.214233 0.123011
301 1 5.73739 0.182034 9.15886 -0.105632 -0.535196 -0.511955
302 1 8.92242 0.290587 4.52778 -0.395506 -0.580301 0.651491
303 1 3.36668 3.89903 4.91454 -1.46314 -0.426366 1.51044
304 1 1.23252 6.42392 8.45188 0.00119402 -0.520206 0.774742
305 1 4.14216 8.36151 5.87647 0.168868 0.834432 0.0559398
306 1 2.0615 8.60153 1.09143 -0.0985725 0.0572906 -0.32117
307 1 5.56793 0.4314 5.27792 0.971774 0.260704 0.929756
308 1 2.06424 8.22526 8.76818 -0.0633881 0.974285 -0.610851
309 1 8.85687 6.36086 8.30791 0.246091 -0.174666 0.853096
310 1 8.61418 7.11147 2.64291 -0.176376 0.116042 -0.761076
311 1 1.16006 8.14613 0.853277 -0.0525527 0.459116 0.394059
312 1 6.53423 5.56068 0.41179 0.0534386 0.132394 -0.964507
313 1 5.44371 6.3194 3.81071 0.240815 0.607183 0.0294594
314 1 6.84913 1.50022 2.04017 -0.341218 0.0429083 0.679814
315 1 3.54257 5.50772 7.78008 0.284875 -0.757208 -0.805589
316 1 9.08514 5.23059 8.25717 -0.38378 -0.791269 -2.01602
317 1 7.20878 6.94893 3.66772 0.641866 -0.83301 1.01359
318 1 9.31207 3.72341 3.74518 1.86943 0.161401 -0.710065
319 1 3.67245 2.21107 2.7714 1.57434 0.115023 -0.198089
320 1 3.82085 8.37269 3.91108 0.446068 0.604485 -0.388023
321 1 0.393542 2.72064 9.33249 -1.1635 -0.340184 0.237464
322 1 3.98751 8.85445 7.51228 0.631245 0.0309994 0.0922592
323 1 9.36644 2.55504 0.828036 -0.829242 0.596828 0.452924
324 1 2.26122 6.48668 8.23695 0.464127 0.631453 -0.0108045
325 1 8.64675 6.46191 0.449066 -1.2447 -0.279731 0.160132
326 1 5.01322 3.10738 4.22141 -0.962091 0.100129 1.00361
327 1 3.17096 2.85437 2.08205 -0.219989 -0.0279263 -1.15852
328 1 7.98243 3.92623 4.26365 0.0359391 0.326556 -0.201076
329 1 8.57751 0.2399 0.194434 -0.521272 -0.361859 -0.0736385
330 1 4.27153 3.64541 1.12745 -1.01833 -0.906615 -0.421015
331 1 1.43371 0.717262 6.04551 -0.393626 -1.15262 -0.400011
332 1 1.39921 2.77727 6.79357 -0.199355 -0.175938 -0.482321
333 1 0.811217 3.2515 0.774269 0.0878487 0.638702 -0.303809
334 1 2.68923 5.57039 5.81182 -0.292213 0.574675 -1.09986
335 1 8.62017 5.62903 9.18978 0.248238 -0.928909 0.134322
336 1 6.67489 5.17869 3.28414 -0.070361 0.160544 0.484601
337 1 8.13986 8.05921 2.41182 -0.255092 -1.05366 -1.13967
338 1 6.68693 1.3259 6.42635 -0.788038 -1.03833 0.136099
339 1 7.45235 6.44906 0.555469 0.663286 0.640871 0.380458
340 1 3.4628 7.73226 6.46315 -0.0709902 0.671451 -0.338934
341 1 5.43303 7.47968 8.26751 1.30864 -1.00952 -0.125656
342 1 8.98081 2.30913 7.31101 -0.94637 0.75641 -0.802258
343 1 4.74784 8.18745 3.35545 0.603602 -0.174367 -0.411065
344 1 1.15458 4.41655 7.71701 -0.758656 -0.960882 -0.323205
345 1 8.15237 6.68342 5.23654 0.389586 1.23473 0.634463
346 1 9.01585 3.48865 0.586525 -0.344104 -0.227742 -0.88235
347 1 7.3403 6.03567 8.14584 -0.358431 -0.388544 -0.275955
348 1 6.9152 1.08875 4.45258 0.940853 -0.333209 -0.301408
349 1 4.26325 3.06112 2.22669 -0.141969 -0.45011 -0.468054
350 1 1.3644 3.30307 5.72603 0.510609 -1.16218 -0.223872
351 1 6.59538 0.197599 0.461106 1.16885 -0.142399 -1.12476
352 1 5.90678 6.13102 7.13813 -0.323348 -0.893335 0.186767
353 1 8.64808 6.62643 6.14226 -0.147761 -0.812315 0.10694
354 1 1.47087 6.05249 7.49329 -0.136992 -0.893087 -0.54141
355 1 0.435829 8.08965 3.57374 -0.469146 0.512295 0.767324
356 1 7.3436 2.18065 6.53975 0.975865 0.0181081 -0.786657
357 1 1.43537 5.12959 6.16258 0.411397 0.964959 1.10804
358 1 4.25879 1.53785 6.40432 0.705978 0.930274 0.302787
359 1 0.409517 5.81554 7.74591 0.795433 -0.697699 0.173748
360 1 5.3161 1.92489 0.934275 -0.0255245 -0.528468 -0.452585
361 1 8.08982 0.718663 5.05542 1.03805 0.330351 0.196877
362 1 2.41872 0.106266 7.10384 -0.853993 -0.981361 0.744038
363 1 0.197183 6.10296 0.820272 -1.21042 0.45741 -0.608257
364 1 9.04607 2.70035 3.9049 0.264558 0.644036 0.363917
365 1 4.3175 6.14844 8.15003 -0.229869 -0.237513 -1.20658
366 1 3.03072 0.797163 1.85034 0.0565153 0.445115 0.26683
367 1 8.76569 4.10163 6.46748 0.169199 -1.18737 -0.254978
368 1 4.09906 6.63547 4.72694 0.0790382 -0.20515 0.98107
369 1 8.93359 7.8914 1.60914 0.668804 -0.195541 0.222306
370 1 1.45272 1.53783 2.43495 0.324376 -0.254332 -0.754472
371 1 1.15985 1.18815 4.01633 0.201625 -0.69194 0.384354
372 1 5.02888 4.15469 5.46383 0.903927 -1.13451 0.497126
373 1 7.15076 1.46582 7.32923 -0.0113362 1.67069 0.187761
374 1 7.65802 0.351383 2.18341 0.567622 -0.126179 0.640989
375 1 2.98568 7.23274 0.301225 -0.136853 0.187407 0.603447
376 1 5.05368 3.6641 0.420117 0.579396 0.222354 0.739845
377 1 4.33003 7.88814 7.09514 0.971214 -2.1485 -0.0599485
378 1 3.47773 6.25823 1.99833 -1.18097 0.0170621 0.00248865
379 1 8.11066 6.23708 2.28564 0.447081 -0.816254 -0.100143
380 1 8.3433 5.63565 6.50117 0.0730015 -0.426657 0.785171
381 1 3.30027 3.24914 7.24383 -0.321002 0.0982738 -1.05732
382 1 4.63979 0.188225 5.89134 -0.470335 0.454314 0.154241
383 1 2.69268 9.31312 1.49184 0.867855 0.00423068 -0.104407
384 1 3.45229 9.1513 4.54464 -0.189135 0.664188 0.10262
385 1 4.55373 6.143 9.20659 -0.688692 -0.718976 -0.233618
386 1 5.65888 8.64836 3.51216 0.834186 -0.175141 -0.604915
387 1 0.111817 3.23563 1.95564 -0.991414 0.806397 0.869319
388 1 2.82145 9.26965 0.510565 0.765399 0.277334 -0.639299
389 1 5.83812 1.16794 6.97764 -0.680368 0.369421 -1.10888
390 1 2.34116 5.01589 4.09886 -0.637693 -0.265026 0.000988499
391 1 7.95622 7.66853 3.40456 0.722705 -0.242375 -0.0494044
392 1 3.075 6.09568 0.262288 -1.34377 -0.349736 -0.447542
393 1 5.31587 9.39705 4.20608 0.386892 -0.0711477 0.0458258
394 1 4.20862 3.86567 4.02588 -0.432788 -0.195848 -0.212698
395 1 5.82569 1.95829 2.61223 0.627717 -0.0579965 -1.18992
396 1 3.78038 2.16654 0.309268 -1.2525 -0.322267 -0.221385
397 1 6.04585 4.6285 3.9937 0.591744 0.624807 1.24706
398 1 8.48526 4.47373 7.74516 -1.93022 0.757569 1.91424
399 1 7.21404 0.178387 3.41887 0.242106 -0.254584 0.25626
400 1 9.28881 5.38851 4.98882 -0.0381884 -0.108809 -0.121008
401 1 5.64867 5.94977 9.27213 -0.360154 0.700593 0.458773
402 1 1.79933 4.32767 4.50208 -0.408218 0.109466 0.245122
403 1 8.66406 3.7398 2.32845 0.390505 -0.286397 0.114317
404 1 2.53555 1.15251 2.71509 -0.444405 -0.437316 0.151391
405 1 1.64557 4.28237 5.63093 -0.28175 0.809352 0.735413
406 1 4.8517 1.01919 1.42622 0.242904 0.0767902 -0.703711
407 1 7.07131 7.97166 2.95467 0.634595 0.504872 0.558802
408 1 2.19821 1.40025 1.73127 0.33243 0.168593 0.921584
409 1 9.23267 6.37822 5.39612 0.725015 0.242197 0.0145135
410 1 5.86118 3.83566 8.89759 0.101843 1.2357 -0.000881955
411 1 5.62539 3.53377 2.79589 -0.587261 -0.107737 0.406612
412 1 2.75419 5.62642 2.65198 0.468842 -0.682797 0.231143
413 1 1.05531 8.4 9.03317 0.369282 1.43654 -0.0791136
414 1 7.22578 7.95412 1.89148 -0.671334 0.355167 -0.742068
415 1 7.37667 8.23507 8.9456 0.10697 -0.81142 0.077479
416 1 8.62735 8.7684 0.938201 -0.0185418 -2.08933 -0.232869
417 1 8.52969 3.04827 1.48023 -0.513806 0.189223 0.643337
418 1 6.00656 0.712992 8.26877 -0.583004 -0.825942 0.628976
419 1 1.3431 2.37197 3.17098 -0.307079 0.813389 0.0200858
420 1 8.36335 5.46622 7.60431 -0.391271 0.20713 0.916744
421 1 3.17804 8.25051 8.35454 0.354488 0.232737 0.417392
422 1 5.76785 0.94217 4.40233 0.756427 0.775735 -0.0638467
423 1 7.22614 4.66501 2.59408 -0.284223 0.187088 0.194638
424 1 4.02873 3.17584 3.25204 0.858496 -0.0674214 0.573272
425 1 7.40036 3.97043 3.4693 0.956771 0.537838 -1.01487
426 1 0.148103 1.9264 8.55281 -0.386117 0.747864 -0.594873
427 1 7.42541 2.96658 1.51917 -0.865927 -0.285635 1.0255
428 1 1.92702 7.59236 2.36863 0.421838 -0.776603 -1.05512
429 1 6.01829 1.69409 7.8522 0.420921 0.686221 -0.0477672
430 1 8.30017 0.80974 2.93027 0.682212 0.283212 0.302908
431 1 0.52269 4.68142 6.23463 -0.0618407 -0.286411 -0.296185
432 1 1.29458 8.17655 1.84086 0.502948 0.874214 -0.830675
433 1 6.64436 2.10216 5.63323 -0.370778 0.162751 0.152699
434 1 8.09437 2.79597 2.45236 0.290084 0.179271 1.45675
435 1 8.60466 7.85355 5.12228 0.655769 -0.0855009 0.202662
436 1 0.141283 7.84749 9.04054 0.0935249 -0.03802 -0.881876
437 1 2.93307 4.58004 2.10932 -0.509769 -0.153652 -0.448797
438 1 2.84823 7.12207 1.98891 -0.730469 0.612861 -0.335911
439 1 4.15045 2.91729 6.71372 -0.441468 -0.089823 1.76859
440 1 2.64489 0.972609 0.910955 0.245158 -1.07706 -0.257553
441 1 6.01434 2.16203 8.80524 0.235746 -0.0214953 -0.592546
442 1 3.14812 0.0402446 7.8291 -0.460316 0.677668 0.185634
443 1 1.61332 3.82065 1.16127 0.264749 1.26615 -0.80206
444 1 7.39317 4.60288 7.62699 0.726939 0.331939 -1.37251
445 1 0.311731 7.96988 7.98107 0.82682 0.521065 0.154657
446 1 8.51161 2.41755 8.30583 -0.00995379 -0.291594 -0.720865
447 1 9.11767 4.16552 1.43956 -0.483387 -1.11834 -0.0306121
448 1 1.08119 7.96479 2.79694 0.801904 0.236848 0.652468
449 1 5.7318 1.1594 3.30553 -0.601154 -0.82682 -1.20521
450 1 1.82641 8.92422 0.153993 -0.279733 -0.183086 0.0329582
451 1 7.6525 4.07571 8.46198 0.163826 -0.0293957 -0.102192
452 1 0.237572 6.69505 2.4731 0.262548 -0.839033 -0.72573
453 1 4.21808 1.24356 9.32794 -1.80901 -0.0357904 1.14728
454 1 2.68081 6.60996 1.19874 -0.85619 0.381263 -1.05082
455 1 1.8079 8.45113 4.8075 -0.109126 0.213852 -1.04912
456 1 2.18109 5.80638 6.67884 -0.847016 -0.106377 -1.17704
457 1 7.12334 3.88322 5.3261 -0.473543 -0.223584 -0.8949
458 1 2.75389 8.80745 5.25899 -0.260184 -0.0665729 1.1569
459 1 8.05448 1.7443 4.94357 0.595494 -0.0624262 0.515566
460 1 2.3878 1.92586 4.29467 0.999031 -0.201719 -0.184229
461 1 8.21116 3.69941 5.52325 -0.880581 -0.238766 0.359307
462 1 7.30273 6.46493 1.57896 0.0028964 -1.08726 -1.15313
463 1 2.08175 2.03396 0.263907 0.410469 0.0899367 0.593569
464 1 9.2837 7.91243 0.624326 -1.46953 -0.213397 0.60843
465 1 8.95202 6.18695 7.22082 -0.319151 0.0245916 0.413669
466 1 1.04166 0.327907 7.75057 -0.236142 -0.744404 -0.90876
467 1 5.19274 2.4521 8.27879 0.211053 0.519858 -1.08413
468 1 7.96157 7.44652 6.24243 -0.95731 0.531896 0.421685
469 1 8.97902 3.23792 4.86879 -0.497831 -0.194845 0.713519
470 1 0.224148 7.35927 5.34072 0.195264 -1.54758 0.297198
471 1 9.354 0.0887601 0.976797 0.0944968 -1.00515 -0.871394
472 1 7.44797 3.03165 5.86726 1.60656 0.602497 0.297211
473 1 4.85506 3.58301 6.3523 0.483773 0.766095 -1.23204
474 1 2.9037 8.59037 6.23434 0.472112 0.43187 0.346186
475 1 9.10008 8.80027 2.14843 0.0261736 -0.289846 0.218409
476 1 1.98085 4.90321 7.17022 0.195138 -0.585017 -0.949148
477 1 0.426414 0.208135 5.21983 -0.47921 -0.64053 0.397093
478 1 4.79733 7.31224 0.765941 -0.124796 1.21244 -0.687044
479 1 0.148568 4.32409 7.15369 -1.23225 -0.67722 0.793232
480 1 1.00005 6.7578 1.01367 0.944283 -0.225061 1.37004
481 1 5.54311 2.68994 3.39978 0.897908 -0.968239 0.0390102
482 1 5.07328 3.68214 1.8412 1.14264 -0.197538 -0.161058
483 1 3.06103 5.23478 6.77798 0.282909 -0.634471 -1.04389
484 1 1.99259 1.52637 3.51182 0.0476209 0.628763 -0.588546
485 1 7.89041 7.44042 8.51026 -1.05928 0.131552 0.5523
486 1 6.22456 7.73785 8.98665 0.540158 -0.328092 -0.464629
487 1 7.64531 8.76556 6.66425 0.426908 0.44702 -0.526765
488 1 7.7645 6.53116 6.74496 -1.54726 0.733881 0.583447
489 1 8.91261 0.899264 8.76391 -0.330362 0.925743 -0.315446
490 1 5.02546 0.148424 2.00252 0.303484 -0.258065 -0.728065
491 1 4.3716 8.75328 1.77505 -0.0321495 -0.0752977 -1.11265
492 1 3.03443 1.41231 3.56474 0.13963 0.615364 -0.316154
493 1 9.38724 3.965 5.44496 -0.70698 1.00368 0.365074
494 1 5.26928 1.13414 6.02587 -0.676325 1.58032 -0.130959
495 1 2.6425 2.18377 2.81869 -0.484128 -0.820015 -0.278484
496 1 2.45415 2.77291 7.04342 -0.462952 0.222183 0.53325
497 1 2.00432 3.72278 7.4698 0.111245 0.579649 0.765451
498 1 0.564102 3.0214 3.48943 -0.816157 0.289733 -0.129725
499 1 3.95651 8.99304 8.54607 0.209977 -0.991015 -0.415705
500 1 6.94778 2.48958 8.6905 -0.16037 -2.05571 -0.0791384
501 1 5.26172 5.27822 3.9812 -0.299799 0.32039 0.0399022
502 1 0.402853 0.803208 7.12166 -1.73185 -0.898014 -0.608192
503 1 6.39727 0.207323 6.91992 0.772588 0.237497 1.47685
504 1 6.93925 6.50809 7.3232 -0.305324 -0.676529 0.247259
505 1 4.53787 5.21067 5.66343 -0.535883 0.0753884 0.387631
506 1 9.20354 6.41084 3.53579 -0.00362706 0.766801 -0.341914
507 1 9.02085 2.26843 2.01561 0.447442 0.541379 1.61622
508 1 5.83212 1.13263 1.96441 -0.525692 -0.1874 1.05587
509 1 5.01516 9.28002 8.38916 -1.00403 -1.13965 0.296341
510 1 2.07354 6.63569 2.7671 -0.288075 0.312732 0.733435
511 1 7.78232 8.88098 2.94533 -0.216703 0.480269 1.40715
512 1 8.23226 4.56995 2.72226 0.15493 -0.773288 -0.705217
513 1 8.99891 5.73228 1.94791 1.11424 -0.475251 -0.483954