ITEM: TIMESTEP
54910000
ITEM: NUMBER OF ATOMS
1000
ITEM: BOX BOUNDS pp pp pp
0.0000000000000000e+00 9.4000000000000004e+00
0.0000000000000000e+00 9.4000000000000004e+00
0.0000000000000000e+00 9.4000000000000004e+00
ITEM: ATOMS id type x y z vx vy vz
1 1 8.011 7.99025 1.84164 0.728483 -0.778777 2.12291
2 1 4.9764 7.56598 0.591147 0.290581 -0.0563003 -0.505378
3 1 3.08257 2.25238 3.98195 0.285103 0.451579 0.074181
4 1 2.83029 6.58662 3.25724 0.926759 0.537798 -0.842327
5 1 0.406937 0.853909 3.16419 1.53077 0.232019 -0.449281
6 1 6.6454 8.51599 4.40528 -0.804325 0.290449 -0.853785
7 1 3.02123 6.81248 2.172 1.27746 -0.913219 -0.567107
8 1 3.3995 0.896347 7.38523 -0.249702 -0.060165 -0.461368
9 1 2.26809 6.48988 5.01268 -1.44702 0.0164518 -1.13244
10 1 1.65195 4.81479 2.81001 1.08494 -0.418032 0.30735
11 1 6.66944 1.31357 4.85419 1.13751 -0.553878 1.02469
12 1 7.38531 1.914 0.476377 -1.16926 0.614422 -0.936942
13 1 1.34326 1.14331 2.65856 0.34281 -0.392789 0.495547
14 1 4.47473 3.38833 4.95949 0.487679 0.154119 -1.02128
15 1 0.475183 8.9731 7.91724 -0.70153 -0.140507 0.150456
16 1 0.83301 8.39396 7.11376 0.666722 -0.0408476 0.0988772
17 1 6.83316 3.52403 0.976314 -0.0425957 -0.591551 -0.534782
18 1 3.28527 6.73273 8.34279 -1.02472 1.24153 -1.28583
19 1 3.57705 4.9196 7.33361 0.30833 1.38794 -0.454529
20 1 0.299692 5.35151 7.82765 -0.264238 -0.0250412 -0.259655
21 1 0.871339 6.98086 1.6075 -0.505093 0.671354 -0.21865
22 1 8.02387 4.26439 8.35831 -0.56129 -0.524483 -0.0203898
23 1 4.61686 0.0518908 1.53478 -0.150341 -0.149027 0.846533
24 1 2.67445 7.11903 5.74999 0.453544 -0.572107 0.173026
25 1 7.86297 1.91286 1.52526 -0.120353 -0.268535 -0.0580712
26 1 8.70464 4.40353 5.20046 0.233362 -0.735619 0.487563
27 1 8.59793 7.5505 3.09927 -0.478104 0.59641 0.0621578
28 1 4.56428 2.65315 1.99247 -0.486884 0.685839 0.423099
29 1 2.55396 4.40808 4.55455 -0.210265 -1.43547 -0.676332
30 1 8.34404 4.38294 6.37143 -0.435299 0.566065 1.17734
31 1 2.56506 0.942311 9.07414 1.01667 0.441453 -0.280222
32 1 8.71198 1.78488 6.97769 -1.20666 -0.0699134 -0.257656
33 1 6.53965 8.21791 0.30979 -0.94008 1.40568 0.104149
34 1 6.12082 0.540085 3.98691 -0.70117 0.416475 -0.451294
35 1 3.36798 1.54525 3.18073 -0.522634 1.42882 -0.285291
36 1 3.92712 3.3708 2.29789 -0.420754 0.522376 0.668769
37 1 5.61513 7.35625 7.96103 -0.130839 0.804528 0.0237315
38 1 0.354798 2.09943 1.5623 -0.464617 0.00484932 0.867548
39 1 4.72564 8.59911 0.724597 -0.717417 -0.200558 1.00996
40 1 9.03645 8.81073 0.842698 0.161455 -0.656813 0.894419
41 1 5.7649 0.291431 6.61576 -0.897329 -0.308475 -0.116645
42 1 0.525881 0.326332 4.13558 -0.978095 -0.44269 0.193496
43 1 1.42512 8.75585 5.09717 0.933216 -0.405301 0.0860909
44 1 2.62997 1.24047 5.50107 -0.411273 -0.405589 -0.889143
45 1 8.86841 0.663415 2.67458 0.0321791 1.07381 0.686134
46 1 7.17558 6.20778 2.23492 0.159485 -1.26652 -0.964183
47 1 1.17057 4.24688 0.748614 -1.54154 0.321033 0.219457
48 1 5.85021 7.15749 0.720171 0.047093 -1.05494 -0.329007
49 1 4.32023 2.79976 6.10415 0.887374 0.576863 0.111314
50 1 1.82828 3.90916 5.2103 -0.735106 -1.56065 -0.518285
51 1 9.3392 3.8334 3.17567 0.607609 -0.483932 0.551392
52 1 5.67346 0.202119 1.90563 -0.305 0.367974 -0.923554
53 1 2.379 1.27543 3.83216 0.0715394 0.275807 -0.746898
54 1 8.35953 5.30665 9.14651 -0.0842464 -0.926314 -0.212274
55 1 1.69123 4.77445 6.82284 1.78365 0.171408 -0.276648
56 1 0.207266 4.65563 6.32236 0.27918 0.783395 0.156653
57 1 2.33571 5.68349 7.39955 0.524453 0.606387 1.47306
58 1 5.02563 7.15908 2.30254 -1.13282 1.03825 0.749445
59 1 7.6236 8.81153 6.78982 -0.790876 0.618896 0.0947136
60 1 1.96696 8.79093 3.17249 0.198662 0.493135 0.672266
61 1 4.82909 0.766109 2.52758 0.178945 1.21143 -1.02513
62 1 2.82131 7.35671 1.02635 0.0080888 -0.533322 0.0243106
63 1 6.41871 0.779063 7.23204 -1.26058 0.692538 1.04048
64 1 0.436911 6.02864 1.12771 -0.595817 -0.447994 1.93403
65 1 8.50461 3.54282 4.5493 -0.782738 0.962811 1.10516
66 1 3.21273 0.82194 6.34817 -0.140087 1.05186 -0.405364
67 1 6.62469 7.80225 1.27819 -0.268513 0.0778277 0.142509
68 1 5.02359 8.11591 7.39506 0.556703 -0.46564 1.43345
69 1 6.97594 4.61334 2.90285 -0.0767734 -0.503075 0.0519091
70 1 7.33616 4.10416 3.79307 0.702928 0.668879 -1.1034
71 1 7.93087 2.68534 9.31276 -0.302238 0.359264 1.35331
72 1 6.10571 1.61001 4.05204 -0.0689931 0.637014 0.773636
73 1 2.41524 8.13073 5.62486 -0.345954 0.668114 0.206853
74 1 4.89855 8.7975 3.6972 0.616622 -0.00187677 0.667649
75 1 5.67775 1.33897 6.48647 1.54963 0.629404 -0.468533
76 1 8.8973 8.6039 1.87181 -0.740626 0.531299 0.263303
77 1 1.1943 3.25612 4.72737 0.390108 0.882706 0.0773892
78 1 0.842726 6.38083 2.71123 -0.428098 -0.534675 -0.0271411
79 1 6.04875 2.32284 7.73407 0.180992 0.882346 -0.343247
80 1 0.0814563 8.70636 8.8354 -0.887493 -0.175407 -1.89418
81 1 1.36198 8.40237 6.09727 -0.377109 -0.252116 0.624289
82 1 5.94502 8.93759 3.5404 -1.06171 0.666729 1.73394
83 1 5.11908 5.54915 4.59862 0.390694 -1.43024 -0.52399
84 1 0.792448 6.68193 5.20556 0.314681 -0.6291 -0.39991
85 1 0.739585 2.64476 8.26212 0.262398 0.800253 -1.138
86 1 4.74207 1.70187 0.0940767 -0.129276 -0.79005 -0.461822
87 1 4.00812 5.26796 2.87306 -0.312202 -1.28572 -0.696111
88 1 8.90201 0.960173 7.59215 0.205123 -0.465591 -0.468074
89 1 4.28367 4.98252 5.31933 0.18043 -0.0761238 -0.705358
90 1 6.02139 3.66865 1.576 -0.953863 0.0957694 0.026544
91 1 6.83817 6.50628 4.85081 0.501374 1.11724 -0.387436
92 1 8.85275 9.38526 8.22847 -0.732297 -0.368936 0.141207
93 1 2.62871 0.561085 4.60009 0.320775 -0.948738 -0.66276
94 1 1.3883 5.94981 4.40513 -1.23079 0.299768 0.958978
95 1 8.43527 6.80747 3.94795 -1.02979 0.494786 -1.10356
96 1 6.26057 8.10433 7.39807 1.10726 0.415942 -0.293142
97 1 2.25487 3.91152 0.956484 -0.0558447 -0.181779 0.130763
98 1 6.53616 7.19149 9.22806 0.898859 0.732612 -1.09421
99 1 3.08186 0.300127 5.46315 -0.850409 1.33471 -0.685032
100 1 7.07224 9.16859 5.7264 0.441159 -0.521649 -1.16198
101 1 4.25537 6.0391 4.80064 -0.426026 -0.0505417 0.680531
102 1 5.11249 8.17347 2.67131 -0.504292 -0.356023 -0.154335
103 1 3.02664 9.0416 4.12091 1.11444 0.0528677 -1.3292
104 1 3.55678 7.6729 1.71886 -0.89989 -0.467498 0.645737
105 1 9.14766 0.953093 4.51775 -0.575714 0.654607 -0.153359
106 1 7.04585 0.988508 8.05328 0.249772 0.214453 -0.265805
107 1 6.36559 5.79543 1.4407 1.54178 -1.09307 0.436799
108 1 0.00567891 1.94029 3.07587 -1.14387 0.451445 1.08031
109 1 6.52247 2.94412 2.87494 -0.481988 0.415951 0.862778
110 1 9.07826 4.35605 7.93153 1.04985 -0.935915 0.408743
111 1 8.06127 4.6802 7.36775 -0.0471192 0.964657 0.901526
112 1 7.23057 8.65241 9.0181 -0.525108 0.342498 0.601773
113 1 4.40216 3.96108 0.545485 -0.14212 -0.663404 0.402459
114 1 1.36452 1.57431 1.22336 -0.346097 1.03881 -0.356129
115 1 6.89133 0.21846 3.25317 1.38756 -0.523286 -0.526325
116 1 4.88295 2.61843 8.88285 -0.761672 0.0497922 0.411725
117 1 7.38828 7.86716 8.26167 0.425459 0.171872 0.820601
118 1 7.3087 1.26628 6.14007 -0.196588 0.35702 0.298342
119 1 4.10737 1.76762 8.65833 -0.383671 0.664845 0.435747
120 1 1.18931 6.82493 9.12794 -0.574662 0.00416992 0.13168
121 1 5.45291 0.69144 4.79957 -0.324972 0.142294 -1.0232
122 1 1.9333 7.30866 8.54607 0.0660751 0.74448 -0.139186
123 1 1.66636 6.8363 5.91972 0.847137 -1.10678 0.663355
124 1 4.51563 1.53227 6.31205 -0.0624692 0.0951087 -0.409913
125 1 6.04976 6.92794 5.54446 -0.110331 0.802717 -0.250949
126 1 7.26536 3.64515 2.84564 0.409014 -0.765058 1.09819
127 1 4.03267 9.10402 4.28165 -0.972037 -0.8179 -0.273892
128 1 4.27688 5.47503 7.9099 -0.287426 0.916192 -0.141223
129 1 2.66458 5.26882 0.0553389 -0.212569 -1.02886 0.813316
130 1 3.37996 0.72275 3.89445 -0.411681 -0.618158 0.701347
131 1 8.81008 2.64482 1.66864 -0.345239 -0.137031 0.877585
132 1 7.03661 1.5841 7.10292 1.18165 -0.0263576 0.471119
133 1 5.89806 6.79825 1.79334 -0.369381 -0.347308 0.453918
134 1 0.797966 5.14449 4.19233 -0.167348 1.67837 0.468435
135 1 5.93222 7.81708 1.97464 0.327727 -1.09376 -0.953899
136 1 7.94445 0.264315 6.20802 -1.74968 -0.193926 0.319729
137 1 1.66921 5.71773 9.37024 -0.0495369 0.00746343 0.0920298
138 1 6.9897 2.45416 9.00242 0.20379 0.0258389 -0.315634
139 1 0.248893 1.1138 6.93882 0.714989 -0.423708 0.142495
140 1 3.49549 3.65391 6.35688 0.51238 -0.611157 0.46568
141 1 3.25964 8.51937 7.19174 -0.242562 1.35745 -0.113284
142 1 3.6956 1.99669 0.406244 0.30887 0.775384 0.930125
143 1 3.74601 4.89377 9.29499 -0.0587558 -0.219581 -1.26487
144 1 0.170677 1.85515 5.0341 -0.594539 1.52977 0.654001
145 1 7.6141 4.56483 9.25991 -0.295351 0.312486 -0.321946
146 1 4.22436 1.2179 0.939005 0.710279 0.380314 -1.06146
147 1 5.24635 2.30318 6.22147 1.03475 0.103576 1.02354
148 1 9.38576 5.12264 8.7979 -0.792958 0.994649 0.729569
149 1 3.01005 8.8914 2.952 1.52836 0.232166 0.428051
150 1 6.80317 9.22799 2.36165 -0.655802 -0.364299 -0.261341
151 1 0.389238 8.43196 5.17237 0.26086 -0.711144 -0.347973
152 1 5.54937 7.9293 9.08485 0.17494 1.66723 0.0521621
153 1 1.33386 6.10273 1.74849 -0.0673571 0.547201 -0.454215
154 1 3.69432 7.67958 8.88547 -0.124081 -0.0992045 -0.621175
155 1 0.611102 7.29355 3.43514 -0.776525 -0.648994 0.115504
156 1 4.75933 8.25004 4.65051 -0.656231 -0.157748 0.559676
157 1 6.12336 5.34774 7.24871 -0.958174 -0.361026 -0.701873
158 1 1.48038 6.64504 7.29337 0.199638 -0.590688 -0.164017
159 1 0.900002 6.48873 6.50256 0.0453914 0.296255 -0.381295
160 1 3.35471 1.89756 7.79108 -0.157948 -0.992356 0.136699
161 1 2.42817 2.96358 5.71806 -0.456671 0.566605 0.63092
162 1 8.19239 3.1763 8.4147 0.44588 -0.0452243 -0.355317
163 1 1.85338 3.79594 4.11024 -0.477273 0.00218201 1.12366
164 1 3.56671 8.62875 0.174918 1.05558 0.28265 0.547543
165 1 5.8584 1.80721 1.40039 -0.251427 -1.26724 0.104179
166 1 5.38313 7.11739 3.32485 0.0229863 -0.276648 -0.320984
167 1 2.29585 7.48793 3.01762 -0.162973 0.900217 -0.949529
168 1 6.39429 3.14348 0.075715 -0.556567 -0.340086 0.609453
169 1 2.3921 6.67018 7.80239 0.503963 0.254578 -1.13517
170 1 0.579964 3.56926 3.9064 0.426771 0.317933 -0.505098
171 1 7.47265 7.62646 9.29506 -0.911224 -0.50108 1.00148
172 1 2.42663 2.38978 8.14204 -1.44841 0.386956 0.691797
173 1 7.98619 4.23177 1.44272 0.284324 -0.340058 -0.0547788
174 1 2.00905 3.99408 6.30536 -0.399115 0.352062 1.26449
175 1 7.26925 6.84219 8.65045 0.101444 0.540926 0.218163
176 1 2.46962 9.06621 6.10591 -0.807502 0.164717 -0.499892
177 1 5.29023 6.94006 9.17339 -0.506321 1.36769 0.505601
178 1 7.69512 2.9796 3.60515 -0.100642 -0.0291592 0.643826
179 1 5.02101 0.672724 5.8219 -0.289837 -0.613925 0.846151
180 1 0.0565245 8.76225 4.15848 0.617966 0.143981 0.138536
181 1 7.74205 5.40001 2.80161 -0.45432 -0.932769 0.663839
182 1 6.03549 3.45469 6.44469 0.0975463 0.873406 0.584972
183 1 2.43541 6.38682 8.88131 0.0446219 0.975127 -0.5204
184 1 3.46133 9.26334 7.92484 -0.0264867 1.41253 0.191819
185 1 3.40127 6.54861 6.36255 -0.377802 -0.185834 0.0400669
186 1 3.24589 5.00225 5.48833 1.01539 -0.117323 -0.60257
187 1 1.86698 0.35498 5.33912 -0.159047 -0.166263 0.580465
188 1 3.39953 5.50913 0.763201 -0.297767 -0.50594 -0.405771
189 1 4.50084 4.75483 3.63116 -0.54712 0.79966 -0.890671
190 1 5.58309 6.26043 2.74807 -0.0587706 -0.617221 0.225254
191 1 5.21429 5.27095 8.30443 0.633965 0.054269 -0.301368
192 1 0.343019 3.62331 7.6605 -0.982089 0.0738832 -0.12648
193 1 2.84864 7.74288 8.1414 -0.438115 -0.504555 -0.393116
194 1 0.486399 8.30777 0.475405 0.322989 0.0231467 0.585515
195 1 9.04481 0.162525 3.64217 -0.074478 1.13337 0.431609
196 1 1.74015 1.90522 3.26611 0.596519 0.0273639 0.112404
197 1 6.02804 6.47933 7.29745 -0.15037 1.29122 0.48489
198 1 1.77251 2.29602 0.4355 -0.228799 -0.8445 -0.98434
199 1 8.62089 7.40414 4.82006 -0.218563 -0.374253 0.0421922
200 1 4.35826 0.370926 7.80213 -0.43857 0.740803 -0.198048
201 1 4.79298 1.94218 2.84621 -0.571323 -0.14087 -0.217685
202 1 8.58472 8.47654 3.64435 2.30201 -0.154857 -0.952059
203 1 5.764 8.83956 8.01988 -1.58601 1.27781 0.614399
204 1 4.45129 0.762435 8.883 0.470344 0.859389 0.155025
205 1 5.70117 9.23236 5.66565 -1.18673 0.325277 -0.411977
206 1 0.780842 1.05879 4.81768 0.58509 0.41479 0.503607
207 1 5.55796 2.4538 0.422021 -0.0677134 0.378478 -0.154635
208 1 6.95311 4.55656 5.46723 -0.338559 0.946727 -0.241161
209 1 6.13723 0.696672 5.63793 -0.945305 0.229412 0.441434
210 1 0.955697 1.51514 8.48138 -0.36266 -0.821718 0.273269
211 1 7.82031 1.02373 0.919647 0.206619 -0.470115 -0.993289
212 1 7.61668 7.57353 0.920549 0.153749 0.227358 0.587939
213 1 2.19425 2.84546 3.59392 -0.249633 -0.922537 1.31892
214 1 8.81797 1.21108 8.68497 0.821107 -0.0524335 0.470088
215 1 3.45666 5.46386 4.58104 -0.281668 0.476936 -0.475542
216 1 5.49953 7.73995 5.12331 -0.821933 0.337525 0.335985
217 1 3.5939 1.15374 4.9328 0.0119209 -1.63742 -0.15469
218 1 3.00657 3.70122 2.6945 -0.542827 0.965548 -1.07476
219 1 6.18552 4.19108 0.483015 1.58842 0.23061 -0.357679
220 1 0.0555188 1.82377 7.9085 0.418347 -0.108119 1.09285
221 1 6.56421 0.053616 4.86261 0.0915087 0.804643 -0.781378
222 1 6.71202 5.5782 3.11284 -1.278 0.0363084 -0.400455
223 1 0.918095 0.513546 7.56545 0.748055 -0.289669 0.229539
224 1 7.55061 6.17264 4.24008 0.533955 -0.330811 -0.881122
225 1 7.14296 5.61087 6.89598 0.246899 -0.751695 0.541825
226 1 1.52462 7.75835 3.69275 0.113327 0.277655 0.407095
227 1 5.71464 8.05923 4.04374 -1.39582 0.421509 -0.515454
228 1 7.64975 1.66483 8.8278 0.550447 -0.170893 0.219255
229 1 2.47526 0.319806 1.20928 0.757563 0.651301 -0.271456
230 1 3.16593 3.79901 7.40724 -0.173493 0.700601 0.580321
231 1 5.51326 6.77844 6.49052 0.862123 -0.646657 -0.396207
232 1 5.19528 3.40749 2.3339 -0.799031 0.173475 0.225844
233 1 8.32022 0.862733 1.82839 -1.52386 1.05986 -0.563398
234 1 6.16563 8.85169 9.03419 -0.849305 -0.363423 0.47274
235 1 8.0718 7.95982 6.27913 0.673892 0.470921 0.86022
236 1 2.10739 5.43069 8.46809 -0.329544 0.124553 0.237631
237 1 6.17798 0.633563 1.18515 -0.239259 1.86852 0.528623
238 1 6.12217 6.57739 8.42566 -1.32053 0.0554601 0.775971
239 1 3.63977 9.21297 6.3775 -0.0775867 0.588797 0.690859
240 1 4.74764 2.43113 5.30246 1.02585 -1.30043 -0.860566
241 1 3.81903 3.88092 3.32319 -0.352139 -0.630926 0.206794
242 1 6.88943 3.10766 1.93634 0.326858 0.103716 0.750711
243 1 1.02933 7.39788 0.600438 0.0414953 0.75956 -0.102122
244 1 5.89078 7.76071 6.16148 -0.298127 0.158243 -0.928062
245 1 5.57659 3.08454 3.38463 -0.719567 -0.425765 -1.18208
246 1 8.31702 0.0963184 1.14871 -1.05231 -0.246248 0.472467
247 1 4.80492 3.69784 3.72312 -0.337031 0.187961 -0.413086
248 1 4.76489 9.14462 5.18919 -0.935414 -0.555395 -0.680171
249 1 2.8652 4.52506 6.54268 0.558326 0.479337 -1.31363
250 1 5.05466 6.45887 4.02569 0.271622 -0.489052 -0.319273
251 1 6.89276 1.96783 8.1269 -0.449497 -0.581003 0.229884
252 1 0.963975 4.19466 4.59493 0.085219 -1.26338 -0.206728
253 1 9.14016 5.60237 2.54926 -1.08242 0.629357 -0.176534
254 1 5.12801 0.993505 1.44944 0.180418 0.697374 -0.696468
255 1 6.16506 3.95755 3.64385 1.15747 0.0876667 -0.932865
256 1 0.417152 3.02112 9.31715 -0.347986 -0.963517 -0.165924
257 1 5.86905 0.423692 2.86982 -0.612522 -0.655442 -0.0950784
258 1 2.39552 7.6708 1.98066 0.188037 -0.138387 0.931462
259 1 3.32001 6.02694 7.51878 0.410293 0.931311 -0.0424655
260 1 2.80104 2.28892 0.748926 1.33703 -0.2644 -0.514233
261 1 8.85608 6.09182 8.66114 -0.0355112 1.34022 -0.839869
262 1 2.13531 1.29129 0.632789 -0.07499 0.797516 -0.788653
263 1 6.53341 4.8409 4.00234 0.339154 0.00842196 0.770673
264 1 6.58691 7.27588 6.70487 0.500496 -0.00642923 1.33181
265 1 5.16834 4.2642 5.13077 -0.17085 -0.46708 -0.463129
266 1 5.90263 6.96625 4.27048 -0.572897 0.173196 -0.549288
267 1 6.6506 2.02487 2.31901 -0.728933 -0.589554 0.186969
268 1 5.70487 8.66512 6.63809 -0.33222 1.09266 0.640352
269 1 2.08723 4.98637 0.929814 -0.835767 -1.48798 0.737361
270 1 8.74162 7.20606 2.09372 -0.114748 0.130429 -0.832725
271 1 4.88507 6.61636 1.39006 -0.802219 -2.05961 -0.491615
272 1 0.314133 7.46994 2.35879 -0.312392 -1.41145 -0.352227
273 1 5.8825 4.78331 3.11595 0.470644 -0.639676 0.385631
274 1 4.80563 7.61851 6.4681 -0.253395 -1.44234 -0.585108
275 1 4.38269 5.77406 1.10826 -0.656482 -0.441696 -0.295732
276 1 8.00003 6.83575 1.52787 0.264438 -0.639453 -0.199427
277 1 5.05115 0.385596 3.80293 -0.253699 -1.05573 0.208434
278 1 1.59891 4.88754 5.06748 0.539981 -0.192989 -0.745829
279 1 0.0365648 6.47925 2.03398 0.31977 -1.10347 -1.32298
280 1 4.09441 2.12102 3.6467 0.0345278 -0.797638 0.70072
281 1 6.07665 7.84606 3.02918 -1.22215 0.49706 0.973805
282 1 0.117173 5.06632 1.60997 -0.79183 0.0824305 0.65405
283 1 8.7139 7.79596 1.01014 -0.131071 -0.164346 0.565665
284 1 6.82446 8.57473 3.25311 0.106659 0.22408 0.741443
285 1 7.75615 9.22046 3.65105 -0.315734 0.843631 -0.252096
286 1 2.5466 0.170615 8.25683 0.378275 0.234484 1.02952
287 1 2.78375 0.120555 7.08869 -0.0260559 -0.559767 -0.101524
288 1 3.14508 7.64728 6.54001 -0.0828386 0.246451 -0.492144
289 1 7.72557 1.18005 3.56087 0.88877 0.100835 0.759928
290 1 3.16665 7.02823 7.2982 -0.595779 -0.213777 -1.00429
291 1 5.3646 3.49266 0.309064 -0.497825 -1.05366 -1.73864
292 1 0.164385 7.40255 5.31901 -0.599896 2.18716 -0.264202
293 1 0.463424 2.93074 3.1091 -1.50803 0.045828 0.189745
294 1 0.386365 6.2418 7.35485 -0.736942 0.280247 -0.650419
295 1 8.00488 3.62292 7.46612 0.560467 -0.376585 0.569788
296 1 8.35266 7.65402 7.7541 0.350875 0.417555 -0.701414
297 1 6.05645 4.62889 4.85238 -1.14872 -0.531852 -1.24419
298 1 2.61842 6.01146 5.87619 -0.134687 -0.1081 -0.350638
299 1 6.68052 7.624 3.80978 -1.18356 -0.543826 0.639925
300 1 8.94021 4.39 1.13222 1.2019 0.43505 -0.472629
301 1 2.47037 8.98039 4.98525 -0.940862 0.73985 0.140046
302 1 8.31677 0.615129 5.26973 0.195141 0.444624 -0.122326
303 1 1.33794 0.209391 3.30876 1.15773 0.434497 0.191664
304 1 8.31028 4.50615 4.17365 -1.16793 1.09085 -0.425474
305 1 1.26976 8.96834 0.406824 1.06318 -0.26622 -0.29487
306 1 5.28206 8.70159 1.77237 -0.735162 -1.10866 0.650459
307 1 5.43149 9.29245 0.926872 -0.716534 -0.685064 0.638098
308 1 9.33413 0.108355 7.05204 0.237002 -0.0368245 1.33348
309 1 8.78343 6.58804 7.16296 -0.168141 0.762483 -0.0812893
310 1 5.44482 5.29765 6.43891 -0.219439 0.399286 -0.140824
311 1 9.25427 7.05245 8.05061 -0.233901 1.37891 -0.173157
312 1 3.75815 5.63085 1.92835 0.922904 -0.650699 0.00443017
313 1 7.65122 2.53429 2.43329 -0.629505 -1.28248 0.601417
314 1 8.57174 4.91703 3.22972 -0.363841 -0.491261 -0.114936
315 1 3.85099 4.62595 6.4014 0.465153 1.37648 -0.195825
316 1 1.31967 3.10219 5.80951 -1.01328 -0.464492 -0.322451
317 1 0.19203 1.04699 9.33382 0.837298 0.142755 0.921137
318 1 0.393492 5.84993 5.71972 0.823108 -0.153139 -0.631373
319 1 2.41273 8.9389 0.491901 -0.81202 -0.744168 0.444553
320 1 4.42837 6.68873 6.14106 0.483348 -1.2519 0.255004
321 1 8.98683 4.53502 2.31528 0.418046 -0.271773 -0.108987
322 1 1.58802 6.59163 3.51405 -0.487148 0.492953 -0.0525047
323 1 2.01697 5.33219 1.94408 -0.789726 -0.629987 0.421165
324 1 2.13115 3.8553 7.34081 0.444418 -0.376142 0.291601
325 1 5.23229 5.6828 1.69858 -0.0467376 0.343052 -0.679367
326 1 6.41176 1.80687 5.81487 0.152307 1.07298 0.474966
327 1 5.28166 0.292833 8.32344 -0.121801 1.56856 -0.418603
328 1 8.68183 6.03651 1.26604 1.57554 0.77523 -0.764282
329 1 0.217227 0.644088 8.37636 -0.165406 0.793581 -0.0107667
330 1 3.38032 5.97252 9.17547 -0.46101 -0.995788 -0.289354
331 1 3.87291 2.23454 4.69062 -0.144127 -0.519695 0.504133
332 1 4.28905 1.00369 3.47531 1.27223 -0.761955 0.532656
333 1 1.10357 4.36968 3.53939 0.407544 -0.61566 1.33396
334 1 9.32839 6.8132 6.28276 -0.0902001 0.191736 -0.312818
335 1 2.31675 3.12379 2.34995 0.607521 0.24765 -0.163006
336 1 7.04767 6.58911 6.06036 -0.219436 -0.0262518 -0.0849653
337 1 7.89727 1.72396 7.80845 0.0691122 -0.131891 -0.29828
338 1 0.0280974 2.69823 7.4386 -0.777986 -0.359372 0.882384
339 1 8.93584 3.75876 7.00749 0.0551641 0.816233 -0.525853
340 1 5.96986 8.75626 2.53401 -0.400286 0.237534 -1.07595
341 1 7.07995 3.56495 6.8585 -0.623597 -0.461823 0.369405
342 1 7.54971 5.87464 1.32258 -0.0374144 -0.492575 -0.185982
343 1 6.49743 5.9879 3.97129 1.355 -0.182203 -0.46906
344 1 0.899211 2.10759 5.87819 0.735814 0.129321 -1.25881
345 1 8.06108 6.3353 8.00238 -0.771724 0.100752 -0.0789652
346 1 8.11058 8.36387 0.422759 -1.12495 -1.22259 -1.00205
347 1 6.31565 5.32225 8.35891 0.909122 -0.688275 -0.293929
348 1 6.37166 2.29806 6.69287 -0.0463452 -0.0434074 -0.573599
349 1 1.35942 5.22796 7.66701 0.0807802 -0.6701 -1.04634
350 1 4.37306 3.44149 8.35875 1.01691 0.0437035 0.491655
351 1 6.70619 7.15423 2.3342 0.118992 0.705676 -0.143548
352 1 4.55197 7.54575 8.19564 0.954119 -0.242254 0.851853
353 1 9.12179 3.72268 5.95803 -0.906354 -0.456553 -1.06441
354 1 9.12218 5.76733 6.53842 -0.149303 -0.298797 0.378605
355 1 1.32105 8.01631 1.84988 -1.19909 0.455383 -0.954606
356 1 5.11266 1.94302 7.1946 -0.964416 -0.574657 1.29934
357 1 0.724464 2.04444 0.445321 -0.128653 0.121535 -0.698648
358 1 4.4763 7.4718 5.46129 1.07238 -0.915926 0.0163325
359 1 4.11975 6.62488 7.79099 0.419185 -1.07975 -0.167638
360 1 3.08118 1.34577 1.08897 1.245 -0.347168 0.973951
361 1 7.38192 2.09318 5.39013 0.0269981 0.74389 0.547245
362 1 0.49765 9.0436 3.27957 0.714384 -0.125659 0.190487
363 1 8.13683 3.3956 2.00348 -0.325334 0.820066 0.520789
364 1 1.89464 0.593559 7.44049 -0.411902 -0.702143 0.204325
365 1 1.80576 4.69086 9.35909 -0.359143 0.0705915 -0.237651
366 1 4.53162 8.24451 9.0956 -0.249138 -1.02257 -1.26314
367 1 3.04289 3.33056 0.499448 0.14034 -0.429832 -0.589603
368 1 2.03222 2.19626 4.37331 -0.559928 -0.95831 0.498057
369 1 8.95957 6.15603 0.29393 -0.177218 -0.094448 0.758237
370 1 0.947294 7.20544 8.08604 0.515659 1.6902 0.181099
371 1 3.46952 3.81017 4.60012 -0.757778 -0.344455 -0.141555
372 1 5.42985 1.17705 8.92639 0.421703 0.635586 0.222429
373 1 6.88581 4.09702 1.92114 0.267036 0.587147 -0.157271
374 1 9.07717 0.340784 5.98395 0.172271 0.619359 1.23655
375 1 3.48148 6.50725 1.17404 -0.108682 0.685184 0.0959285
376 1 4.8869 2.02546 1.16206 -0.0919693 -0.617697 0.70939
377 1 2.27643 7.04734 6.78562 0.521864 -1.25815 0.267465
378 1 4.06775 6.79428 2.04754 0.277609 0.171819 -0.780888
379 1 7.38987 4.72609 6.50027 -1.26292 -1.96442 0.34566
380 1 7.7534 3.06561 5.38276 0.401503 -0.311268 -0.793928
381 1 4.94306 2.63417 4.15483 1.14664 -1.01595 0.968046
382 1 5.02965 8.42073 5.85863 0.58479 1.11665 1.07494
383 1 8.66522 8.89054 6.50897 -0.057542 1.36005 0.499367
384 1 3.19819 0.538312 2.80378 0.515194 -0.152329 1.28066
385 1 4.18527 6.71194 8.86518 -0.522441 0.328258 -0.109004
386 1 9.39993 4.49527 4.12069 1.25214 0.413835 1.21891
387 1 0.133602 9.36103 2.34572 -0.668865 -0.413331 -0.314291
388 1 6.2478 6.17907 0.481756 0.019248 0.219687 0.517524
389 1 6.10269 3.78309 5.37856 0.826654 -1.28556 0.3483
390 1 3.34051 6.45899 4.35875 -1.04279 1.38738 -0.970462
391 1 9.3059 0.416642 1.46298 -0.316695 -0.624177 -0.544186
392 1 4.58762 3.84075 1.60493 1.21334 -0.655013 0.828473
393 1 8.36564 7.02466 0.400774 0.735897 -0.553787 -0.53309
394 1 8.8679 5.32679 5.54376 0.541968 -0.271407 0.133035
395 1 8.79476 0.766747 0.527079 0.837345 -0.372321 -0.366072
396 1 3.08554 3.77138 1.63191 -0.11216 0.240047 -0.61608
397 1 6.39915 4.15772 8.78003 0.821431 0.564197 1.30537
398 1 8.55823 3.39273 1.01662 0.615373 -0.696158 -0.0917932
399 1 7.96246 9.01824 1.98513 -0.469952 1.03783 -0.854645
400 1 1.15932 5.52049 3.37238 -0.681825 0.362085 -0.894778
401 1 5.5947 4.68687 9.07569 -0.0432765 -0.423834 -0.245027
402 1 2.2076 1.1683 1.70827 0.402566 0.84584 0.784551
403 1 2.2549 4.25862 2.09038 1.06441 0.240564 -0.389993
404 1 3.97248 7.80237 0.628053 -0.394659 -0.713234 0.291965
405 1 3.24972 5.49814 6.51004 -0.902692 -0.447985 0.584917
406 1 3.79284 8.73111 1.32641 -0.0123917 -0.539427 0.156878
407 1 6.01292 0.415245 0.00513384 0.427222 0.10678 -0.714645
408 1 1.25747 1.17495 0.0710331 -1.3548 -0.309043 0.216153
409 1 3.5007 3.0872 5.3043 -0.286979 -0.38782 -0.536511
410 1 8.05412 0.708645 8.16555 0.641092 -0.567241 -1.01695
411 1 4.59567 7.89041 1.56005 -0.394565 -0.586882 -1.23904
412 1 2.37415 7.11631 3.96695 -1.70686 0.27371 -0.653148
413 1 2.19855 0.330104 2.4067 0.134035 1.1872 0.739466
414 1 5.96163 2.12196 8.90159 -0.161648 -0.192828 -1.17471
415 1 8.05795 9.17316 8.96806 0.40972 0.433668 1.29324
416 1 7.96225 0.706488 9.29257 -0.0285095 1.50485 0.245119
417 1 6.60279 1.29925 3.22225 -0.466287 -0.594133 0.0167199
418 1 2.5941 2.27647 2.86897 -0.19769 -0.186694 -0.873188
419 1 6.74515 0.882171 2.27935 -0.133307 0.0618801 -0.298915
420 1 2.76649 3.97811 5.54152 0.721492 -0.7332 0.142269
421 1 6.88191 7.50342 5.78683 0.215031 -0.034833 -0.117273
422 1 7.71984 4.01542 4.97358 0.4608 0.740553 -0.0522802
423 1 8.03215 2.53108 4.59261 -0.786313 0.489554 0.995844
424 1 3.51273 7.37083 3.62713 -1.21989 -0.743947 0.106733
425 1 0.862132 0.411945 6.3863 0.416361 -0.588541 0.158594
426 1 1.79885 1.66495 7.59596 1.04212 0.43173 0.0853216
427 1 7.54493 3.89006 5.99242 0.304578 0.899037 -0.26227
428 1 4.22947 8.85561 7.26861 -1.15187 1.01316 0.304281
429 1 7.18457 0.619241 4.25789 -0.815282 0.192101 -0.0102897
430 1 7.91191 5.1311 4.92418 -0.704213 -0.295341 -0.263715
431 1 8.75532 2.9698 3.79932 -0.631228 -0.546782 -0.060162
432 1 1.00255 8.19328 2.90143 0.0451698 -0.91612 0.189584
433 1 2.06056 8.0821 4.6347 1.19161 0.146828 0.348091
434 1 7.47537 5.57138 0.289407 -0.417051 1.44137 -2.18039
435 1 7.36773 6.61659 0.49552 -0.0109737 0.786138 0.948612
436 1 7.7392 6.10556 5.32027 0.0603725 -0.418646 0.56229
437 1 4.59869 4.26387 2.64648 0.425427 -0.114631 -0.305256
438 1 2.00425 6.44141 2.51041 1.42402 -0.496017 -0.141914
439 1 4.21505 7.77864 2.59803 0.182487 0.618743 0.0275595
440 1 6.17867 4.76321 1.3995 -0.0655036 -0.544232 0.678812
441 1 6.80056 1.47343 1.34497 -0.163917 -0.542248 -0.0202593
442 1 6.72606 3.91224 4.61874 1.25521 0.466527 1.17324
443 1 2.98783 5.19213 2.47939 -0.864802 -1.42568 -0.619029
444 1 0.221784 5.81898 4.70487 -1.32543 0.684408 0.171599
445 1 6.97202 4.95867 7.69957 -0.343667 -0.0813735 0.499961
446 1 8.15046 2.25901 6.13491 0.026127 0.305302 0.952965
447 1 0.790862 4.84825 9.39011 0.381095 -0.261107 0.528203
448 1 2.71997 7.96173 0.105509 1.24587 0.0870764 0.945113
449 1 4.18673 5.89783 6.82094 1.06119 -0.26705 0.0112994
450 1 2.23954 8.25061 6.78393 1.16304 -0.558279 -0.770129
451 1 5.88489 4.49557 7.95834 0.0752938 0.51014 0.170238
452 1 4.52009 5.65234 8.92755 0.140272 -1.63376 -0.973451
453 1 2.73915 2.02556 6.13386 0.244585 0.734635 0.209387
454 1 1.92947 8.04991 0.882577 0.460963 -0.239994 -0.909482
455 1 0.324965 4.84888 5.21916 0.214526 -0.0405852 -0.646113
456 1 2.26605 3.00528 1.3105 0.174174 0.741229 -0.199349
457 1 6.69658 7.18459 7.75718 0.843975 0.389125 -0.386659
458 1 2.88303 7.39984 4.77378 0.910738 0.0476207 -0.647632
459 1 8.33334 2.70168 7.38231 1.31608 0.549413 1.15035
460 1 6.93623 2.95531 6.07466 0.0861199 -0.904772 0.533302
461 1 0.10253 3.97119 8.84799 0.391189 -0.149268 -0.118766
462 1 3.96226 9.20965 8.82346 0.835077 0.0704092 -0.418939
463 1 3.57338 0.429517 1.1577 -0.120009 0.670548 -0.978484
464 1 8.72528 2.93489 5.4287 1.02823 -0.550106 -0.820391
465 1 1.51842 6.36122 8.26879 0.508501 -0.483801 -0.363541
466 1 4.27844 2.44568 7.90388 -0.550548 0.685089 -0.079695
467 1 5.76293 1.26712 2.30265 0.493857 -0.183107 0.131822
468 1 7.61611 7.29518 3.45606 0.243512 0.920501 0.304822
469 1 7.32315 0.620446 5.27762 -0.100026 -0.580314 -0.0924241
470 1 7.27389 2.89834 7.95304 0.996552 -0.0514964 -0.450267
471 1 3.6273 1.74636 6.77358 0.185098 0.215445 0.367005
472 1 9.18518 3.62315 1.85663 -0.282862 0.0738537 -1.23194
473 1 2.65474 2.32186 7.18532 -0.277866 0.0666894 0.031936
474 1 0.27935 7.92583 1.35539 -0.147315 0.242515 -0.48319
475 1 0.165645 1.97597 8.96673 0.459549 1.51653 1.01924
476 1 0.902448 0.0259311 8.89323 0.469712 0.855935 0.59763
477 1 0.278439 1.14525 2.14326 -0.180442 -1.6084 -0.242383
478 1 4.73919 8.79921 8.26304 0.701238 0.107342 -0.579542
479 1 1.26798 4.65667 1.78371 -0.275661 0.271836 -0.249782
480 1 3.32823 1.44061 2.16096 -0.437236 -0.957275 -0.597041
481 1 4.01428 3.0526 4.11498 -1.04746 -0.784386 -0.775478
482 1 8.81571 3.29486 9.36042 0.981749 1.28524 1.01193
483 1 3.45875 7.83089 5.57433 1.12238 -0.0126228 0.291856
484 1 4.36231 0.620007 4.59231 -0.333328 0.0585364 0.155543
485 1 5.03854 6.44127 8.31954 -0.432337 1.0411 1.217
486 1 6.96628 8.16626 2.28395 0.417065 -1.24888 0.215324
487 1 6.06148 5.45407 2.37476 -0.43992 -1.394 0.271975
488 1 7.45347 7.82227 7.07675 -0.122416 0.260603 -0.0825174
489 1 0.410046 0.172132 0.513531 0.200516 -0.409804 -0.89328
490 1 2.72187 8.07354 3.79211 -0.271538 0.923817 -1.56213
491 1 7.72766 7.22816 2.4438 -1.62087 -0.117201 1.61244
492 1 6.05643 1.29327 8.10813 0.0539676 0.298108 0.860476
493 1 6.72026 1.32864 9.01409 -0.0525307 0.670906 -0.0997712
494 1 5.95577 2.71522 5.48822 0.557616 0.322302 -0.674615
495 1 7.2703 2.06838 3.28904 -0.507443 0.529577 0.157928
496 1 2.36646 3.4469 8.3535 0.738217 -0.865319 0.760579
497 1 3.06408 0.103184 9.29637 -0.349499 0.354707 0.30719
498 1 7.30476 8.56528 1.19115 -0.532633 1.151 0.703854
499 1 4.11849 8.80136 2.31336 -0.490669 1.03587 0.127573
500 1 4.05799 4.73109 1.17726 0.0362694 0.153309 0.409483
501 1 5.60191 9.06973 4.51953 -0.187062 0.434058 -0.542643
502 1 1.89139 4.97259 3.98397 -0.264053 0.432331 -1.08756
503 1 4.63839 6.05008 2.39697 0.0730651 0.559883 0.77975
504 1 5.24532 3.10063 1.24729 0.315603 1.23148 -0.534595
505 1 8.44137 5.9683 3.39177 0.344253 1.20697 -0.232316
506 1 0.677078 0.124728 5.36459 -1.24481 1.25513 0.241195
507 1 7.26845 0.177275 7.52359 1.74815 -0.55423 0.646603
508 1 7.85409 0.44509 2.58255 -0.183895 -0.393058 -0.164065
509 1 0.428372 7.24823 7.19352 0.44302 -0.83388 -0.252906
510 1 9.33518 8.27383 2.86454 0.293474 0.137667 0.254546
511 1 6.51587 7.47953 4.8105 -0.0797492 1.12996 0.217743
512 1 2.31496 5.98442 4.02432 0.692007 0.805202 -2.00064
513 1 1.21419 7.66245 5.40741 0.574955 -0.105147 0.591494
514 1 7.89421 7.06101 5.55319 -1.00848 -0.895613 0.532693