ITEM: TIMESTEP
34550000
ITEM: NUMBER OF ATOMS
1000
ITEM: BOX BOUNDS pp pp pp
0.0000000000000000e+00 9.4000000000000004e+00
0.0000000000000000e+00 9.4000000000000004e+00
0.0000000000000000e+00 9.4000000000000004e+00
ITEM: ATOMS id type x y z vx vy vz
1 1 1.24454 4.65912 9.13561 0.377371 0.109614 0.798395
2 1 7.36195 6.4571 1.18371 0.582811 1.02987 -0.550963
3 1 3.48191 2.92708 3.10749 0.624712 -0.509933 -0.0870556
4 1 7.76901 8.51689 6.23575 -1.54026e-05 1.31424 0.947273
5 1 1.53085 0.0570986 3.02876 0.0202398 0.615834 0.437611
6 1 6.19447 7.80793 8.58386 -0.824107 0.355028 -1.20591
7 1 0.946558 7.85842 0.223122 0.0617299 -0.969272 -0.772226
8 1 4.51589 1.35043 7.02013 -0.849929 -0.00861525 0.486863
9 1 2.77953 5.6979 5.63231 -0.212457 -0.00433445 -0.390438
10 1 0.533995 7.11993 9.01232 0.0727208 -0.363677 0.640199
11 1 6.72945 0.728924 4.14662 -0.193917 -0.413393 -0.288705
12 1 0.913742 1.37531 1.5629 -0.948326 0.0458723 -0.0960489
13 1 1.74642 1.7132 1.12243 0.968321 0.48781 -0.27233
14 1 3.41046 5.79692 2.86372 -0.75512 -1.20008 -1.36405
15 1 6.37787 2.90585 0.49027 -0.348821 1.82421 -0.424837
16 1 0.558818 0.853134 6.37177 -2.4012 0.829592 0.259372
17 1 8.20955 2.60842 1.42686 1.4613 0.580804 0.227281
18 1 6.4622 6.79928 8.6748 0.710586 -0.605404 -0.39479
19 1 4.55113 3.21628 8.14737 0.611449 0.860207 -1.64559
20 1 6.69775 4.37925 6.73044 0.901255 1.46554 -0.999923
21 1 8.49528 1.3252 3.86535 -0.616945 0.155349 0.0598137
22 1 2.95377 2.07604 5.58753 1.18636 -0.422865 -0.790035
23 1 4.64131 1.65084 8.59831 0.823093 0.133468 -0.341601
24 1 2.01134 3.2818 6.58134 -0.469592 -0.522507 -0.0422812
25 1 6.54859 0.909254 7.24638 0.0560903 0.700366 0.150472
26 1 0.675896 3.99722 3.09743 0.346929 -1.02332 0.569416
27 1 9.14099 7.64402 1.93158 0.179982 0.322691 0.762495
28 1 4.28265 3.49193 2.98048 -0.977664 0.657545 1.11305
29 1 1.18889 4.45268 6.11434 -0.983728 1.64191 0.226437
30 1 0.338752 2.6248 6.47053 0.0924178 0.36786 0.931151
31 1 2.99197 3.06581 1.38286 -0.928818 -0.26026 -0.150106
32 1 7.79066 5.86447 5.87566 0.454629 -0.16191 0.905425
33 1 1.88986 8.9109 8.48214 -0.21836 0.391439 -0.0465942
34 1 6.1139 0.0744691 3.29783 -0.386718 0.363794 0.647197
35 1 0.192909 0.746978 3.1256 0.394183 -0.598081 1.33153
36 1 3.35915 6.81941 2.94217 -0.60636 1.06461 0.144785
37 1 4.89401 8.92894 0.0847554 0.46462 -0.256632 -0.0152412
38 1 1.54718 6.70269 3.02128 -0.450029 0.196828 -0.849092
39 1 1.1887 0.15622 7.87321 0.437276 0.472628 -0.619588
40 1 6.84511 1.10499 0.745227 -0.130045 0.220974 0.374551
41 1 7.70279 6.8916 5.58094 -0.696061 -0.30706 0.31739
42 1 0.904419 0.371294 3.90661 0.238219 0.365186 -0.257115
43 1 0.902077 0.894416 8.57783 1.33852 -0.429136 0.167506
44 1 2.24022 2.89639 5.10099 -1.17747 -0.876787 0.734526
45 1 4.32897 3.16071 4.97723 0.242382 0.422969 -0.288791
46 1 2.94261 3.50176 4.09396 -0.251597 -0.118686 -0.367148
47 1 1.90111 6.31847 9.13816 -0.459256 -1.59724 -0.160472
48 1 5.89237 4.87562 3.36976 -1.01997 -0.490421 0.0444925
49 1 4.0604 4.40484 6.70225 0.462049 -0.850622 -0.457579
50 1 0.686128 7.678 3.55276 0.08552 -0.382488 0.36478
51 1 1.06664 5.32657 3.87986 -0.0688423 -0.859443 -0.0755286
52 1 3.5358 1.20465 2.0597 -0.361291 0.189011 -0.919434
53 1 3.67227 0.917365 4.4433 0.37387 -0.431028 -0.073743
54 1 7.12374 7.46149 8.18703 1.32886 0.299417 -0.460252
55 1 0.850932 5.46952 7.59931 0.328794 0.872002 -0.908427
56 1 2.42409 4.27488 0.0439396 0.628163 0.229939 -0.508486
57 1 8.44512 8.03514 6.80245 -1.07316 -0.743557 0.491238
58 1 8.97684 7.13415 8.56686 -1.01555 -0.323144 -0.277347
59 1 8.66275 8.65068 5.73981 -0.847439 0.16898 0.191382
60 1 1.52318 8.04622 1.74717 1.94328 -0.686305 -0.113652
61 1 3.63703 1.91175 2.92483 0.564912 1.11432 -0.211053
62 1 0.316935 8.76224 0.168164 -0.453994 0.606242 0.208938
63 1 6.74312 8.3661 6.62383 0.447848 -0.132725 0.592009
64 1 7.91683 6.9395 0.175478 -0.455008 0.943703 0.325912
65 1 7.98399 1.31 4.99278 -0.305208 0.742986 0.268221
66 1 2.75379 6.36672 7.40328 1.54283 1.13073 0.487055
67 1 3.28652 8.83675 2.11444 0.627536 -0.487054 0.551233
68 1 5.01201 5.95878 0.825642 -0.002668 0.762783 -1.35253
69 1 6.90023 4.27093 3.21449 0.252897 -0.415935 -1.14709
70 1 7.4716 3.62043 3.89073 -0.391624 -1.46703 -0.50557
71 1 8.08452 3.25154 0.58863 0.618491 0.738275 -0.605944
72 1 7.05961 0.580644 5.15514 -0.209947 -0.891336 0.530219
73 1 3.4578 6.96135 6.7599 -0.2375 0.592448 0.503631
74 1 7.36719 9.33519 4.0093 0.36261 -0.122905 -0.86329
75 1 6.87462 1.10382 8.20634 -1.08756 -0.250332 0.338532
76 1 6.4456 3.56379 1.55394 -0.0360124 -0.700484 0.150667
77 1 2.3089 3.12896 3.41524 -1.16545 0.430749 -0.428191
78 1 3.90386 5.99 1.23518 0.861821 -0.684443 0.85999
79 1 5.62591 0.122535 9.00029 0.0165963 -0.592717 -0.908425
80 1 9.20228 5.80659 7.48817 0.0459495 0.333407 0.613612
81 1 3.63168 8.15824 4.76752 -0.254033 -0.0346528 0.916893
82 1 5.96255 1.056 5.01579 -1.00506 -1.56099 1.28015
83 1 4.30392 6.97427 4.11348 0.481369 0.973769 0.799937
84 1 0.945589 7.39599 7.30104 -0.0788715 -0.836049 0.061034
85 1 2.91306 1.12203 1.01959 0.416304 -0.788199 0.596545
86 1 4.26318 5.10719 0.76932 -0.474101 0.860834 -0.210515
87 1 5.84836 2.83805 3.82639 -0.0786203 -0.0643757 0.676088
88 1 8.4955 2.12641 7.65667 -1.19641 -0.0809727 -0.140676
89 1 0.811378 3.3475 2.29202 -1.33988 0.11106 -0.656477
90 1 7.93713 4.12415 3.10369 -0.485879 1.3149 1.76717
91 1 0.0428106 5.84254 6.42692 0.097635 -1.48682 0.355728
92 1 6.99675 6.42907 7.73968 -0.265508 0.686304 -0.822649
93 1 2.73485 8.15623 4.18781 -0.503156 0.270722 -0.605536
94 1 -0.0235842 6.63776 1.32708 -0.949036 -0.134966 -1.88623
95 1 2.00266 4.86591 2.40346 1.001 -0.841075 -0.772984
96 1 2.59977 1.33639 8.64151 -0.711842 1.00422 0.458311
97 1 2.19845 2.47497 1.75439 1.05247 -0.406029 -0.428382
98 1 4.30793 1.16042 2.77785 -0.453671 0.194935 0.360617
99 1 2.52347 0.735428 4.6022 0.607098 0.28761 -0.540537
100 1 6.37857 8.16311 4.33563 -0.458851 -0.00579207 -0.377333
101 1 4.18446 6.50942 2.34779 0.859379 0.220542 0.90975
102 1 6.41215 1.79493 4.02949 -0.880192 -0.047057 -0.221996
103 1 9.32258 8.79151 1.21782 0.833713 0.718714 0.365264
104 1 3.24421 8.58802 0.186743 0.743425 -1.0111 -0.103532
105 1 6.93099 6.62519 6.22345 -0.0575911 -1.03753 -0.799237
106 1 8.18139 1.33814 6.79945 -0.910979 -0.301664 0.311807
107 1 7.70087 7.41335 1.89057 -1.06374 -0.521442 -0.33803
108 1 9.04878 0.577425 6.99446 -0.890314 0.330679 -0.519973
109 1 6.84701 4.60652 4.32445 1.39295 -0.745348 -1.33559
110 1 8.86477 4.85004 6.35415 0.742827 -0.0867607 -0.189484
111 1 3.33178 6.80442 0.822142 -0.30921 -0.343362 0.692055
112 1 4.61008 0.355684 8.7788 0.886896 -1.33674 1.21513
113 1 2.71548 3.57249 8.73888 0.100227 -0.00131794 0.260005
114 1 3.42003 7.08538 4.72576 0.282033 1.64116 -0.113505
115 1 4.03427 0.209494 5.1758 -0.149811 -0.0640028 0.842283
116 1 4.94835 5.23433 7.25115 1.09145 -0.405183 -0.245958
117 1 8.03736 5.33485 1.16554 1.17794 -1.13838 1.05203
118 1 7.41253 1.46966 7.4061 0.698858 -0.248385 -0.15414
119 1 9.21391 6.64506 4.13507 0.933134 -0.362207 0.829299
120 1 2.98603 5.91621 1.89919 0.249833 1.41661 1.50494
121 1 5.59097 8.84711 7.12252 0.886822 0.377494 0.0613712
122 1 8.92565 8.57448 8.57941 0.982728 0.830031 0.177538
123 1 1.57678 8.80407 6.67602 0.639352 1.52622 -0.562361
124 1 5.28524 9.37369 6.24534 1.85216 -0.269526 2.37876
125 1 6.02728 4.80808 6.05152 1.09674 -0.383449 1.31219
126 1 0.423469 5.27518 1.75744 -0.977396 1.56636 -0.113023
127 1 2.18985 8.47671 4.9408 -0.649108 0.0616715 0.945596
128 1 5.64863 7.35797 7.7906 -0.073912 -0.543145 -0.931475
129 1 3.16216 3.98265 0.854635 -0.219736 0.808821 -0.35513
130 1 3.72405 7.31913 7.77669 -1.02192 0.908866 -0.102099
131 1 0.563709 1.40199 3.87941 -0.26228 -0.658908 1.13699
132 1 7.75117 4.89996 3.92313 0.510991 -0.780103 0.290151
133 1 5.92331 7.65236 2.62701 -0.431751 -0.12313 -0.778956
134 1 4.31424 0.731301 5.97034 -0.504379 1.0504 -1.40719
135 1 4.93393 1.01717 4.47291 0.253826 -0.108334 0.319248
136 1 1.78161 1.12425 7.95968 0.575554 -0.273869 -0.286506
137 1 3.51721 4.29517 8.77403 0.394156 0.520288 0.154709
138 1 6.88634 2.72972 7.22469 -0.0646702 1.01454 -1.04374
139 1 0.771832 6.21376 4.47241 0.46995 -0.815743 0.445202
140 1 4.04487 4.96117 4.75967 0.26108 -0.347577 -0.192887
141 1 3.99094 8.31532 7.8368 1.09583 -0.335675 1.14354
142 1 1.24285 2.63941 9.25593 -0.598598 1.05026 0.0908721
143 1 3.65709 6.88207 9.1978 -0.499995 -0.131341 -0.248377
144 1 1.63585 4.21368 7.06697 -0.359643 0.445128 -0.344986
145 1 6.12132 4.5567 8.31622 0.320392 -0.0278311 0.983015
146 1 7.60694 0.923931 2.34925 -1.73103 -0.080611 1.13271
147 1 4.1659 7.81958 6.79944 -0.480077 0.475843 -0.573791
148 1 4.71265 4.09674 7.57965 -0.791643 0.12281 0.980745
149 1 9.22305 7.13726 2.84186 1.83013 -0.191322 0.771196
150 1 4.73319 0.305791 0.785071 -0.663027 -0.345604 -0.624192
151 1 0.129652 7.41629 4.78835 0.0826071 0.103523 -0.499475
152 1 4.30981 6.76424 0.5558 0.498633 -0.397353 0.499047
153 1 9.35222 5.47063 0.0290514 -0.119106 -0.492361 0.995316
154 1 6.27508 4.6981 0.018672 1.05204 0.413944 -0.246002
155 1 6.88333 5.97498 2.59376 0.0260665 -0.111376 0.580627
156 1 4.27861 0.621476 3.64958 -1.60742 -0.916778 0.380754
157 1 5.73696 2.89154 5.73909 0.120161 -0.129091 0.0657223
158 1 4.72247 3.91552 8.90572 0.37894 1.33026 -0.43782
159 1 1.49706 6.97779 4.04036 -0.755258 0.27464 0.373054
160 1 6.42956 7.53513 6.02766 -0.907622 -1.09736 -0.397395
161 1 0.188503 4.05004 0.504562 -0.667075 0.559597 0.502069
162 1 0.100828 0.910275 9.21865 1.22248 1.04844 0.373705
163 1 0.134029 4.02114 6.04752 -0.726132 -0.573084 -0.306856
164 1 5.18881 6.81371 2.92087 0.310855 0.784628 -0.0578824
165 1 7.1589 9.37532 1.96096 0.0817232 0.8194 -0.922958
166 1 8.31001 6.42869 4.82285 -0.0446593 -0.647501 -0.151468
167 1 5.73796 7.2361 1.7853 -0.0946335 1.22844 -0.344402
168 1 6.86092 5.31795 8.24179 -0.173179 0.399113 -1.15386
169 1 3.34446 5.49291 7.67075 0.259646 0.117522 -0.142722
170 1 1.55252 1.46557 6.93114 1.57374 1.30682 0.858659
171 1 0.198326 3.54402 3.87749 0.053926 -0.0587371 -0.814702
172 1 2.69693 3.27193 0.304875 0.0411833 0.555038 -0.785572
173 1 7.9812 6.91096 8.28582 -0.0592772 -0.194478 0.171137
174 1 0.626391 3.32017 5.58851 2.00929 0.530647 -0.501737
175 1 6.59149 8.65239 2.54664 -0.634662 -0.0330929 -1.2418
176 1 1.30181 2.46219 6.77764 -0.781469 -0.745468 -0.341172
177 1 3.85133 8.87019 1.11693 -0.418222 -0.434087 -0.0586482
178 1 8.71805 5.65204 5.46263 -1.0703 0.299129 -0.653729
179 1 5.92863 8.4529 3.34751 -0.521479 0.264539 -0.318798
180 1 0.857352 1.2344 4.9863 1.80767 0.491086 0.386836
181 1 6.49365 7.35948 1.04295 0.255638 -0.129465 0.714632
182 1 2.89177 1.06922 2.85119 0.124216 -0.314191 -0.65032
183 1 1.82068 6.89883 6.96706 0.499325 -0.586805 0.63148
184 1 3.44776 3.26063 8.13487 -0.566856 -0.68533 0.899679
185 1 2.72373 7.18878 8.78384 -0.840394 -0.259522 0.610657
186 1 1.95644 4.84281 5.46802 -1.05321 -1.85978 0.424573
187 1 1.82079 2.64104 8.3733 -0.36139 -0.389342 0.451002
188 1 2.0658 6.04666 1.54449 0.428122 -0.44921 -0.261983
189 1 1.91771 3.59128 4.38613 -0.309271 0.00332678 -0.0477111
190 1 7.79252 5.76367 2.03791 -0.238321 -0.889632 -0.248524
191 1 5.59921 5.40512 9.01492 0.360365 0.0831163 0.42244
192 1 0.519723 5.13498 8.6611 -0.913863 -1.57882 -0.528395
193 1 2.41458 6.25363 6.35408 -0.265788 -0.403521 0.040061
194 1 3.90282 3.30918 9.03918 -0.3801 -0.444158 0.200682
195 1 0.072652 8.10739 2.82524 0.512021 -0.0790714 0.262073
196 1 2.62222 9.30847 2.89072 -0.506618 0.398412 -0.857436
197 1 3.33581 5.87896 6.55717 0.324424 -0.50781 0.261839
198 1 3.22024 4.9269 0.273838 0.497044 0.150403 0.753497
199 1 1.03556 5.47064 6.59004 1.0907 -0.163243 1.28029
200 1 2.56038 9.12968 6.37631 -1.50124 0.531509 0.398469
201 1 9.22875 7.78346 0.892258 -0.84141 -0.0665966 -0.447599
202 1 8.84969 2.35979 3.88134 -0.31116 0.227663 -0.606629
203 1 2.72183 7.34886 7.4712 1.09004 0.318049 1.5274
204 1 3.76428 3.4594 5.77375 0.950761 -0.988826 0.863594
205 1 7.47388 7.56167 6.3173 -0.293291 0.291753 -0.302883
206 1 0.798904 2.44529 5.09154 -0.641748 0.332609 -0.174327
207 1 7.52888 2.59002 8.91303 0.0277319 0.483788 -0.0502478
208 1 7.82252 3.84295 5.71016 -0.0754099 -0.354046 -1.75919
209 1 5.25554 1.51567 7.71809 0.257806 -0.00566668 -0.765624
210 1 2.2486 2.39011 9.2691 -0.174114 1.07646 -0.640737
211 1 0.508302 2.28627 2.16457 -0.811951 0.546859 2.01798
212 1 5.80018 7.44416 3.65347 0.218463 0.874693 -1.1655
213 1 2.05044 0.647959 3.63013 -0.0538678 -1.32692 0.259868
214 1 7.62988 2.30704 0.519818 0.00395179 -0.196712 0.198915
215 1 2.56883 6.36282 4.86152 1.42735 0.129734 -0.888275
216 1 4.34386 6.54905 6.43969 -0.0313212 -0.151907 0.715127
217 1 8.10233 9.20608 8.73771 -0.250398 0.125726 0.338224
218 1 4.81348 3.61866 2.04985 0.504556 -1.00705 -1.31584
219 1 6.80771 6.62071 0.287236 0.390523 -0.877577 -1.29076
220 1 9.156 2.14741 1.27925 -1.0382 -0.0684662 -0.512321
221 1 8.93701 8.94109 6.9591 -0.140871 -0.281251 -0.213573
222 1 4.88954 4.08385 1.01573 0.752866 -0.543996 0.998485
223 1 3.84584 7.81505 0.730566 0.375436 1.07019 -0.114552
224 1 6.92058 7.48521 3.77961 0.313015 -1.06636 0.189511
225 1 4.28845 5.51554 6.48127 -1.49533 0.147098 0.308798
226 1 0.744475 7.51812 1.28364 -0.215214 -0.101873 -0.237433
227 1 4.89491 7.87 0.414848 -0.284421 -0.496432 0.164312
228 1 6.36818 3.68483 8.8932 0.247232 0.376193 -0.640959
229 1 0.251962 7.87111 8.26363 -0.968442 0.742466 0.605874
230 1 4.59316 2.58603 1.18497 -0.433072 -0.237346 1.34896
231 1 0.373233 6.80489 7.94602 -1.39286 -0.0855215 -0.0713157
232 1 6.54879 5.76259 9.13929 1.65406 -0.568359 -0.414821
233 1 8.25719 7.83456 8.91459 0.163494 0.136634 -1.14049
234 1 2.85 8.47024 1.17792 1.15703 0.842748 -0.176663
235 1 7.46608 5.97948 6.88038 1.07025 1.08494 0.50011
236 1 0.275078 8.82731 7.78273 0.285354 0.823439 0.620649
237 1 6.79143 0.0385904 0.858068 0.308114 -0.679931 -1.20983
238 1 6.28249 8.65481 9.20441 0.183087 -0.101745 0.736276
239 1 2.51917 7.36901 6.41812 1.5002 0.449097 0.336586
240 1 5.03795 1.46865 5.60403 -0.766204 -0.726398 0.534911
241 1 2.35697 7.31553 3.44893 -0.406388 -0.432546 -0.136104
242 1 9.20968 2.96878 4.7456 0.767051 -0.251979 0.175736
243 1 2.39834 8.27615 9.06926 1.41949 -1.02655 -1.19438
244 1 5.8179 9.24402 0.66075 0.362391 0.4807 -0.750664
245 1 6.40493 3.32433 3.12435 -1.06339 -0.59188 0.265705
246 1 0.972868 6.06789 1.30221 -1.60657 1.55911 0.84863
247 1 5.0851 3.62513 3.73689 -0.0830015 -0.408073 1.15174
248 1 6.85205 1.58497 4.9999 0.0532131 -0.921531 0.0414238
249 1 2.28973 3.89553 7.80372 -0.113913 -0.491592 0.0576029
250 1 4.81892 7.82633 5.36665 -0.589865 -0.0668082 1.10633
251 1 7.79264 2.26047 6.83231 0.575514 -0.482052 -0.185125
252 1 3.19622 2.4561 3.93025 -0.105865 -0.361986 -0.283189
253 1 0.392543 5.0725 5.9022 -0.471198 0.370721 0.660564
254 1 6.97181 2.59888 1.30053 -0.895305 -0.706639 0.352628
255 1 5.55239 3.74325 8.13456 -0.322042 -0.440244 0.19446
256 1 1.49528 3.7521 8.48548 -0.433493 -0.104841 0.658814
257 1 3.93953 0.0264531 0.184222 -1.49391 -0.464339 0.0273347
258 1 1.9527 0.840609 2.51243 -0.498539 0.528628 -1.14173
259 1 3.78481 5.85251 0.218162 0.0559117 0.57448 0.170042
260 1 3.7634 2.67465 6.414 0.728636 1.02987 0.517365
261 1 6.82159 3.9272 0.690886 2.31117 -1.08765 -0.683836
262 1 5.46868 0.52249 2.27774 -1.09098 -0.24366 -0.487079
263 1 5.62723 4.46875 4.37373 -0.62831 0.559049 0.743171
264 1 7.21665 6.46509 4.71236 -0.214582 -0.107099 0.309001
265 1 4.65544 4.02021 4.56477 0.512883 -0.244718 0.289373
266 1 8.00519 8.01359 3.68744 -0.940207 -0.148755 0.323473
267 1 4.26182 2.63295 2.32605 0.445277 0.108005 0.5398
268 1 5.94886 9.01502 8.17308 -0.65154 -0.27929 -1.58172
269 1 2.86234 5.893 0.769654 -0.32624 -0.161733 -0.443467
270 1 7.71775 8.46323 2.73627 -0.156503 -0.0918686 -0.985137
271 1 7.16896 7.94884 9.0949 -0.316174 0.22572 1.18115
272 1 8.6258 0.965266 2.77349 -1.09033 0.550602 0.625123
273 1 9.36027 1.83803 3.12579 0.167065 0.776183 -1.0167
274 1 5.88886 6.7806 6.49489 -2.52843 1.4571 1.15968
275 1 4.01064 8.58911 5.71875 0.0361122 1.38714 -1.14235
276 1 9.33156 5.16 2.7449 -0.800835 -0.318818 0.82934
277 1 2.81705 1.47585 3.8109 -0.0326161 0.551681 -0.744398
278 1 1.82423 5.92413 7.32324 0.201191 -0.242746 0.350493
279 1 1.86403 9.11341 4.01793 1.51554 -1.6294 0.417104
280 1 6.08876 4.22876 2.4677 0.0893639 1.1524 0.383185
281 1 6.54691 9.13056 4.6084 1.0759 0.190482 0.666214
282 1 9.13705 0.392874 2.15777 0.323534 0.104045 0.56142
283 1 8.61675 8.08524 4.79649 -0.477192 -1.95227 -0.488891
284 1 7.69587 7.91254 5.3181 0.632895 0.345997 0.391243
285 1 4.29505 7.27172 3.1612 0.0702593 0.281902 -0.472064
286 1 0.553473 1.83156 8.68718 0.129703 -0.440979 -0.344116
287 1 2.94614 8.85744 8.28291 -0.386365 -0.173006 0.0131706
288 1 2.22115 1.34874 0.203442 0.772205 -0.830618 -0.491407
289 1 7.48223 2.0377 5.82856 -0.480057 -0.646059 -0.791626
290 1 1.18914 7.49065 8.36268 -0.022748 -1.10905 0.370694
291 1 5.22083 2.51107 8.19178 0.142525 0.107944 -0.904716
292 1 0.66048 7.67356 5.71543 0.155801 -0.208402 -0.343748
293 1 1.12411 8.69502 4.81533 0.0685044 0.268207 0.0909671
294 1 8.08618 4.11766 7.74628 -0.0754494 -0.655999 -0.0535248
295 1 7.44876 4.98081 7.18908 -0.467473 0.934695 -0.845822
296 1 5.31097 6.99707 0.765905 0.193413 -0.136392 0.876445
297 1 3.61474 2.89252 0.623637 -0.332086 -0.172433 1.2134
298 1 4.24043 6.71409 5.15488 -0.976411 -0.817414 -0.0295494
299 1 6.42437 6.8316 3.04588 -0.326185 1.48217 -0.21977
300 1 8.57624 2.58575 2.9406 0.366773 0.334755 -0.879157
301 1 9.30547 1.54737 6.56658 0.702776 -0.0500788 -1.58774
302 1 8.53226 0.47934 5.545 1.19712 -1.2611 -0.187671
303 1 0.92271 8.5687 8.73058 0.180433 0.917565 -0.348631
304 1 6.24787 5.19991 2.48298 -0.147065 0.87017 -0.766092
305 1 4.72408 1.32732 0.885818 -0.888095 -0.216876 -0.472078
306 1 8.27993 0.397219 3.56855 -0.198393 0.460436 0.378057
307 1 5.59644 8.25128 1.13128 -0.782414 -0.45285 0.098957
308 1 7.73091 0.938552 5.89839 0.373332 -0.00308829 -1.4909
309 1 8.83012 5.38034 8.528 -0.729749 0.81078 0.0298105
310 1 3.11984 4.89903 6.81512 0.876445 0.378672 -0.114233
311 1 8.26157 8.15115 1.18746 0.0440005 -0.446798 -0.704231
312 1 2.45911 6.74097 2.31917 -1.21306 0.836855 -0.0787019
313 1 6.12391 0.614237 1.50425 0.996134 -0.366736 -0.622899
314 1 7.27746 4.908 2.52083 -1.78115 -1.13061 0.385142
315 1 3.24516 4.21868 5.97869 0.347591 0.270539 -0.990431
316 1 2.00359 4.91208 4.13912 -0.158489 -0.0428921 -0.527264
317 1 8.72913 2.36223 6.57233 -0.539028 -0.432334 0.901643
318 1 8.5607 6.95495 6.3956 -0.00886208 0.31356 -0.095688
319 1 4.56864 0.310694 6.97879 0.48786 0.340632 -0.725762
320 1 5.67421 5.68521 5.30819 0.379311 0.482961 0.150923
321 1 1.89854 2.11936 3.56916 0.547143 -0.450791 0.795498
322 1 1.22158 7.60638 4.81462 0.183967 -0.487383 -0.860858
323 1 4.22482 8.16846 3.84958 -0.317491 1.02002 -0.248963
324 1 4.03802 4.74698 7.97654 -1.41826 -0.716697 0.402457
325 1 4.26769 5.15986 2.74598 1.01212 -1.22658 0.0394592
326 1 8.42555 2.20561 4.89698 -0.361848 0.473222 1.06841
327 1 4.13521 1.08856 0.0578507 0.0752454 0.93273 -0.135012
328 1 6.47148 2.61586 8.92093 0.954578 0.0353265 0.305028
329 1 7.90332 1.63321 8.51248 -0.00535577 -0.474173 -1.28081
330 1 4.0097 8.84622 8.76991 0.31651 -0.328135 -0.759882
331 1 4.4417 2.0806 5.00334 -0.0325569 -1.30429 0.45995
332 1 2.84753 1.48518 7.61746 0.484911 0.0855848 -0.175107
333 1 7.91854 4.47935 1.8064 -0.36027 -0.381817 -0.392437
334 1 1.41588 7.80072 6.44452 -0.193093 1.11129 -0.0850141
335 1 7.93188 1.7398 3.02679 -0.567715 1.06141 0.166353
336 1 1.28444 5.35485 4.9199 -0.0769144 0.691118 -0.739573
337 1 4.88004 8.38295 6.34951 0.335707 -0.048713 0.38313
338 1 8.76273 0.174348 7.94623 -0.264086 -0.00972732 0.456802
339 1 -0.0146766 4.76684 7.87152 -0.835327 1.0946 -0.360195
340 1 1.23436 9.16009 2.06509 -0.813926 0.16035 -0.679243
341 1 7.85297 9.00522 7.44142 -0.0276143 -1.17942 -1.06216
342 1 7.76057 5.64194 3.18042 -0.559893 0.154825 1.20095
343 1 4.16254 4.60453 1.74134 -0.0899828 -0.050299 -0.0333318
344 1 1.38312 0.914598 5.88938 -1.06393 0.889899 0.196164
345 1 3.87688 7.54583 5.85144 -1.25524 -0.0908296 0.478821
346 1 7.02078 5.02417 0.709103 0.54279 -0.391776 0.777228
347 1 3.4074 2.41051 7.46225 -0.627469 0.315989 0.539656
348 1 7.98025 4.21516 6.69031 -0.775081 -0.281997 0.695141
349 1 7.38113 3.50804 9.26064 0.215771 0.794205 0.0750871
350 1 3.91718 3.32069 4.02075 0.0905958 0.78009 0.822172
351 1 8.65707 6.69798 2.02786 -0.733084 0.463667 0.70759
352 1 0.906763 8.67933 5.98687 -0.762217 -0.578241 -0.326655
353 1 0.466191 2.57458 4.06116 0.188757 -1.08818 0.120033
354 1 2.02721 6.80862 8.06317 0.308356 0.0155961 0.521603
355 1 0.415811 6.30671 0.441423 0.204962 -0.180973 -0.906676
356 1 5.83951 4.68804 7.35133 0.108809 -0.107494 -0.127302
357 1 0.0856967 2.57841 0.0827287 0.424857 -0.482751 -0.0337252
358 1 6.39603 6.58753 4.11088 -0.153603 0.695324 -0.567686
359 1 4.20935 6.05452 7.45116 0.197219 -0.956414 2.1018
360 1 2.60359 4.14342 1.84547 -0.0563876 -0.975048 -0.432008
361 1 5.28949 1.76179 3.66421 1.55187 0.397229 0.730279
362 1 5.05251 2.80447 3.0549 0.991656 0.518263 -0.0648808
363 1 6.77912 4.55679 1.65385 -0.357986 -0.488857 -0.702528
364 1 1.53647 3.24459 7.51517 -0.25569 -0.805085 -0.650815
365 1 0.782016 2.17642 0.77731 0.997936 -0.617986 0.724641
366 1 5.42471 8.36281 2.19533 1.08916 -0.425408 0.221061
367 1 1.15895 4.30705 0.958558 -0.288392 -0.391125 -0.650871
368 1 3.05469 8.93452 5.36507 -0.481176 0.712059 -0.24255
369 1 8.48278 6.23553 9.02334 -1.21924 1.91671 0.554803
370 1 5.94178 0.69109 8.23035 0.785022 0.0207041 1.21758
371 1 3.51264 5.89361 4.93189 0.703846 0.222832 0.145808
372 1 2.85554 2.39524 8.33254 0.600265 0.4037 0.0114152
373 1 6.1382 6.39537 1.14007 -0.338103 0.451734 -0.243626
374 1 0.166547 6.81569 6.1279 0.883703 0.4343 -0.203152
375 1 5.17985 6.22032 6.92084 -1.52923 0.275919 0.625434
376 1 3.65788 0.790807 7.04606 0.89831 -0.548647 0.355136
377 1 1.33201 8.4826 7.71989 1.33562 0.717262 0.356363
378 1 4.47163 1.73042 1.86746 -0.238739 -0.908341 0.946012
379 1 6.37191 3.77361 4.02335 -0.341446 0.0942819 -0.618255
380 1 6.08729 5.80604 6.28262 -1.17049 0.36608 -0.295416
381 1 4.44452 9.07696 2.17104 1.20207 0.116878 -0.172278
382 1 5.38855 6.54055 3.98368 -1.0005 0.189694 -0.110561
383 1 0.523648 8.27612 6.94124 0.273335 -0.207029 -0.2333
384 1 3.33873 8.64382 3.40903 0.687254 -0.182755 -0.514809
385 1 4.1086 7.78204 9.14287 -0.38989 0.442263 -0.918422
386 1 0.591575 4.57109 7.03816 1.06892 -0.740797 0.856777
387 1 9.22507 9.24296 3.80594 0.0382945 -0.622885 -0.950599
388 1 7.41895 1.70201 1.4469 0.320495 -0.505603 -0.0409491
389 1 6.34481 2.71213 4.95028 -0.408058 -0.00798949 0.188726
390 1 2.61854 5.13984 3.26306 -0.333149 -0.303659 -0.412204
391 1 7.2984 9.05897 9.33563 -0.318874 -0.0650146 0.0186361
392 1 3.76139 1.90661 1.1301 0.222085 0.46346 0.812019
393 1 1.68703 5.80852 0.597083 0.255704 0.88605 -0.917482
394 1 7.53181 3.47303 1.4326 0.829274 -0.491033 0.380967
395 1 0.207858 0.0769597 8.58638 -0.498064 -1.56842 -0.81779
396 1 2.62754 2.24442 2.91118 -0.678355 0.630524 -0.863341
397 1 5.72586 3.7862 0.259564 1.69065 -0.927589 0.104582
398 1 9.10684 3.68902 2.68528 -1.23168 0.178129 -0.0787029
399 1 7.00182 2.24966 3.16473 0.571796 -0.212465 1.08065
400 1 1.96063 7.56572 2.5346 -0.461253 -0.321189 -0.451702
401 1 4.06765 1.80904 5.97928 0.531534 -0.256596 -0.658425
402 1 0.693597 5.23781 0.656425 0.924942 0.916365 1.07318
403 1 3.37158 5.10235 1.26577 -0.466144 0.0015519 1.24492
404 1 8.462 5.02076 7.27797 -0.737992 -1.39401 -1.09284
405 1 4.25798 4.36144 5.65346 0.323722 -0.840706 -0.468888
406 1 8.23701 0.23963 0.335826 -0.0409961 -0.606953 0.0516596
407 1 6.74616 9.12662 7.42412 -1.16796 -0.582512 -0.55805
408 1 1.47131 3.70615 0.0880187 0.206748 0.00072293 1.03771
409 1 3.60527 4.02589 4.91686 -0.926315 -1.55805 -0.269261
410 1 0.164584 2.08532 7.53149 0.733918 0.768066 0.49751
411 1 7.36267 8.34269 4.46106 -0.758336 -1.19914 -0.293361
412 1 0.914306 8.76026 3.63029 0.922115 -0.318626 -0.850375
413 1 1.53926 6.97096 1.65653 -0.472803 -0.0106508 -0.764234
414 1 5.1612 2.17198 9.30529 1.38441 -0.145306 -0.486765
415 1 9.28268 0.302739 0.650454 0.118132 1.17772 0.0275816
416 1 8.77609 1.79927 0.3616 0.838351 -0.0309578 0.252926
417 1 0.206373 5.36321 4.87818 -2.02662 0.528929 -0.114855
418 1 3.48746 1.85824 4.74343 0.881663 0.022342 -0.371907
419 1 6.71534 2.79186 2.2545 -0.330116 -0.36322 -0.515237
420 1 0.869078 3.40697 4.63045 -0.688647 1.23097 0.530563
421 1 6.1787 6.74696 5.23297 -1.47754 0.89718 -0.543192
422 1 9.24545 2.39691 5.60627 0.0950895 0.797562 -0.0249076
423 1 0.182203 4.57326 4.20169 -0.046309 -0.0936798 0.601411
424 1 4.96254 8.02711 3.15442 -0.984954 0.514318 0.625057
425 1 1.54275 2.73572 5.79966 -0.0760292 -0.575783 -0.833945
426 1 5.09337 0.224821 7.82903 -0.465338 -1.04685 -1.60531
427 1 8.16579 3.07194 7.42162 0.809659 0.281022 -0.297239
428 1 2.46721 8.23944 7.06302 0.890139 0.628112 0.956432
429 1 6.54 0.612103 2.50352 0.0143237 0.216023 -0.504069
430 1 6.11943 4.08707 5.23362 -0.114024 -1.36412 0.211972
431 1 8.60861 3.38403 6.57183 1.09876 -1.45127 -0.350208
432 1 4.9712 8.0639 7.38515 1.62673 0.823002 -0.395115
433 1 2.93467 7.81529 5.37163 -0.576627 -0.464708 -0.777291
434 1 7.50846 7.75602 0.694431 0.525658 0.495639 0.397324
435 1 0.779788 3.18495 0.731601 -0.132357 0.673293 -0.805844
436 1 9.0373 6.90366 0.214587 1.11055 0.548544 -0.738983
437 1 6.71174 6.90681 1.9568 -0.0320105 0.0640423 1.40233
438 1 1.85033 7.35317 9.19248 0.896085 0.415335 -0.908367
439 1 3.39697 7.55312 3.72321 -0.390473 -0.119048 1.03702
440 1 7.44237 6.48544 3.59199 1.54948 0.621708 -0.0994341
441 1 5.28647 1.514 2.65126 -0.439771 -0.571673 -0.197385
442 1 5.10579 3.70238 5.56807 -0.555167 0.859184 -0.114188
443 1 2.23415 6.8986 0.691371 0.108711 -0.0281261 -0.682933
444 1 0.507711 6.59072 3.36056 0.164443 0.087823 -0.340487
445 1 6.15185 1.84541 0.183894 0.605338 1.09283 -0.464556
446 1 8.18663 2.76247 5.7601 0.164271 0.495718 0.510121
447 1 1.05039 4.99834 2.79446 0.514685 -1.32701 0.693543
448 1 7.56234 8.43945 8.28318 -0.197978 -1.29434 0.745194
449 1 3.25652 1.89855 9.41162 0.45629 0.122999 0.576876
450 1 4.61197 5.61273 8.20617 -0.288493 -0.476609 -0.216406
451 1 4.85538 8.7242 8.24161 0.628054 1.53961 -0.151642
452 1 3.28334 8.02845 8.59258 -0.650672 -0.10492 0.444707
453 1 4.07673 8.78238 6.88008 -0.280664 0.537586 -0.352205
454 1 4.02318 9.34706 7.86292 -0.0738443 -1.34588 0.0787452
455 1 8.67985 5.06673 4.44825 0.34717 -1.45592 0.149373
456 1 8.99998 4.59583 5.34959 -0.0111133 0.639345 -0.474891
457 1 5.30339 8.145 8.94345 0.637603 -0.778852 0.302969
458 1 2.54596 6.29038 3.2493 0.61772 -0.176467 -0.29045
459 1 8.63119 3.9633 1.16797 -0.118 0.762297 -0.430878
460 1 7.53172 3.18658 6.48805 -1.43201 -0.0173119 0.0977009
461 1 8.23843 3.36929 2.23184 -0.363529 0.609285 0.117465
462 1 3.42334 7.87382 1.63543 -0.700646 0.569018 0.624497
463 1 4.21783 2.08842 0.181711 0.575044 -0.642191 -1.41663
464 1 9.10841 3.79566 8.22817 0.409361 0.861522 0.738727
465 1 2.09158 9.17351 7.50148 -0.169745 0.665518 -0.270842
466 1 3.46572 0.357559 8.68449 -0.354081 0.506831 0.102518
467 1 5.29219 2.44512 1.89805 0.85811 0.809414 0.0407241
468 1 7.87836 9.06911 5.2286 -0.521433 -0.184226 -0.149418
469 1 7.34975 2.55084 4.93536 -0.583683 -0.574721 0.237004
470 1 9.14921 3.04898 7.3361 -0.836309 -0.201327 -0.838128
471 1 5.72762 0.832042 6.01137 1.04471 -0.0452694 0.39752
472 1 8.0937 3.15819 4.72112 -0.492179 -0.342202 -0.645372
473 1 5.4711 2.09715 0.880944 -0.242336 0.386016 -0.692301
474 1 8.6997 8.66081 3.17203 0.304421 -0.579032 -0.937499
475 1 3.24526 1.72236 6.65926 -0.35136 -0.913986 -0.602313
476 1 9.33261 1.1178 8.12381 0.948847 -0.733142 0.151891
477 1 2.96945 0.0505858 0.776043 -0.493523 1.18366 -0.661625
478 1 2.87917 0.351967 1.86886 0.0411401 -0.31154 0.0288615
479 1 1.68053 2.75927 2.64899 -0.229019 -0.287421 -0.800628
480 1 6.96487 2.15315 8.17911 -0.287071 -0.109891 -0.585453
481 1 3.30257 6.85127 1.85306 -1.51887 1.40316 1.89077
482 1 2.87018 5.52002 4.19042 -0.64414 -0.0465219 0.477571
483 1 6.00812 5.92116 3.31156 -0.259198 -0.045196 -0.0998109
484 1 5.51909 0.627575 7.02643 0.799737 -0.701063 0.980012
485 1 5.51282 6.4419 8.43754 -0.621963 0.141985 0.33138
486 1 0.230963 2.82562 2.97747 -0.647052 -0.907353 -0.393868
487 1 9.01868 4.43573 3.33059 0.287292 0.216459 0.831774
488 1 8.34568 5.93133 3.94834 -0.110619 1.25657 0.805321
489 1 2.5119 1.51072 1.9288 0.875088 -0.0327249 0.0239213
490 1 5.22666 7.96728 4.36004 0.540765 -0.255306 -0.494968
491 1 8.32395 8.91621 4.19993 0.566223 -0.66179 0.855383
492 1 8.72309 6.69362 7.53103 0.32685 0.261786 0.025799
493 1 5.96001 1.69363 8.55623 -0.437159 -0.841138 0.496667
494 1 7.85987 2.6427 3.87089 -0.324152 -0.808651 0.27207
495 1 4.09291 3.57845 1.32197 1.01192 -0.105791 0.0549728
496 1 1.69977 1.7963 5.24529 -0.207957 -0.424207 1.01028
497 1 1.83051 0.59132 8.95654 -1.28582 0.0775487 -1.2174
498 1 7.68001 0.545528 1.28387 -1.6288 -0.88435 -0.159907
499 1 3.29869 2.89524 4.86806 -0.023597 -0.591485 -0.567406
500 1 5.72841 6.39482 0.0541245 0.518475 -0.640316 -1.67283
501 1 5.14417 7.4323 6.39179 -0.441634 -0.165362 -0.0634413
502 1 1.67066 3.88025 2.81145 -0.320388 0.316728 -0.66651
503 1 5.19073 6.45371 5.8112 0.501886 0.956754 -0.569805
504 1 5.23363 9.08966 2.88067 0.274624 0.924263 0.605674
505 1 7.41005 6.14039 8.6164 -0.113352 -0.418997 -0.292996
506 1 1.88456 7.46422 5.57627 0.745478 -0.988769 -0.783477
507 1 6.84557 9.36977 8.52037 0.334883 0.540337 0.816098
508 1 4.17879 7.08787 1.49533 -0.112047 -1.68499 1.19228
509 1 8.34493 1.06572 7.79717 -0.20721 1.11628 -1.11943
510 1 1.60567 1.37406 4.20468 -0.737259 -1.6982 -0.241298
511 1 7.08827 5.24547 6.25145 0.741597 1.31329 1.0192
512 1 8.33817 7.68047 2.76033 -0.479702 -0.104435 0.35507
513 1 2.24877 7.3379 4.5924 0.187345 -0.94697 -0.624127