ITEM: TIMESTEP
78240000
ITEM: NUMBER OF ATOMS
1000
ITEM: BOX BOUNDS pp pp pp
0.0000000000000000e+00 9.4000000000000004e+00
0.0000000000000000e+00 9.4000000000000004e+00
0.0000000000000000e+00 9.4000000000000004e+00
ITEM: ATOMS id type x y z vx vy vz
1 1 5.80894 6.26265 2.14897 -0.219674 -0.0241667 -0.0710555
2 1 3.21405 4.7813 0.61915 -1.29971 0.0331178 1.95212
3 1 1.99184 2.07087 5.00688 -0.0720397 0.291824 -1.14129
4 1 2.42757 5.40785 0.215629 -0.691729 0.121773 1.70016
5 1 9.07329 0.874241 3.17351 -1.46165 0.0577006 0.422935
6 1 4.62677 6.79049 5.45511 0.579147 0.310666 -1.68614
7 1 6.00359 5.72014 6.16057 1.66481 -0.245861 0.757665
8 1 0.449137 3.29656 6.37191 0.0744456 0.362234 0.198022
9 1 8.20757 5.27191 5.64147 0.781747 -0.575296 0.154789
10 1 1.43974 5.02534 0.305052 0.175411 0.453268 -0.55472
11 1 5.17283 0.383336 4.28591 -0.0908533 -0.636505 0.0861106
12 1 7.18367 1.53979 8.51351 0.982252 1.16202 1.08989
13 1 8.5828 8.86644 6.99163 0.175423 0.316117 0.666944
14 1 3.9045 3.19339 7.39749 0.146786 -0.981956 0.334064
15 1 1.29979 8.55904 0.11813 0.0513624 -0.595616 0.126462
16 1 9.2584 0.363399 8.4669 0.860811 1.21017 -0.334944
17 1 7.8297 2.56911 2.13434 -0.123021 -0.586562 0.618462
18 1 4.66475 8.71753 5.83682 0.851355 0.123916 -1.285
19 1 6.18447 7.04843 1.38119 0.152442 0.618547 -0.16915
20 1 7.54708 2.84782 0.0479302 0.302801 -0.909158 0.933692
21 1 8.25172 4.44456 8.49614 -1.33541 -0.410513 0.0428675
22 1 9.01571 0.107855 1.32093 0.132693 -0.0447918 -0.778871
23 1 7.32679 0.728485 9.23215 0.633264 0.375716 -1.43582
24 1 8.28378 5.49987 8.10652 0.387306 1.18182 0.0272049
25 1 6.07463 9.34365 2.91355 -0.270878 -0.219209 1.01568
26 1 4.53682 1.25623 4.50426 -0.0825162 0.654542 0.238469
27 1 2.98544 2.43224 7.55759 0.616848 0.28217 -0.0810936
28 1 5.46127 1.33445 1.89996 -0.161307 0.433547 0.036324
29 1 9.30714 3.81431 0.785792 -1.16125 -0.34006 0.42914
30 1 0.113891 3.87537 3.66749 -0.277114 -0.790791 0.117368
31 1 1.58824 1.71217 0.701717 1.06826 -0.355997 1.66467
32 1 4.17046 4.72714 6.2971 0.454145 -0.483036 -0.286492
33 1 5.12374 0.998595 9.08729 -1.47138 -1.09755 -0.016589
34 1 5.81878 9.10861 1.87788 0.758213 -0.352482 0.124867
35 1 2.53274 4.13127 4.58197 0.453729 -0.433988 -0.623866
36 1 3.75253 0.924667 3.03764 -1.31691 -0.559331 0.396393
37 1 6.62448 4.39174 0.208411 0.512294 -0.57264 0.562295
38 1 0.986668 0.859701 0.318795 0.586002 -0.221279 -0.503406
39 1 6.88401 0.164812 2.04588 0.561445 -0.688292 0.882672
40 1 1.88133 0.107864 7.85379 -0.0564732 -0.431701 0.845647
41 1 5.1138 0.873116 7.13742 0.417474 -0.704246 -0.420558
42 1 1.56733 8.94152 3.86723 -1.38901 -0.23317 -0.232254
43 1 4.51911 0.164761 7.75274 -0.321449 0.00963207 -0.546002
44 1 2.72928 0.364041 5.83463 0.433709 0.7419 0.55446
45 1 1.076 0.270881 5.40214 0.270672 0.012711 -0.328992
46 1 0.916398 5.26383 1.80966 0.111672 -0.548417 -0.285676
47 1 0.330926 0.56641 1.90214 -0.991337 0.282011 0.277587
48 1 4.67454 8.7662 4.45969 -0.474945 -0.200741 -1.25001
49 1 1.35861 3.6534 5.9484 1.12989 -0.703022 -0.64775
50 1 8.086 2.68633 4.07955 0.257428 -1.11155 -0.395521
51 1 7.09254 5.35226 3.52634 0.21585 -0.800057 1.02852
52 1 4.7373 7.81232 2.24501 0.226419 -0.243906 -0.178474
53 1 2.98753 8.64284 6.67879 0.126169 1.43419 -1.29152
54 1 7.94541 0.390202 6.88179 -0.948384 -0.764121 -0.573358
55 1 1.41697 5.58216 3.87868 -1.1179 0.64827 1.18276
56 1 2.09499 6.73916 4.67616 0.227822 -0.92482 0.473919
57 1 3.47173 5.38296 5.74716 -0.195429 1.0778 0.263365
58 1 6.10474 4.78208 2.59529 -0.840068 0.500929 -0.673195
59 1 6.93187 8.45854 7.19914 0.674293 -0.352797 0.0851916
60 1 1.31247 0.490512 4.32659 0.743636 -0.823679 -0.851076
61 1 3.04313 7.58361 3.03387 0.663459 0.926904 -0.131053
62 1 7.65371 1.74851 1.37704 -0.153841 0.380894 -0.920904
63 1 8.53434 3.70657 3.94573 -1.00026 0.401773 0.799391
64 1 8.66765 8.76958 0.703608 0.504725 1.4786 0.543283
65 1 8.63428 1.76498 3.49466 0.664547 -0.0912867 -0.798459
66 1 3.17591 3.2546 8.16462 -0.593469 -0.616768 -0.339925
67 1 8.03292 8.70294 8.69732 0.348151 0.761146 0.661688
68 1 4.96497 5.56399 0.853414 -0.457719 0.353686 -0.145245
69 1 6.98211 7.65123 1.67347 0.811257 0.316999 -0.744288
70 1 7.16631 4.79864 2.67025 0.397392 -1.07955 0.404037
71 1 7.81071 0.980626 7.76965 0.572612 0.255056 1.76463
72 1 4.5364 2.80752 1.54403 0.285596 0.682306 0.146739
73 1 3.81682 6.99601 3.60071 0.857356 -0.514774 -0.0732795
74 1 3.72867 1.47444 2.06451 1.0761 0.571647 -0.190166
75 1 6.01554 2.86994 0.783034 -0.574672 0.206909 -0.941996
76 1 8.15247 7.00843 9.32109 0.371526 0.479167 -0.200756
77 1 8.4135 3.24601 4.96308 0.251458 -0.897132 1.06792
78 1 1.69903 7.68935 1.42585 -1.3876 -0.0724854 0.792419
79 1 6.03984 9.21628 8.11223 -0.382316 0.694944 -0.446468
80 1 0.775848 0.960096 8.59809 -1.46688 0.357692 -0.204471
81 1 3.72018 6.4289 7.88265 -0.6467 0.539397 -1.32583
82 1 5.0408 0.141369 2.55385 -0.689681 0.949928 -1.8952
83 1 3.31752 5.59932 4.705 0.0174175 0.0192641 -0.421822
84 1 1.30455 4.71755 5.52354 -0.0303494 0.220234 1.33713
85 1 3.78008 2.47686 8.34333 0.0637507 -1.42934 -0.422788
86 1 2.47134 3.96902 7.6114 1.27384 0.647696 0.434598
87 1 1.92426 2.92945 3.38136 0.261197 0.462128 -0.594598
88 1 0.0764407 1.47076 1.26663 -0.0539138 0.395163 0.202834
89 1 6.68705 4.3626 1.81581 0.246775 0.430488 -0.63677
90 1 6.4352 5.85432 2.89866 -0.488723 -0.651601 0.590792
91 1 0.504189 6.98246 3.07263 -0.924107 -0.289846 0.999583
92 1 8.13279 0.253723 8.52926 -0.0963425 -0.0418031 -1.11489
93 1 4.00499 0.590339 6.97847 0.708089 1.06344 0.406686
94 1 1.70382 5.71279 5.14185 -1.15189 -0.283101 0.16577
95 1 7.76301 7.74187 4.3577 -0.275676 -0.29636 1.42156
96 1 7.08324 6.60086 6.94846 0.222994 -0.470785 0.401615
97 1 1.34407 6.21527 2.03525 -1.5162 -0.0354649 0.653445
98 1 5.95467 9.19264 0.81286 0.714288 0.107993 -0.0630041
99 1 6.72121 8.44406 6.03003 0.0370305 0.526151 -1.21046
100 1 7.02548 8.73932 0.196726 0.486319 0.277298 0.397314
101 1 5.7453 4.63731 8.9506 0.299687 1.33748 -0.869526
102 1 2.22635 3.73154 2.10037 -0.186982 -0.152201 -1.08597
103 1 4.51136 7.17185 6.39658 -1.04627 -0.738435 0.94635
104 1 4.74695 6.54674 4.0065 -1.06349 -0.383712 1.63995
105 1 0.625961 8.92786 4.60766 -1.39145 -0.647107 0.0140751
106 1 9.0491 2.65781 6.40598 0.269912 -0.36873 0.885653
107 1 5.22108 6.28108 3.11834 0.382858 0.714426 -0.213881
108 1 7.77258 9.0354 4.79107 -0.852692 -1.83178 -0.651753
109 1 8.52394 0.922983 9.31747 0.991187 1.95734 -0.166758
110 1 8.53023 5.19368 9.38171 -0.911132 0.46312 -0.168779
111 1 7.71081 8.73124 6.43234 -0.353617 -0.513564 0.115499
112 1 6.99313 2.34836 0.774796 0.125671 0.342235 0.566644
113 1 2.94796 3.93866 1.30661 1.28784 0.776268 -0.103662
114 1 4.3239 4.05196 2.58204 0.102592 -2.07317 0.856612
115 1 5.76803 9.3772 5.18395 0.456028 -0.196901 -0.575355
116 1 5.90705 1.62605 8.99769 1.04336 -0.158522 0.782338
117 1 7.81575 9.0418 7.7434 -0.0156514 0.58308 -0.855217
118 1 7.39292 3.18908 8.42563 0.850174 -0.772304 0.826414
119 1 4.49219 1.58851 6.75257 0.654021 -1.1061 0.339093
120 1 1.97512 8.39902 7.28986 -0.429587 -0.288779 0.121307
121 1 3.8012 -0.0100561 5.85934 0.891477 -0.71745 -0.774543
122 1 2.72247 8.78467 4.1007 0.322844 -1.43495 -0.647962
123 1 3.03769 4.79333 7.7764 -1.01701 -0.0858392 0.119923
124 1 0.345284 0.639085 4.7039 -2.21049 -0.548555 1.13465
125 1 6.14289 5.03817 5.30826 0.317949 2.61764 0.975625
126 1 6.09513 3.284 3.53065 -0.310727 -0.355879 -0.523764
127 1 4.72346 0.175285 5.12481 -0.665732 -0.255276 0.449663
128 1 6.68211 5.6554 7.04705 0.323214 0.189765 -0.947578
129 1 0.810867 9.19098 8.28461 0.11556 -0.156721 0.626002
130 1 2.08876 1.26626 2.67751 -1.37026 -0.640177 -0.660497
131 1 8.54577 3.01757 0.672586 0.126872 -0.0859105 0.483427
132 1 0.221143 8.81878 1.86081 -0.506552 -0.685082 -1.59426
133 1 5.59461 1.00513 2.94582 0.223368 1.19093 0.910713
134 1 8.67661 6.21149 8.83195 0.271119 0.465382 0.483262
135 1 8.23864 6.68509 4.38038 0.850764 1.06434 -0.3086
136 1 6.88921 0.00769939 6.6005 0.26366 0.0798554 0.0462639
137 1 2.52517 5.60922 6.28157 0.496375 1.31363 0.427466
138 1 3.92875 8.05045 8.75979 0.810026 0.620074 -0.668525
139 1 0.936928 0.60047 7.57701 -0.169688 -0.254083 -0.925068
140 1 0.00710437 5.23705 1.46902 -0.830297 0.451123 -0.82488
141 1 3.36474 9.01806 2.61599 -0.37543 -0.272089 1.27616
142 1 4.96147 8.12106 8.58065 0.0387007 0.289714 1.77634
143 1 4.77507 3.87125 9.16735 -0.082295 1.14777 1.19225
144 1 2.07631 1.81637 3.53372 0.411409 1.59658 0.358582
145 1 7.4297 5.00072 8.69427 -0.49664 -1.11758 0.894224
146 1 4.09336 0.851391 1.12916 -0.506339 0.00137883 1.38089
147 1 5.9758 4.90997 6.9547 0.0468983 -1.21339 -0.535514
148 1 1.96826 7.46685 5.54539 -0.220835 -0.325931 0.148802
149 1 3.178 9.33232 5.01532 -0.464111 -0.556026 -0.131701
150 1 0.0529255 7.86789 3.41653 0.786242 -0.347073 -0.590147
151 1 7.24223 9.30468 5.65023 -0.252905 -0.27923 1.40778
152 1 5.89762 7.94899 6.95997 -0.495745 -2.23268 -0.56911
153 1 4.02688 5.74456 8.64766 -0.654062 -0.168145 0.667418
154 1 4.51858 6.51791 1.28467 0.0890223 -0.58119 0.967155
155 1 7.92382 7.26959 5.22721 0.796123 0.78518 -0.131316
156 1 6.15984 7.81003 4.33689 0.97911 0.49553 0.0395347
157 1 6.69059 4.15399 7.29473 -1.11659 -0.599278 -0.147859
158 1 3.27905 6.1098 0.274005 -1.08897 -0.259167 0.118356
159 1 1.812 7.52477 6.51556 0.498188 -0.732831 0.136373
160 1 8.25715 4.57417 7.43092 -0.163562 -1.42908 -0.266667
161 1 0.45301 2.15424 5.929 0.266214 1.34718 0.284009
162 1 0.695228 5.62675 0.829261 0.657912 0.411225 0.936052
163 1 8.30743 0.222023 5.79088 -0.538983 -0.351967 -0.499316
164 1 1.83525 1.00274 7.20239 1.32771 -1.72837 0.674475
165 1 4.17478 5.05747 2.18676 0.339079 -0.863239 0.0269622
166 1 6.76447 5.081 1.04496 0.114584 -0.295304 -0.399281
167 1 2.22688 8.13768 3.43227 0.0430225 0.827093 0.00748855
168 1 7.52172 4.38023 0.921144 -0.647001 -0.612409 -0.554413
169 1 1.35834 5.83789 9.09233 -1.99859 0.175658 0.0151339
170 1 9.14298 2.91687 3.62558 0.412074 -0.0319466 -0.371181
171 1 5.18801 6.72026 0.576045 -0.00463712 -0.642389 -0.2271
172 1 0.861005 5.19667 7.03516 0.520587 -0.0970082 0.778522
173 1 3.95524 4.49015 1.25071 1.44275 0.0722123 0.943606
174 1 5.02514 6.33079 8.92461 -0.135149 0.909323 -0.144399
175 1 6.51198 5.42158 8.80715 0.00497192 0.255527 -0.374935
176 1 4.67973 0.672412 6.14904 0.305058 0.875035 0.34203
177 1 6.94794 6.72776 2.09111 -0.090973 0.967308 -0.741756
178 1 6.78746 2.80406 1.79552 -0.351138 0.228175 -0.846428
179 1 5.52335 4.0075 4.0335 -0.240705 1.22114 1.67039
180 1 1.33033 7.12644 3.71192 0.348045 2.16647 1.34058
181 1 8.32875 5.92505 1.36495 0.285388 -1.97646 0.347914
182 1 1.33049 1.65847 4.25238 0.145598 -0.261617 -0.109267
183 1 2.1662 3.51297 8.81213 -1.65799 1.23574 -0.80383
184 1 6.22443 7.00827 7.40053 -0.406221 -1.95575 0.0274142
185 1 0.107486 8.59706 6.65506 -0.895126 0.170649 0.339537
186 1 1.53839 4.46887 1.95661 0.432954 -0.807637 -4.58576e-06
187 1 0.609659 2.39199 4.12912 0.78744 -0.783234 -0.0595505
188 1 2.10239 7.82643 2.37389 -0.12652 0.122393 -0.274811
189 1 4.25717 7.8765 4.00277 -0.694988 0.234554 -0.447559
190 1 6.24569 6.92372 2.90392 0.442936 0.676517 -0.546302
191 1 4.0821 4.19712 5.4578 -0.141092 1.05317 0.10182
192 1 1.50161 1.52692 9.02875 0.103435 -0.663341 -1.11198
193 1 3.32285 0.349981 0.620993 0.368715 0.950015 0.500155
194 1 8.15982 8.47002 3.92313 -0.0202517 0.497399 -0.0578963
195 1 7.11945 1.83761 2.31493 0.17329 -0.693759 -0.577994
196 1 0.152725 -0.00374817 2.73977 -0.0200035 -1.05827 -0.348881
197 1 5.53126 5.01688 1.684 0.764807 0.456587 0.19252
198 1 8.13237 1.55054 8.63354 -0.128828 0.510906 0.468225
199 1 7.36559 0.881793 6.07986 -0.308924 -0.0855285 0.66623
200 1 2.35881 0.125321 0.182294 -1.25457 0.01382 -0.387826
201 1 5.55544 2.00176 4.77313 0.262367 -0.449172 -1.60805
202 1 2.43168 6.94403 3.60495 -0.103974 0.465267 0.338484
203 1 6.02474 8.98068 6.91948 -0.192982 -0.216918 -0.607885
204 1 6.69207 2.28296 9.16311 -0.0925439 0.452313 0.0170378
205 1 5.8605 0.381191 6.24701 0.839998 -0.102985 -0.666572
206 1 2.20323 9.36483 6.75049 1.36066 0.0452695 0.581881
207 1 6.61715 1.51293 3.33104 -0.151407 0.0717764 0.599789
208 1 0.395567 5.03728 3.54527 1.24025 0.131608 -1.22829
209 1 7.13659 7.52006 6.58239 -0.84958 0.293967 -0.563716
210 1 1.47138 2.58447 6.10429 0.0496496 -1.30743 -0.315488
211 1 7.78285 0.0112267 1.43463 -0.822291 -0.766537 -0.134607
212 1 5.68986 7.05902 3.80026 0.139205 -0.465068 -0.591331
213 1 0.295806 7.04131 4.18566 -1.29679 -0.690301 0.936193
214 1 7.57045 2.07877 3.29763 0.330708 1.21092 -0.348424
215 1 5.43143 5.79082 5.36218 0.781812 0.102295 0.541235
216 1 6.75513 6.4536 5.9263 0.272898 -0.743032 -0.297265
217 1 1.02097 1.43586 6.70668 -0.39018 0.608178 -0.692593
218 1 4.03912 2.83661 3.68972 0.464028 -0.0369381 -0.661457
219 1 7.68172 5.3774 0.67178 0.568648 -0.681686 -0.55839
220 1 0.961314 2.33436 0.22655 -0.473685 0.106552 -0.170022
221 1 6.87078 8.34302 8.2574 -1.37166 -0.258971 0.600498
222 1 4.90065 5.73828 1.98819 -0.723466 0.469657 0.404507
223 1 3.14979 1.56488 8.43774 -0.195936 -1.14182 -0.0122811
224 1 7.23142 5.24827 5.22498 0.56668 0.307984 0.192169
225 1 0.670467 4.35394 6.32471 0.621551 0.575821 0.713498
226 1 3.49195 0.935326 4.1404 -1.00876 -0.401636 1.20387
227 1 8.14831 5.18784 4.59775 0.851078 0.034323 0.237909
228 1 8.99144 0.416823 6.59774 -0.518567 -0.204434 0.462468
229 1 1.65042 2.58137 8.75702 0.254632 -1.05872 0.22362
230 1 5.18937 1.85591 8.14787 -0.472326 -1.44382 -0.639768
231 1 5.9868 7.1404 6.35046 0.0454281 0.35555 1.79234
232 1 2.42015 3.65689 0.508627 0.901946 -0.089439 -0.555843
233 1 8.06265 8.3172 2.91867 0.154951 -0.392899 0.827683
234 1 6.14588 6.7403 0.38523 -0.0623555 0.125339 -0.176056
235 1 6.36255 6.13055 7.90964 0.603995 1.23945 0.637754
236 1 6.40708 3.19214 6.62124 -0.263747 -0.521545 0.0863827
237 1 7.12122 2.15101 4.33211 -0.0268931 -1.17396 -0.422958
238 1 8.18552 3.45707 7.77213 -0.700731 0.648358 -0.569097
239 1 5.17529 7.61108 5.78249 -0.493732 -0.274215 -0.830043
240 1 0.688511 2.03441 8.66666 1.24391 -0.463073 -0.027493
241 1 3.28674 4.30373 2.32608 0.472189 0.567284 -0.486301
242 1 5.77432 3.71873 0.187942 -0.582871 0.200414 0.0921821
243 1 8.83515 7.42878 2.66043 0.449433 -1.0888 -0.582833
244 1 5.84902 4.01985 5.09508 -0.703103 -0.304964 -0.47181
245 1 6.03151 2.16719 3.86937 0.666741 0.826601 -0.811077
246 1 8.18552 1.6421 2.55657 -0.992391 -1.76548 0.54575
247 1 5.55323 3.27636 1.57976 -0.748268 -0.190581 0.0741315
248 1 4.83205 8.11536 6.68899 0.701054 0.395159 -0.479258
249 1 4.56221 4.97566 3.99893 0.615467 -0.249938 0.404509
250 1 4.62889 5.8813 4.7834 -0.414813 -0.631983 0.0865711
251 1 5.43754 2.70893 7.36834 0.742082 0.493969 0.971845
252 1 8.87229 5.90189 4.20165 0.448098 -0.236266 -0.154415
253 1 2.88054 8.26282 1.83457 -0.419036 0.786249 0.330431
254 1 6.49478 1.79424 1.54309 0.267003 0.6632 -0.36942
255 1 6.41586 4.5494 3.55467 -0.0526787 1.14602 -1.06025
256 1 9.17717 4.1786 8.87554 0.0759381 -0.508419 0.120944
257 1 7.629 9.3959 3.79658 -0.837721 1.21906 -1.00782
258 1 2.37454 9.1626 3.17732 0.387219 -0.121088 0.526452
259 1 5.00738 4.86865 5.67181 0.0324742 0.104545 0.193702
260 1 3.60507 3.59215 0.622304 0.143684 0.0382948 0.135763
261 1 0.799935 7.63909 0.147387 0.0178305 1.05003 0.204202
262 1 7.76213 0.913117 0.757154 -0.596216 0.594262 -0.208439
263 1 7.59054 6.29286 5.32823 -0.75581 -0.188127 0.444994
264 1 7.44869 4.87125 6.8818 -0.188533 -0.563118 -0.0350373
265 1 5.05622 2.55692 2.43022 -1.65656 1.36794 1.19354
266 1 0.211918 7.53547 8.59444 0.827132 -0.933787 -0.704735
267 1 5.51342 2.30599 1.56609 0.209172 1.1421 1.04075
268 1 6.15418 0.811247 0.191546 -0.353419 0.202825 1.06451
269 1 1.01861 6.71786 1.1571 -0.174321 -0.00491241 -0.200972
270 1 0.497164 8.73483 5.62666 -0.627294 0.03778 0.902816
271 1 3.43175 6.58632 1.23821 -0.743935 -0.354541 -0.416449
272 1 1.42602 4.25516 8.86434 -0.594228 1.12833 0.530454
273 1 6.52739 5.47388 1.94782 0.103706 1.34106 -0.183986
274 1 4.13127 3.63855 8.29254 0.690103 0.935444 -0.329054
275 1 6.07196 8.12936 1.37479 -0.0234641 -0.316984 0.0130441
276 1 7.47481 8.45675 2.05867 -1.10246 0.486974 -0.513979
277 1 5.04078 8.98989 3.58871 0.554011 -0.174408 -0.386024
278 1 2.43963 2.52314 5.86044 -1.05698 -0.111564 0.589972
279 1 0.66768 4.44904 1.08812 -0.910554 0.424627 -1.08466
280 1 2.75153 0.979834 6.79926 -0.0344622 0.489225 -0.965671
281 1 6.41121 8.40558 2.27758 -1.59046 -0.235163 -0.115971
282 1 1.79153 0.581955 3.35849 -0.171156 1.32715 1.07323
283 1 9.20554 7.76717 5.79783 1.29281 -0.331653 0.318175
284 1 7.35801 5.87587 4.4475 0.35887 0.105001 -0.383488
285 1 7.71868 0.657455 4.96097 0.684553 -1.57556 -0.740024
286 1 1.72811 0.744434 6.07458 0.233982 -0.598967 0.493547
287 1 4.32782 8.21452 7.55388 -0.108069 0.146354 0.768681
288 1 1.24212 7.26894 2.28065 -0.663267 0.269099 -0.462358
289 1 6.03201 1.88274 0.62553 1.85681 0.318554 0.307611
290 1 3.89388 5.41681 7.63838 0.782637 0.342158 0.631268
291 1 6.72761 5.01618 7.84379 -0.457369 -0.491027 0.0174099
292 1 4.10572 4.32964 7.38466 0.370744 -0.223894 -0.0570742
293 1 0.168917 3.65336 2.61279 -0.485805 -0.159669 -0.239725
294 1 0.23487 3.27359 7.46802 0.229746 -0.506489 -0.471691
295 1 5.96149 2.97551 5.63917 0.510144 0.213923 0.17905
296 1 7.86047 6.88901 1.06746 -0.118848 0.221767 0.976298
297 1 8.66438 6.21362 5.25489 0.214733 -0.540728 -0.450279
298 1 2.13267 5.01918 7.12295 -0.689811 0.665885 -0.409723
299 1 2.3627 0.323277 4.257 -0.969109 0.0490448 -0.850787
300 1 0.789314 2.2682 1.26423 -0.0666836 1.0962 0.410933
301 1 5.26803 8.56156 0.0421602 -0.450303 0.352359 -0.266433
302 1 6.17969 0.58049 3.72504 -0.0896869 0.0698314 -0.243783
303 1 3.63958 1.75182 4.85568 0.857519 0.524749 -0.00473289
304 1 0.559811 6.11732 7.45151 0.375735 0.139096 0.425308
305 1 3.12888 0.0792438 7.34254 0.341846 -0.367409 -0.532217
306 1 1.20879 9.08375 2.86279 -0.61372 -0.410904 -1.47418
307 1 5.61862 8.52257 6.0988 1.00485 -0.310576 0.940003
308 1 2.86884 7.90975 8.61939 0.172362 0.254841 -0.809005
309 1 7.90782 5.75071 7.1205 0.933318 0.974634 -0.580135
310 1 8.94707 6.70464 3.51215 1.34083 -0.814998 0.0123793
311 1 8.8008 7.77698 0.615516 0.317421 0.398889 0.0889047
312 1 5.9225 5.96464 1.11154 -0.372093 0.116627 -0.0827273
313 1 6.64974 6.46539 3.97141 0.0439549 0.409463 -1.23951
314 1 8.15458 2.87846 3.07406 -0.217345 0.951407 -1.35993
315 1 3.28894 3.93293 6.90502 -1.89066 0.661579 0.650239
316 1 9.20715 5.19137 8.54468 0.282253 -0.271069 -1.50551
317 1 8.98287 5.90689 2.12165 0.474722 1.10551 0.374876
318 1 8.76881 4.3752 2.9944 -0.546616 0.357195 0.130489
319 1 3.62593 2.05628 2.88381 0.169039 0.188505 0.234449
320 1 5.28648 6.42757 6.33087 -0.771691 1.54805 -1.11574
321 1 0.671047 4.08587 0.0512856 -0.126225 -0.139184 -0.0379109
322 1 2.05416 9.1644 5.31555 0.27147 -0.692497 0.086483
323 1 1.55807 2.19052 2.70934 -0.675191 -0.0743408 0.194232
324 1 2.03418 6.17565 8.35143 0.0182255 0.742489 -0.0345736
325 1 7.94251 8.26246 0.25078 0.341905 -0.653327 -0.186198
326 1 4.21767 1.78737 3.60763 -1.40644 -0.520601 1.17799
327 1 3.57352 2.49889 1.87466 0.261893 0.442932 -1.38554
328 1 7.57211 3.60966 4.44716 -0.200898 0.575828 0.190425
329 1 9.33892 0.629884 0.590557 -0.611487 -0.357576 -0.869929
330 1 3.14365 3.28874 9.17104 -0.671089 -0.580871 -0.31895
331 1 1.98451 0.979884 5.09719 0.368702 -0.156022 0.863916
332 1 2.66143 1.52089 4.50274 0.0249943 -0.214177 -1.71117
333 1 1.47363 2.85968 1.74169 -0.847114 0.362556 -0.449651
334 1 3.02924 6.69735 6.14992 0.141164 0.528325 1.488
335 1 0.763759 6.54051 0.201966 -0.0669212 0.736717 0.798039
336 1 5.70333 5.32953 3.39385 0.136314 0.533274 -0.26129
337 1 8.03157 0.844105 3.23923 0.926584 0.0869297 -0.0801941
338 1 5.84493 1.66919 7.38478 -0.0370874 0.352942 -0.205344
339 1 5.99097 6.25131 8.893 0.162888 -0.801203 -0.562039
340 1 2.80353 7.76856 6.06434 0.900194 0.958241 -0.14246
341 1 7.12382 7.50233 7.66985 0.806889 -0.311223 1.00634
342 1 9.40068 1.01807 7.60495 0.776972 -0.226202 -0.625933
343 1 7.98906 7.32312 3.39437 0.980933 0.274129 -1.14769
344 1 1.16449 3.14701 7.03891 0.299382 -0.102146 -0.47743
345 1 6.40415 7.72122 5.40342 0.992745 0.590066 -0.479952
346 1 0.802355 3.25339 0.843279 -0.237622 0.779197 -1.52419
347 1 7.33839 5.85646 8.05091 0.721916 -0.788074 1.24761
348 1 6.43921 1.3398 6.5807 0.21255 -1.51525 -0.458453
349 1 4.01473 2.63837 0.700567 -1.01128 0.579006 0.549874
350 1 1.00842 2.73563 5.20006 -0.677393 0.424416 0.663883
351 1 6.14973 9.26603 9.14104 0.569656 0.492126 -0.677676
352 1 4.48909 6.26332 6.89965 0.266416 1.23486 0.772006
353 1 8.94635 4.73566 4.09869 0.356755 0.695044 1.45188
354 1 2.17486 6.56455 7.024 0.595747 -0.476991 -0.723104
355 1 0.307566 7.84228 2.34196 0.014165 0.118161 -1.21724
356 1 7.02839 2.3777 7.9558 0.0588395 0.962225 0.824278
357 1 0.687194 5.44754 4.56812 0.116127 -0.0383392 0.755797
358 1 4.80838 2.45855 6.22338 0.862571 -0.54023 -1.61015
359 1 2.20479 6.35229 9.40728 1.10744 0.997507 0.226436
360 1 4.3624 1.62555 0.428248 0.301748 0.049607 -0.326587
361 1 8.78471 1.12087 5.03004 0.219179 1.13611 -0.256088
362 1 2.45949 1.95954 0.158085 0.0464406 0.10538 -0.145368
363 1 9.41075 4.7852 0.42669 -0.0999827 -0.251525 -0.716124
364 1 9.15029 1.42628 2.28458 0.0125947 0.618024 -0.224165
365 1 4.83033 5.12937 9.14682 -2.2356 -0.139473 -0.169233
366 1 5.0807 0.294888 1.49397 0.652638 -0.311214 -0.635204
367 1 1.57366 4.1977 6.89372 0.411065 -1.06275 -0.12151
368 1 3.11533 5.18287 3.74478 -0.537104 0.241174 0.457285
369 1 9.11942 8.00223 1.53106 -0.697061 -0.792987 -0.0481134
370 1 2.39387 8.44275 0.325146 0.671705 0.350179 0.663818
371 1 0.680631 0.523503 3.43635 0.517591 -0.688116 -0.992793
372 1 4.81519 4.26399 4.73615 -0.500263 -1.08189 0.245419
373 1 6.61688 4.10747 8.53728 -0.227296 0.487774 -0.962686
374 1 8.73803 0.417865 2.28457 -0.820771 0.186861 -0.246864
375 1 3.9416 7.54266 1.44348 1.26028 0.868911 0.268742
376 1 3.12297 4.20097 8.64362 0.732993 -1.08071 0.164188
377 1 3.55437 7.07072 8.75095 1.5607 -0.347602 0.0147509
378 1 4.12433 6.28467 2.92527 0.854484 0.0336268 0.42722
379 1 7.59976 5.13106 1.66595 -0.465325 0.703982 -0.159483
380 1 8.8445 3.58871 5.81749 0.59398 -0.158804 0.143809
381 1 3.59135 2.14831 5.75729 0.804854 -0.640873 -0.177921
382 1 3.55759 8.40081 5.69402 0.22187 -1.68599 0.833318
383 1 1.68367 7.04715 0.500894 -0.847471 -0.39871 -0.526658
384 1 5.28896 8.07881 3.84247 0.756802 0.120681 -0.0733148
385 1 4.92309 4.43331 0.718179 -0.422861 -0.701937 0.737028
386 1 8.80425 7.62965 4.18446 -0.646436 -0.38224 -1.01505
387 1 0.742851 3.66208 1.79866 1.40007 0.215067 -0.339364
388 1 5.10578 9.3427 8.54752 -1.42579 0.460475 -0.505007
389 1 6.11301 0.581337 7.26053 -0.718451 0.188364 -0.311366
390 1 3.61207 6.36669 5.3637 0.303807 0.543482 0.439218
391 1 9.17163 8.58997 4.20249 0.610337 -0.931236 -0.378464
392 1 3.87606 6.05411 1.96824 -0.256473 -0.781656 0.0513347
393 1 7.00682 8.50933 4.00703 -0.491633 0.248224 -1.22346
394 1 5.05649 3.47601 2.95655 1.71515 0.61708 1.16358
395 1 6.50719 1.06265 2.35398 0.459381 1.4641 0.92138
396 1 3.18545 0.628921 1.5798 0.738282 -0.593458 -1.78758
397 1 6.56347 3.79679 4.35649 -1.15138 0.734803 1.40851
398 1 9.04208 4.10902 7.82922 1.20084 -0.134361 -0.020669
399 1 7.07721 0.488054 3.06172 -0.790743 0.186076 0.766383
400 1 0.877096 4.40899 2.94761 -0.323887 0.589606 -0.527232
401 1 5.82298 5.0917 0.554336 0.215401 0.954135 -0.164831
402 1 2.06226 4.75333 3.51265 0.113112 0.39871 -0.0593934
403 1 1.43082 3.49523 2.61544 0.449162 -0.719051 0.490843
404 1 4.13323 0.424814 2.17082 -0.31601 0.644195 1.20499
405 1 1.60157 3.68117 4.90754 0.59382 -0.787117 0.628892
406 1 5.20438 1.15176 0.855254 0.175237 0.0407308 -0.354072
407 1 6.89436 8.74324 1.27571 -0.201937 -1.10025 -0.503548
408 1 2.52333 1.09882 0.782622 0.095711 -1.97806 0.811031
409 1 9.07536 4.07795 4.86922 1.07777 0.740758 0.376901
410 1 6.84176 3.59075 0.94625 0.395657 -0.796986 -0.494195
411 1 6.06948 3.1015 2.42134 -0.583903 1.44735 -1.13298
412 1 2.40274 5.79525 4.27374 -0.965193 -1.37883 -0.146007
413 1 2.05323 8.75343 8.67348 0.671269 -1.251 -1.3764
414 1 6.24027 0.770958 1.32979 -0.364077 0.415375 -1.06664
415 1 7.14696 9.26556 8.65451 0.464443 -1.95589 -0.397685
416 1 0.533697 0.109962 9.21506 0.63801 0.881383 0.411218
417 1 8.56457 3.49937 2.18141 -1.03392 -0.44012 -1.41986
418 1 5.4347 1.43269 6.22885 -0.914436 0.20542 -0.932224
419 1 0.702742 1.67254 2.15875 -0.278771 0.00988124 0.378497
420 1 8.545 5.15149 6.63058 0.425795 1.51532 0.504701
421 1 1.86201 7.72182 9.12413 0.632836 -0.212666 0.692996
422 1 6.33211 1.40775 4.54802 -1.0585 -0.689535 -0.445514
423 1 6.88446 3.07263 5.01315 -0.239613 0.634653 0.36332
424 1 3.34263 5.48386 2.7616 -1.4974 1.08102 -0.107935
425 1 7.61101 3.42907 5.71072 0.0988029 -0.472161 -0.153261
426 1 0.964437 2.69153 7.93024 -0.703933 0.846778 0.0759511
427 1 7.4201 3.60532 1.97066 -1.85666 0.666788 0.323155
428 1 3.01466 7.21204 2.02541 -0.909621 -0.727382 0.718758
429 1 5.32149 0.800199 8.10447 -0.380857 0.273895 0.246611
430 1 9.36872 3.08934 1.51833 -0.861861 2.26373 0.868186
431 1 8.51146 6.17126 6.41945 0.395453 0.638203 0.567097
432 1 2.01103 7.79626 4.4186 -0.941355 0.177523 -0.355885
433 1 7.87857 2.44887 7.25003 -1.06361 -0.382922 -1.12953
434 1 7.13778 3.19406 3.55645 0.347877 -0.732173 0.36709
435 1 7.45992 5.68204 6.20216 0.54063 -0.413319 -0.94026
436 1 0.248177 7.0386 7.64963 -1.01708 -0.2339 -0.939616
437 1 2.88374 6.07084 2.09898 1.2553 1.39093 1.21615
438 1 3.21748 5.1907 1.59215 -0.285179 -0.19591 0.041647
439 1 4.14206 0.557086 9.34082 -0.824957 1.39645 -1.1501
440 1 3.63753 9.02285 1.50181 0.359869 1.00351 -1.16049
441 1 5.70401 2.7488 9.18137 -0.0122368 -0.0588046 0.3967
442 1 2.706 7.23525 0.0287607 1.08627 0.389544 0.0121974
443 1 2.19175 4.67984 0.949082 -0.618892 -0.665686 0.713117
444 1 5.64358 6.08989 7.20996 0.462458 -0.407293 0.247937
445 1 0.402296 6.25646 8.5225 -0.829517 -0.0547397 0.0514421
446 1 8.14563 2.51248 8.25269 0.456713 0.262965 1.08937
447 1 0.095486 4.89147 2.4418 0.494427 0.405894 -0.156177
448 1 1.04751 8.08577 4.1394 0.0361359 -0.256634 -0.0981464
449 1 6.6111 8.68678 4.96822 -0.174051 1.15357 -0.045805
450 1 2.08609 1.74473 8.19118 0.56583 -0.532802 -1.23822
451 1 7.45415 4.1816 7.96561 -0.239294 -0.0750009 0.964238
452 1 9.3023 6.20534 1.06423 0.26595 -0.219748 0.0949173
453 1 2.64318 0.886495 7.8714 -0.62359 0.168651 0.155914
454 1 4.23301 6.38067 0.244516 0.193246 0.766456 0.15274
455 1 0.934471 7.43241 5.92603 1.51631 -0.847215 -1.25741
456 1 1.07786 6.48556 5.57324 0.377307 1.41195 0.80871
457 1 6.70282 4.91896 6.20904 0.378893 1.45906 0.0631634
458 1 3.754 7.93357 6.6437 -0.5492 0.0677823 -1.04813
459 1 6.99283 2.53649 5.86375 -1.50053 -0.798994 0.37754
460 1 3.45039 2.71155 4.58365 0.765137 -0.116263 -0.448675
461 1 8.86807 2.66381 7.44967 0.226767 -0.720356 -1.20654
462 1 5.7724 7.58883 2.25205 -0.653767 -1.21285 -0.130748
463 1 1.6803 0.339934 0.89031 -0.925465 1.0764 -0.276342
464 1 8.03704 8.01144 1.28712 0.68064 0.323649 0.41035
465 1 8.68036 7.2 6.70524 -0.780838 0.257758 0.331713
466 1 2.64412 7.57838 7.06269 1.5092 0.430097 -0.822268
467 1 4.42234 2.27419 7.6101 -0.459187 -0.0819873 -0.376823
468 1 7.42872 8.13863 5.29596 0.200686 -0.733569 0.996233
469 1 6.35049 5.35048 4.25229 -0.172719 -1.37044 -0.572194
470 1 6.90105 4.17802 5.46072 -0.817934 0.0798699 0.913112
471 1 8.47043 1.01451 1.5155 -0.341504 0.477502 -1.27018
472 1 9.31811 2.56675 8.34609 1.31491 -0.721849 -0.41442
473 1 4.29568 3.66178 6.50993 0.150053 -0.421826 -0.285151
474 1 4.01551 8.92126 6.83936 0.149518 -0.00808916 0.166489
475 1 0.722877 0.0344555 0.921483 -0.266036 -1.17576 -0.17287
476 1 0.638032 4.33803 7.53718 -0.771005 -0.0679645 0.492794
477 1 8.57149 9.27929 3.31316 0.323804 0.394 -0.459714
478 1 5.10814 7.47378 1.32724 0.487897 -0.800474 2.58068
479 1 0.415629 2.35317 7.044 0.232665 0.767624 0.510366
480 1 0.44401 8.31366 0.862774 0.224928 0.787512 0.0581824
481 1 5.18915 1.96341 3.24963 0.894092 -0.111589 -0.215188
482 1 5.0671 2.39888 0.647728 -0.198082 -0.60625 -0.253651
483 1 3.20018 4.9891 6.77333 2.27766 -1.38669 0.944562
484 1 2.74419 1.08094 3.48193 0.0445883 0.193281 1.08836
485 1 7.2204 7.7293 8.99372 -0.919392 1.17479 0.360141
486 1 6.24122 8.26155 9.10855 0.126826 0.661018 -1.16328
487 1 5.78859 6.8161 5.39457 0.834265 -0.533024 -0.159101
488 1 8.77698 7.05608 8.26098 0.514614 0.474566 -0.338644
489 1 0.176584 1.51915 0.161321 -0.948621 -1.74315 1.31143
490 1 4.52611 8.80546 2.11183 1.0966 0.177449 0.370304
491 1 6.26213 8.19542 3.29349 0.154013 -0.972689 0.552341
492 1 3.56511 1.06292 6.1302 -0.831055 -1.23093 -0.525477
493 1 8.91615 2.5138 2.44299 0.501955 -0.770291 0.144752
494 1 4.95985 2.76653 5.30744 0.63751 -0.399304 -0.789089
495 1 4.64167 0.813757 3.54744 -0.338802 0.421217 0.131417
496 1 4.05274 3.11524 5.67007 -0.418758 1.0036 0.901315
497 1 2.10191 3.0311 7.84344 1.2603 -0.127458 0.503661
498 1 1.18074 9.35003 1.85197 1.23951 -0.963409 -0.0564264
499 1 3.64293 7.2993 0.485096 0.560711 -0.0623465 0.761666
500 1 5.64246 3.6558 8.56774 -0.620938 -0.106851 0.0192362
501 1 5.61453 6.27757 4.47847 -0.0782706 -0.865683 0.87182
502 1 0.148098 9.34231 7.45222 0.264496 0.656755 1.28539
503 1 5.25843 8.66058 7.66088 -0.580388 -0.191747 0.233954
504 1 7.9702 6.87653 7.46005 -0.190889 -0.639409 -1.53732
505 1 4.11516 5.07367 4.98049 -0.0533562 -0.269875 -1.08832
506 1 8.82109 8.67823 5.86382 -0.766703 0.202694 -0.00998558
507 1 9.37483 2.41036 0.73688 -0.566935 0.535183 -0.592451
508 1 6.88872 1.2744 0.730806 -0.181531 0.0110037 0.319027
509 1 3.65936 8.92742 8.11244 0.973485 0.0598296 0.434273
510 1 0.310097 7.93577 4.93909 0.463951 -0.319823 0.0440226
511 1 8.47919 0.705801 4.09691 -0.087572 0.961618 -0.198488
512 1 5.44311 5.09129 4.61978 0.179164 0.454708 1.27934
513 1 9.21717 6.88739 9.37785 0.311182 -0.529696 -0.479805
514 1 1.06752 6.58874 6.64624 0.807046 -0.458503 -0.345502