ITEM: TIMESTEP
39970000
ITEM: NUMBER OF ATOMS
1000
ITEM: BOX BOUNDS pp pp pp
0.0000000000000000e+00 9.4000000000000004e+00
0.0000000000000000e+00 9.4000000000000004e+00
0.0000000000000000e+00 9.4000000000000004e+00
ITEM: ATOMS id type x y z vx vy vz
1 1 0.588638 4.91949 0.456272 0.273376 0.00155701 0.464056
2 1 6.83635 6.88192 0.365121 0.455915 0.669457 0.910533
3 1 3.23209 2.57522 2.89838 -0.497395 -0.293648 -0.791012
4 1 6.45331 7.80446 8.69643 -0.497439 1.21302 -0.582126
5 1 1.05029 8.73824 3.69348 0.141276 1.00045 -0.421432
6 1 6.74881 7.78684 6.85513 -0.114157 0.93369 0.12108
7 1 2.23339 0.687046 1.64564 1.13842 -0.00742366 -0.114622
8 1 5.01627 0.330358 6.80324 -1.25222 -0.711576 -0.773177
9 1 2.5578 5.30186 5.64193 0.094793 -1.21214 1.2117
10 1 2.31013 6.49782 9.33125 0.198199 0.511853 1.14355
11 1 7.05728 9.0868 4.9695 0.778186 -0.336392 -1.28712
12 1 9.05056 0.363722 0.462444 0.402563 -0.596127 0.229628
13 1 1.95907 2.85122 1.23728 1.31706 -0.541529 0.740565
14 1 4.48225 4.14585 4.12069 0.278183 -0.929462 -0.478569
15 1 7.65325 2.28027 0.848653 0.633966 0.797394 1.47917
16 1 0.817318 1.18232 5.82463 0.47311 -0.295675 -0.582759
17 1 8.63785 3.11574 1.07115 0.157444 -0.140947 0.655318
18 1 5.69806 6.57603 7.98237 -0.061129 -0.789568 -0.51886
19 1 4.31522 4.29917 8.82404 0.85723 0.0724575 0.125312
20 1 7.72945 5.63548 6.7632 0.418669 0.0209821 -0.66165
21 1 8.324 0.108756 2.87292 -0.154765 -0.480622 -0.470106
22 1 2.96896 3.40484 7.56166 -0.599086 0.412307 -0.258053
23 1 4.99749 1.87978 8.91233 1.38365 -0.0261642 0.680241
24 1 2.88316 5.26265 6.59144 -0.278499 0.740659 -0.956
25 1 6.82207 1.62446 0.915179 -0.482211 -0.502882 -0.319387
26 1 0.354248 4.0215 3.6314 0.698913 0.363733 0.203674
27 1 0.0153659 7.45811 1.36067 -0.441947 -0.889156 -0.22918
28 1 3.76667 2.13121 1.98704 -0.772735 -0.276847 0.335457
29 1 0.860093 5.45786 6.17345 0.522073 -0.932539 1.18688
30 1 0.0323069 3.8389 6.00586 -0.559182 -0.893565 0.142318
31 1 2.64429 2.44643 1.98364 -1.1379 0.028921 0.0106581
32 1 7.50699 6.08297 5.63041 -1.025 1.42046 0.298536
33 1 3.04865 8.10843 8.34434 -0.0494043 0.102588 -0.48104
34 1 5.09254 0.178563 3.22361 -0.0795162 0.101883 0.341386
35 1 0.0110384 1.73263 1.77449 0.140816 -0.274982 0.571068
36 1 3.62326 9.07117 2.32464 0.438258 0.977938 0.333421
37 1 5.77226 0.0843764 8.96683 -0.0368977 0.105851 -0.278529
38 1 0.828797 7.94196 3.03404 -0.0230566 -0.221565 0.619612
39 1 0.827833 8.01298 8.2637 0.968102 -0.749878 1.55863
40 1 6.98204 2.67443 0.182633 -1.23323 -0.443058 0.704792
41 1 7.37596 7.01631 5.28076 -0.293166 1.58369 0.466806
42 1 1.50057 1.51341 5.1418 -0.70325 0.264172 0.129624
43 1 1.18744 9.05323 8.5131 -0.233576 0.811491 -0.107964
44 1 1.65493 2.78715 5.83789 -0.920872 -0.623274 -0.282247
45 1 5.73305 3.12176 4.18686 1.32351 1.7098 -1.51914
46 1 2.98232 3.24537 3.6864 0.222591 -0.264295 -0.0265566
47 1 1.92399 5.64773 1.03394 -0.580404 -1.01237 -1.2053
48 1 6.08047 5.3485 2.2701 -0.470006 -0.326644 0.224753
49 1 3.09896 3.68051 5.78374 1.37015 0.450179 0.400931
50 1 1.20016 7.69863 3.97941 0.576387 0.388125 -0.330618
51 1 1.1249 5.96637 2.76617 -0.560027 0.076545 -1.15892
52 1 3.334 0.636241 2.1222 0.635965 0.361949 -0.0294818
53 1 2.87799 1.57156 3.65939 -1.46273 -0.344823 -0.653313
54 1 6.39835 6.53071 8.73663 1.81637 1.24883 0.11238
55 1 2.03759 5.72124 8.43302 0.409405 -0.197077 -1.637
56 1 1.74757 4.73118 8.63115 -0.522255 1.39875 0.402851
57 1 8.01468 6.7443 6.92764 0.0118004 -0.0284294 -1.90141
58 1 7.41135 8.27706 8.90922 0.0850392 -0.53782 1.28653
59 1 7.65822 8.23366 7.29099 1.25575 -0.0332712 -0.158527
60 1 2.81046 7.78078 3.79687 -1.56599 -0.841413 1.1048
61 1 2.88839 1.61046 2.6576 0.331224 -0.993871 0.227139
62 1 0.368926 0.892609 1.01491 1.12928 -0.869275 1.57349
63 1 7.14196 0.529855 6.72538 0.51477 0.0487815 -0.526244
64 1 7.87325 7.39672 0.318716 1.17404 -0.803812 -0.546578
65 1 0.530359 1.79165 4.59032 0.231602 -0.668043 0.157159
66 1 3.17316 6.12085 5.27806 0.241973 -0.528049 -0.453974
67 1 2.82116 9.17766 1.63931 0.991918 -0.80844 0.190076
68 1 4.80515 6.43069 0.128327 -0.0106193 -0.702483 0.655829
69 1 5.42597 3.92993 3.24843 -1.02201 0.0401149 0.966504
70 1 7.13184 2.98769 3.2216 -0.742703 -0.121858 -0.498618
71 1 7.78425 3.63483 0.572061 1.00048 -0.751751 -0.429229
72 1 6.11432 8.59482 4.41462 -0.859566 -0.440047 0.420116
73 1 2.77016 6.33256 6.32819 0.173464 0.4113 0.0717187
74 1 5.70012 7.54042 3.95274 0.597037 1.15322 -0.848421
75 1 7.01314 2.01351 8.35988 -0.234073 -0.499082 -0.391739
76 1 6.73147 2.71432 1.18357 -0.439201 -0.000615529 -1.9818
77 1 1.96416 3.06635 3.70871 0.783869 1.69674 -0.202073
78 1 3.06679 7.48463 1.99548 -0.466151 -1.26171 2.28678
79 1 7.18963 1.03793 7.65121 -0.445177 -0.315593 0.361275
80 1 8.37563 7.2971 8.76401 0.176371 0.508551 0.191912
81 1 3.74856 6.8934 5.93238 -0.960192 0.688357 -0.519698
82 1 5.87569 1.01007 4.45259 -0.096622 -0.00927786 0.0372905
83 1 4.02449 5.72797 4.59703 -2.28794 0.881631 -0.200378
84 1 0.985168 6.90537 6.80746 0.479883 0.0151813 -0.207993
85 1 2.13675 2.13609 0.388906 -0.182252 -0.540612 0.784679
86 1 3.57151 3.81948 0.199289 0.64887 0.190442 -0.440447
87 1 5.86492 1.98622 4.84271 -0.667841 1.27778 -0.646264
88 1 9.30461 2.36369 8.18932 -1.1452 -1.54359 0.365389
89 1 1.26435 3.77186 3.07161 -0.0426093 0.784813 -0.943175
90 1 7.74243 3.86642 2.26874 0.497571 0.105309 0.486326
91 1 8.38702 5.6243 5.25496 0.610815 1.11442 -0.518407
92 1 7.36514 6.26056 8.34091 -0.615427 0.262678 0.0321702
93 1 2.97093 8.85654 5.06905 -0.236453 0.953759 0.0152255
94 1 1.38274 8.84422 2.63569 -0.184621 0.0979811 0.00692241
95 1 2.00106 4.14035 2.25983 -0.0371631 -0.404571 -0.858202
96 1 3.13585 0.459553 9.35297 0.346472 0.144489 -0.454906
97 1 1.84084 1.36875 2.33984 -0.0785925 -0.304699 -0.100596
98 1 5.46119 1.07269 3.52533 0.877045 -1.00969 0.729349
99 1 1.62753 0.210177 3.32417 -1.03689 -1.03504 -0.876173
100 1 6.59415 7.00678 3.62062 0.821536 -0.397283 0.660606
101 1 4.57487 5.70373 3.54213 0.763693 0.150231 -0.294856
102 1 6.57436 0.138686 4.17357 -0.69376 1.16687 1.19522
103 1 0.462394 9.21612 0.855604 -0.0754121 0.551686 -1.31339
104 1 3.67353 8.68168 9.14404 1.27712 0.0460675 -1.11188
105 1 7.12946 8.3431 5.7864 1.16968 -0.355282 0.20843
106 1 7.8014 1.83346 7.76065 -0.917533 -0.426016 0.588495
107 1 7.95347 7.78515 1.78699 -1.18959 -0.913219 -1.11099
108 1 9.27999 1.26726 6.50583 0.498454 -0.203106 0.979907
109 1 6.35506 3.73076 3.61748 -0.471547 0.933997 0.397816
110 1 0.561941 6.07959 7.43596 -0.0748452 0.146868 0.139258
111 1 4.37532 6.97791 8.80996 0.670541 0.0134854 -0.336557
112 1 5.85302 1.25923 9.17901 -0.729241 0.838873 0.0251636
113 1 4.69332 3.66341 6.89583 0.366798 0.575757 -0.427348
114 1 2.45548 0.609202 2.69021 0.734021 -0.0264839 1.02105
115 1 5.18531 8.89138 5.0112 1.03477 0.699408 -0.359215
116 1 5.76889 3.99481 7.83801 -0.791202 -0.13888 -0.736933
117 1 9.26792 5.67728 0.652268 -0.74842 -1.04963 0.047315
118 1 8.2443 2.7617 7.36343 0.0937354 0.275549 -0.0173883
119 1 6.32649 7.20605 4.8561 0.497923 -0.277593 0.280987
120 1 2.40778 4.82711 1.5644 0.34863 -0.0829091 -0.949056
121 1 5.92365 7.62667 7.76592 0.924455 -0.706186 0.334209
122 1 1.56713 8.27083 9.08915 -0.733389 1.67584 -0.525804
123 1 0.793943 8.71102 7.42375 0.84706 0.204616 0.192823
124 1 6.04867 0.101673 5.06966 0.000470517 -0.0284817 0.115664
125 1 6.37939 4.66109 6.1637 0.282022 0.530157 0.681219
126 1 0.985671 4.33864 2.24163 -0.00114976 -0.174122 1.01177
127 1 2.14604 0.0723572 4.75063 -0.841964 -0.36939 0.571478
128 1 4.90474 7.97208 7.03256 -0.479649 0.84403 -1.88888
129 1 3.93254 3.26925 1.0207 0.229873 0.357273 0.840331
130 1 3.99296 7.73074 6.56048 0.254575 -0.569453 0.0465923
131 1 8.81647 1.47909 4.54918 -0.699794 0.560943 0.776559
132 1 7.23753 3.67776 4.29515 -0.1857 -0.76801 0.837936
133 1 6.08945 7.6659 2.18992 0.498012 -0.545594 -0.0208059
134 1 3.25004 7.75459 4.97716 0.701292 0.59451 0.516067
135 1 4.78487 0.951528 4.24365 0.888732 0.20773 -0.232599
136 1 1.43276 1.84248 7.68691 0.261685 -0.0306896 -0.667731
137 1 3.37113 4.87191 9.29944 -0.00801341 0.352601 0.362211
138 1 7.45473 3.50905 7.5707 -0.48773 -0.42972 0.415231
139 1 9.39694 5.4705 4.70425 1.183 -0.518884 0.408688
140 1 3.32949 5.05519 4.87653 0.623492 0.965868 -0.744262
141 1 4.39331 8.88053 6.58673 0.285736 -0.105186 1.89376
142 1 1.14195 2.27879 0.162821 0.567299 0.102789 1.56078
143 1 3.93659 5.76147 0.448321 1.15931 -1.06322 -0.0215061
144 1 2.07037 3.84235 6.02456 0.210165 0.14458 0.572028
145 1 6.5927 5.52456 8.58022 -0.215508 1.82053 1.85944
146 1 7.78053 1.72504 2.39799 -0.217184 -0.0314909 -1.06388
147 1 3.76083 8.54685 5.79554 -0.2815 1.07133 0.741297
148 1 6.64148 4.31564 7.2231 0.750118 0.996743 1.1683
149 1 8.47614 6.35944 3.12722 -1.47985 0.551675 0.0842416
150 1 5.16449 0.0385276 1.07922 0.0933439 0.240666 -0.673218
151 1 0.824396 8.40089 4.66538 0.453921 0.195645 1.47405
152 1 5.38217 7.14686 8.88793 0.318354 0.801836 0.40658
153 1 1.14394 6.43517 0.0768281 -0.0397207 -0.739476 1.23118
154 1 6.25438 4.89727 0.480039 -0.440663 -0.276852 -1.22792
155 1 6.81858 6.06323 2.17837 0.808996 0.0814803 -0.711979
156 1 4.49646 8.73619 2.93834 -0.934122 -0.934065 -0.900409
157 1 6.3405 3.54192 5.93481 0.209069 1.01351 -0.373567
158 1 4.63963 5.24734 9.1758 1.07322 -0.25727 -0.336146
159 1 0.79349 7.23867 4.96038 -0.251052 -0.985869 0.273331
160 1 5.71708 7.8994 6.49185 0.360864 -0.631923 0.402336
161 1 0.521769 3.83728 0.167151 -0.581737 -0.584317 0.851973
162 1 0.314904 1.11314 9.39059 0.461324 0.0998019 -0.575807
163 1 0.551309 4.78517 5.49612 0.704098 -0.916905 1.42528
164 1 5.3548 8.18055 2.68305 -0.23762 0.497108 -0.79753
165 1 8.17307 0.344362 1.38988 -1.03232 0.208735 0.692361
166 1 5.79164 6.5667 4.1575 0.235904 0.632786 -0.0690602
167 1 4.01335 7.09313 1.97083 -0.736488 -0.0843377 -0.321339
168 1 6.82862 5.29335 7.56572 -0.429642 -0.676647 0.884275
169 1 2.81048 5.11708 8.48421 0.250456 1.72578 -0.376871
170 1 1.69472 1.75105 6.22439 -0.793424 1.26064 0.22348
171 1 8.98286 4.46722 3.07419 -0.965153 -0.143377 -0.306845
172 1 2.51702 4.26501 9.21386 -0.691326 0.825761 0.66149
173 1 7.65774 6.26264 0.0416991 -0.458691 -1.49484 -0.197545
174 1 8.90191 3.65532 5.18702 -0.732135 -0.0790598 1.68412
175 1 6.60877 9.33452 2.15072 0.254917 0.652231 -0.539954
176 1 0.69366 2.0015 6.58317 -1.0796 -0.687074 -0.205029
177 1 4.7247 0.057806 8.59429 1.07151 0.655778 -1.44851
178 1 8.80073 4.63382 5.38711 -0.795915 -0.235775 -1.0432
179 1 5.34126 8.6011 3.70808 -0.881475 -0.490483 -0.258709
180 1 0.26761 9.16075 4.08407 0.507598 -0.0590446 0.938044
181 1 5.98644 7.68401 1.07868 -0.75775 0.167784 -0.846886
182 1 3.78698 1.91183 5.72254 -0.0876589 -0.718508 0.0698497
183 1 1.52314 6.41815 7.64821 -0.998258 -1.3973 0.425606
184 1 3.57666 1.34778 8.29078 0.184834 0.410682 -0.0868178
185 1 2.47741 6.66496 8.20488 -0.389283 -0.651911 0.00123943
186 1 2.63779 4.36233 5.05256 0.287364 -0.196151 -1.47883
187 1 3.46511 2.51368 8.2217 -0.54797 0.301393 0.227288
188 1 3.84547 5.99485 1.48164 -0.338434 -0.587608 0.75229
189 1 2.18684 4.04878 4.15052 -0.0883972 0.943199 0.117975
190 1 7.80396 5.31163 1.65495 -1.53481 -0.205701 -0.0150882
191 1 4.71865 6.09435 8.33209 0.100681 -0.581511 0.454743
192 1 1.39942 5.42399 7.11924 0.11406 0.228589 -0.210931
193 1 3.38352 5.13152 7.57643 -0.22919 -0.508349 0.602928
194 1 2.84651 3.25227 8.88843 -0.863267 -0.0450376 0.202586
195 1 8.61936 9.14506 3.96281 -1.29614 1.65759 0.349897
196 1 3.13728 0.600087 1.06789 0.608446 -1.75722 -0.695657
197 1 1.66792 7.21666 5.50114 -0.426084 -0.895176 0.696402
198 1 2.8711 4.23102 0.751566 -1.34697 -0.190836 -1.01316
199 1 1.8895 6.81257 6.45015 -0.810602 -1.21364 -0.0491546
200 1 3.41126 8.58301 6.80877 -0.944647 1.04702 -0.686145
201 1 1.78094 7.83963 1.15987 -0.583659 -0.341386 1.34856
202 1 7.80848 1.766 4.23697 0.533355 0.656108 -0.00221616
203 1 4.38112 5.4319 7.55929 -0.621776 1.34497 0.201028
204 1 4.22896 2.42201 6.61228 -1.10139 -0.219435 -0.338878
205 1 6.6463 7.44929 5.77547 -1.68313 -0.293459 -0.464196
206 1 0.760377 2.1768 5.54909 -0.0328026 -0.579615 -0.827345
207 1 7.73052 3.1377 1.44175 0.620847 -0.441335 0.42807
208 1 8.30775 3.96794 6.06176 0.634856 1.32703 1.31876
209 1 5.14723 1.84444 7.8214 -0.807984 -0.13152 -0.344824
210 1 1.76415 1.87044 8.77206 -1.35936 -0.932534 -0.290492
211 1 0.181757 2.81412 3.34593 -0.0371292 -0.630962 -0.736798
212 1 5.00396 7.20555 2.24706 -0.00862156 0.942066 1.38602
213 1 1.90993 2.07661 4.08774 -0.644059 0.851654 0.619233
214 1 8.03093 2.79598 9.33565 -0.408151 0.0453441 -0.71123
215 1 3.03779 6.94931 4.42959 0.0667628 -0.437491 0.0084756
216 1 4.75813 5.49737 6.46332 0.191406 0.622612 -0.323032
217 1 7.35136 0.618327 0.886529 0.677583 0.730687 -0.739942
218 1 5.81393 4.66968 1.46505 2.04504 0.476347 0.67592
219 1 5.48143 5.57781 0.378479 -0.573604 0.0858533 0.52706
220 1 8.74736 1.25657 1.07967 0.909809 1.04816 -0.884885
221 1 8.10043 9.33475 4.98381 -0.571724 1.14313 -0.363179
222 1 6.23153 4.39456 2.72639 -0.148209 0.744937 0.529592
223 1 3.219 9.03044 0.666399 -0.0930855 0.287752 -0.953119
224 1 7.40532 7.89639 2.67938 0.00386495 0.481878 0.645803
225 1 5.70519 5.81884 6.20846 -0.519551 -0.639003 -0.444796
226 1 0.674307 7.10854 2.11108 -1.54894 1.78846 0.114072
227 1 5.03441 7.48347 0.428102 0.900951 -0.38892 1.80089
228 1 6.40741 4.12848 8.62868 -0.56109 -0.362869 -1.14594
229 1 0.838165 8.18491 0.852184 0.897865 -0.993697 0.201501
230 1 3.96618 2.00415 0.939381 -1.41971 0.588779 0.0017441
231 1 1.00743 5.22061 8.05461 -0.433503 -0.128326 0.32227
232 1 5.80114 4.99026 8.96544 0.12702 -0.0948431 -0.0959335
233 1 7.866 7.0829 7.8335 -1.45834 -0.420204 0.373209
234 1 3.57138 7.61562 9.15972 1.00442 -1.63263 -0.280293
235 1 7.03229 6.78465 6.41337 -0.786496 0.723445 0.129056
236 1 0.0686159 8.86356 8.34196 -0.391308 -0.0537038 -0.88987
237 1 7.76496 1.35787 1.47735 1.35378 0.449364 -0.256182
238 1 8.33895 8.2407 9.2688 -0.0179362 0.601051 -0.5169
239 1 4.20918 7.68942 5.33296 -0.279841 0.649828 0.737557
240 1 4.96562 2.42764 5.9512 0.0167066 -1.69654 0.254953
241 1 2.58981 5.1626 2.5762 0.337894 0.266664 -0.569129
242 1 8.28415 2.85672 5.51663 0.57996 0.271598 -0.365089
243 1 1.75859 9.01002 1.71694 0.174706 -0.263509 -1.48126
244 1 5.80613 8.61756 8.38075 -1.11263 0.0787753 0.922466
245 1 6.72474 4.10205 1.86921 -0.443615 -0.54731 -0.917536
246 1 0.891679 7.02301 1.04156 1.08157 -0.0278064 -0.852384
247 1 5.39066 2.80696 3.1796 0.0212775 -0.323644 -0.685177
248 1 5.33028 7.76079 5.0526 1.03086 0.916094 -0.34194
249 1 3.28008 4.18952 8.34874 0.937933 1.48748 -0.24889
250 1 4.57738 6.19336 5.67722 0.24543 -0.136478 0.744471
251 1 7.39719 1.57525 6.71257 -0.632873 -0.933592 1.28573
252 1 1.34901 2.47629 4.80932 0.590389 0.783826 0.0389944
253 1 0.965834 6.47842 5.78427 -0.207899 -0.00108846 -0.0853351
254 1 6.84217 1.97954 1.90677 -0.364234 0.334505 -0.940667
255 1 5.22912 2.9112 9.1135 -0.974884 -0.395822 -1.45751
256 1 2.05513 3.89845 8.21907 0.411896 -0.681539 1.53386
257 1 5.10645 0.788335 0.117939 0.364811 -0.127114 -0.379597
258 1 1.95453 1.22553 3.37523 -0.240169 -0.434406 -0.588352
259 1 3.23353 6.08159 8.94199 -1.29693 -0.644223 0.0475813
260 1 3.22977 2.48118 7.18718 -0.300178 -0.284635 -1.58018
261 1 6.99193 4.21855 0.265514 2.1604 -0.198499 0.942124
262 1 4.72325 8.77759 1.85557 0.904105 0.391299 0.196121
263 1 4.49846 4.70878 3.19464 -0.228726 1.8192 0.0326494
264 1 6.4621 5.37296 5.14525 -1.00078 -1.35649 -0.112949
265 1 5.48653 4.11497 4.32807 0.65053 0.341586 1.11829
266 1 6.66932 6.98104 2.54933 0.173331 -0.943345 0.733268
267 1 4.71683 1.69606 2.42588 0.703875 -0.227065 0.71685
268 1 5.77819 0.619532 5.98026 -0.288585 -0.150485 -0.175146
269 1 4.63771 4.43433 1.51207 -0.308496 -0.0989376 0.183275
270 1 7.84203 8.70239 3.29962 -0.555596 -0.26362 0.897319
271 1 6.53966 5.79501 0.207336 -0.831701 -1.10498 1.12633
272 1 8.4378 0.744592 3.85833 1.51389 -0.420469 -2.12251
273 1 8.73439 1.87107 2.69503 2.27417 0.980242 0.438872
274 1 6.80001 7.17438 7.78877 0.0104921 0.582742 0.781292
275 1 3.85063 7.47765 4.05254 -0.129877 -0.224593 -0.126366
276 1 9.36107 6.13757 3.56296 0.284116 -1.41508 -0.397573
277 1 3.42811 0.904022 3.15482 -0.947817 -0.39488 1.11272
278 1 2.43148 5.58342 7.4739 -0.137841 1.06477 0.0773416
279 1 2.76827 8.81702 3.81192 0.252139 -0.282591 -0.122777
280 1 3.8643 1.80721 3.06999 0.569726 -1.56303 -1.13181
281 1 6.25353 8.0568 3.23221 0.353568 0.133282 0.378612
282 1 8.51742 8.24206 2.68447 -0.0989494 0.0628741 0.955861
283 1 9.25063 7.4695 3.16381 1.01392 0.129577 0.0441661
284 1 7.45141 7.81041 3.75494 -2.43146 -0.480731 0.144048
285 1 6.0992 9.07639 3.08752 -0.53445 -0.629527 -0.609425
286 1 0.693172 1.25631 8.46716 0.410093 -0.164622 0.828055
287 1 2.81503 8.26879 6.09394 -0.199896 -0.0461574 -0.254792
288 1 3.69029 0.203828 8.46903 -0.226413 -0.142783 0.0652255
289 1 7.51544 1.05182 5.85573 0.239803 -0.431017 -0.663336
290 1 1.99691 7.77814 8.06213 -0.338838 0.632576 -0.201634
291 1 4.53802 3.67246 0.200166 0.456679 0.0336906 -0.231329
292 1 9.16297 8.1553 5.81443 -0.122164 0.977215 -0.802817
293 1 2.29416 1.16097 4.56264 1.09625 -0.624303 -0.137318
294 1 8.75821 5.82869 7.10875 -0.97071 -0.208448 0.143917
295 1 8.78259 4.83152 7.61796 -0.434701 -1.28939 -0.656857
296 1 5.8036 6.61416 0.312897 0.377774 0.190547 0.823518
297 1 5.13207 3.54651 2.29781 0.0762709 -0.256959 0.216961
298 1 4.25839 6.36802 6.82335 -0.099688 -0.534533 -0.392662
299 1 5.71015 7.14863 2.98854 -0.760678 0.611154 -0.446207
300 1 7.9872 2.76834 2.46243 -0.0361677 0.336288 0.0383899
301 1 1.00389 1.03422 6.91688 -0.632283 0.606372 -0.0829002
302 1 7.73992 9.23469 6.00336 0.462444 -1.21722 -1.17553
303 1 1.31876 9.19718 0.268521 1.82916 0.480598 1.04975
304 1 7.18339 4.81207 2.4924 0.548417 0.00934766 -0.420915
305 1 3.97178 1.05421 0.529722 -0.0800598 0.348531 0.178739
306 1 6.93861 8.69053 3.71861 0.428416 -0.515707 0.645607
307 1 5.93959 8.86538 0.512645 1.04826 -0.0802988 -0.418703
308 1 7.90571 9.37238 7.133 0.469986 -0.333554 0.512804
309 1 0.211801 5.57977 8.95276 0.083432 -0.994283 -0.0340313
310 1 5.23747 4.64932 6.17634 0.00150319 0.97378 -0.0326644
311 1 7.55933 6.83219 1.31515 -0.306413 0.541135 -0.112437
312 1 3.24656 5.0932 0.989276 0.812728 -0.224002 0.901931
313 1 6.75137 0.901736 1.72923 0.816112 -0.412435 -0.415486
314 1 7.41244 4.02916 3.2917 -0.646051 -0.977239 -0.297852
315 1 3.77637 5.78719 6.14971 0.971328 0.321185 -0.101447
316 1 2.14201 5.27402 4.5362 -0.497768 0.561575 0.73332
317 1 9.00502 2.14583 7.15975 0.444148 -0.112951 0.338887
318 1 0.0645924 7.28974 6.97476 -0.562422 0.27012 -0.192014
319 1 5.66812 8.88873 6.07793 0.411236 -0.608618 0.604245
320 1 4.87226 4.41138 5.15072 -0.597821 -1.55846 -0.327352
321 1 0.539863 1.97419 2.68335 -0.511107 -0.0620781 0.194645
322 1 1.61732 6.71318 3.83324 2.52487 -0.139837 1.43293
323 1 3.57574 7.16273 3.09802 0.0320811 1.08467 1.07617
324 1 2.96641 4.19397 6.67803 -0.324505 -0.842485 1.00087
325 1 4.19697 4.24307 2.38199 0.535895 0.302444 -0.297071
326 1 8.36614 1.76452 5.56136 -0.605666 -0.393341 -0.75187
327 1 4.37397 1.03443 7.72962 0.447388 -0.35334 1.48666
328 1 6.25651 3.3627 9.28702 1.07486 1.42804 -1.47538
329 1 8.41935 1.9654 8.96034 0.646018 -0.797024 -0.697469
330 1 4.12691 0.0599101 7.48725 1.23498 0.333185 0.691947
331 1 3.91662 1.55925 4.11289 -0.717271 -0.306598 0.0737539
332 1 3.28627 1.04595 5.85607 -0.985678 0.363868 0.20445
333 1 8.34938 4.79787 2.28124 -1.17954 -0.341853 -0.618555
334 1 0.606887 8.02087 6.58078 0.15136 -0.199325 0.424918
335 1 7.6152 1.11854 3.35697 1.16532 0.40202 0.604428
336 1 0.743374 6.22153 4.63745 -0.214341 0.822371 -1.15529
337 1 5.78774 5.08505 6.97944 0.120171 0.63343 0.241485
338 1 9.31486 0.485953 8.1504 -0.940994 -0.24716 0.744507
339 1 0.383079 5.14762 7.04181 -1.27005 0.0873005 -0.00728453
340 1 2.67747 0.429259 3.77435 1.07738 0.826184 -0.584263
341 1 8.8126 9.1293 7.54464 1.33038 0.733334 0.184058
342 1 7.84854 5.62888 2.77456 -0.0212885 -0.264726 0.430445
343 1 4.36286 5.39843 2.16078 -0.440044 -0.395568 0.301144
344 1 0.485211 0.268971 6.22039 -0.128181 0.410588 -0.159243
345 1 5.96836 6.81958 6.31433 0.491445 0.638644 -2.28282
346 1 7.34237 5.14068 0.511867 1.88755 -1.19521 -1.3403
347 1 5.77558 3.9719 6.76213 0.159445 0.447697 0.597749
348 1 8.31434 3.7868 7.14875 -0.174968 0.307019 -0.399125
349 1 7.35901 3.53264 8.88008 0.542475 0.164375 0.0561379
350 1 3.15813 2.68821 5.51724 0.203594 1.31003 -0.0340036
351 1 7.72742 6.85914 2.38388 1.01852 0.54587 -0.446657
352 1 9.30647 8.79926 6.6916 -0.395987 -0.899367 -0.836937
353 1 9.10759 2.39521 4.9671 0.68478 1.2112 0.0535478
354 1 0.707183 7.08836 7.93015 -0.259389 -0.642125 0.778708
355 1 1.35165 6.30328 1.72965 -0.106717 -0.386332 1.52794
356 1 4.52649 1.09346 5.89858 -0.371497 -0.108886 -1.38231
357 1 0.870073 2.44955 8.53812 0.440025 -0.327151 -0.0836896
358 1 4.79904 7.11531 4.36852 -0.640809 0.574944 -0.0529631
359 1 5.33215 7.0284 7.07443 1.10461 0.75087 -0.068965
360 1 3.62765 4.12007 1.44871 -0.556076 0.552208 -0.446448
361 1 4.76636 1.68944 5.04314 0.659056 -0.517733 -0.267158
362 1 4.13067 1.14619 1.65023 0.353885 -0.91152 -0.0394884
363 1 7.54618 4.30636 1.30937 0.259291 -0.99612 -0.0024407
364 1 2.56063 4.51985 7.58281 -0.0218627 -0.328414 0.532793
365 1 0.597876 2.57595 1.52798 0.196121 -0.172868 -0.109791
366 1 5.89138 8.70654 1.54865 -0.391333 -0.455904 0.426381
367 1 1.84277 3.9759 1.13915 -0.304174 -0.494843 -0.874643
368 1 3.22643 1.61695 4.88683 -0.28644 -0.503806 0.677371
369 1 0.183895 6.65548 0.430291 0.570101 0.127707 -0.945683
370 1 8.67198 9.28066 8.82352 1.32485 1.37786 0.195767
371 1 3.26814 5.78459 3.15826 -0.66009 -0.431934 0.240413
372 1 4.49266 2.58679 8.35746 -0.271244 0.756787 -0.00590978
373 1 5.3698 6.91481 1.26656 1.44272 0.539225 0.015757
374 1 8.68169 7.27852 6.14876 -0.855813 -0.658452 0.2212
375 1 4.95732 4.54852 7.29706 -0.0822498 0.0810267 -1.17588
376 1 2.3427 8.82551 8.19524 -1.41279 0.912905 -0.394511
377 1 2.1651 7.1968 7.29615 0.232273 -0.471062 -0.871087
378 1 5.97527 0.919754 0.964289 -1.26746 0.189872 0.782818
379 1 6.56806 2.67499 5.28803 -0.72018 -0.671371 -0.293396
380 1 7.6251 4.64012 7.16592 -0.0325708 0.732286 1.45164
381 1 4.07981 0.118961 1.51973 -1.40479 -0.905736 0.363102
382 1 5.35105 5.3806 5.41316 -0.992653 0.821267 0.589444
383 1 9.22935 8.22222 7.50077 -1.12019 -1.32463 -0.0601588
384 1 3.63688 9.07874 3.41714 1.05078 -0.324235 0.199853
385 1 4.49245 8.04344 8.94139 0.0975382 -0.891563 1.36025
386 1 9.25377 5.44236 5.83179 1.17112 0.478047 0.522596
387 1 0.030476 1.76844 3.62944 -0.392236 0.245534 0.688758
388 1 6.60902 0.477447 0.0984788 0.55272 0.0878649 -1.27819
389 1 7.4418 2.3688 5.77921 -0.910416 -0.40541 -0.118176
390 1 2.62849 4.91484 3.71348 0.730941 0.800715 0.940536
391 1 6.63174 0.745622 8.51907 0.353706 -0.511253 0.397755
392 1 3.48113 2.72276 0.174127 0.0972868 -0.660146 0.402042
393 1 0.936152 5.78906 0.915344 -0.725691 0.419646 -0.277913
394 1 8.93319 5.32769 1.52664 -1.19115 -0.0618453 -1.08455
395 1 0.366996 0.092343 9.09188 -0.974196 -1.10671 -0.710149
396 1 2.13081 2.2259 2.92508 0.848991 -0.452706 -0.905294
397 1 6.21552 3.87695 0.923292 1.00377 0.195292 0.895764
398 1 9.32832 4.46123 2.07332 0.0981039 0.259207 -1.2554
399 1 7.03494 2.00136 3.54748 0.85145 -0.234008 -0.145143
400 1 3.07495 6.50133 2.40054 -0.048206 -1.04087 -1.14845
401 1 4.09604 2.00412 7.56659 -0.0428488 0.344461 0.282088
402 1 1.61034 4.77933 0.442157 -0.146503 -0.789241 0.383963
403 1 3.77712 3.67492 3.22793 0.438552 -0.848641 0.133891
404 1 0.883463 6.20808 8.51006 0.985718 -1.23158 -0.34063
405 1 3.53382 3.34637 6.60193 1.03281 -0.631006 0.722612
406 1 7.07688 8.92953 0.2203 1.37789 0.266439 0.120873
407 1 6.11086 0.266429 6.8819 0.0521811 -0.473525 1.21331
408 1 1.92266 2.86404 8.94208 -0.00211234 1.09819 -0.459833
409 1 3.00748 2.43681 4.35612 -0.226551 0.0692592 0.795503
410 1 0.613363 2.56771 7.49706 0.76813 0.22911 -0.385575
411 1 4.81239 7.74488 3.32462 0.132801 -0.879398 0.512663
412 1 1.2015 9.36257 4.46252 -1.32068 -1.33515 0.685002
413 1 1.76073 7.26523 1.99068 0.609272 0.668782 -1.50295
414 1 6.89983 1.58865 9.29217 0.105999 -0.227749 -0.0926153
415 1 8.61473 0.871929 8.97262 0.80421 -0.305064 0.661114
416 1 0.279114 1.88619 0.737563 -0.774666 0.413169 1.01517
417 1 0.0172079 4.40344 4.56968 0.996748 -0.116081 0.434494
418 1 2.76675 1.99369 6.23284 1.16472 0.053233 0.975856
419 1 7.0553 3.04577 2.11489 0.209393 0.317924 -0.942912
420 1 1.05896 5.19758 4.65689 0.549177 -0.668279 -0.881912
421 1 6.06213 5.53761 4.15921 -0.861048 -0.317312 0.240973
422 1 8.84578 3.17258 6.50369 -0.522275 -1.1782 0.775744
423 1 9.26561 3.32043 4.28314 -1.09715 0.012525 -0.153566
424 1 4.14233 7.95883 2.42625 -0.849631 0.159773 0.318741
425 1 1.86935 3.69144 7.0706 0.439575 0.514042 0.274535
426 1 4.59585 1.43553 6.8432 0.443698 -0.0164545 0.459492
427 1 9.35256 4.22813 6.9134 -0.593619 1.12381 -0.390318
428 1 2.68361 7.17894 5.61194 -0.0545106 -0.137127 -0.522652
429 1 5.45335 9.30083 2.26188 -0.333316 -0.301537 -0.643535
430 1 6.48181 4.5297 4.26618 1.09219 0.104377 -0.00515564
431 1 8.21425 2.22676 6.45286 -1.37013 -0.393728 0.140743
432 1 5.2512 0.947285 8.40485 -1.67486 -0.247353 -0.0192651
433 1 1.88578 8.41049 4.34161 0.0393906 0.382327 1.15985
434 1 7.30393 7.24247 8.69902 0.787499 0.633749 -0.871951
435 1 1.51626 3.72126 0.192458 -0.847076 0.13305 -0.0337193
436 1 0.154015 6.27683 1.5698 -0.705975 -0.404505 -1.231
437 1 6.47815 6.83113 1.34371 -0.325363 -0.803641 0.644323
438 1 2.2648 8.20205 2.09143 0.00120339 0.736319 0.761139
439 1 2.05936 8.30183 3.25936 0.057969 -1.1063 0.333107
440 1 5.85979 6.4765 2.06944 0.344129 0.113885 -0.279533
441 1 5.34771 2.48754 2.22057 -0.182301 -1.42633 0.0666024
442 1 6.33784 3.61481 4.89022 -0.407495 -0.280858 0.682271
443 1 2.7075 5.7507 1.73161 -0.0673575 -0.650145 -1.00346
444 1 8.51817 6.14769 4.30752 0.330437 1.62688 -0.327245
445 1 5.38975 1.85726 0.466034 0.32795 0.692527 0.327454
446 1 8.50823 0.750609 5.76074 0.75047 0.364177 -0.601622
447 1 1.62645 4.97412 2.73121 -0.424684 -0.787131 0.468832
448 1 0.598525 8.51001 9.19746 1.51956 -0.317654 0.257021
449 1 3.8932 4.12625 7.39716 -0.815048 1.0205 0.148352
450 1 3.9364 4.9694 6.7015 -0.122739 -0.33983 0.571289
451 1 4.9919 7.87372 8.0785 0.00130366 -0.0324472 0.506855
452 1 4.08555 8.6444 8.18837 -0.568139 -0.177795 0.754736
453 1 2.60593 1.03587 6.6284 -0.761064 -0.362886 0.023105
454 1 3.22253 9.00418 7.82823 1.25531 0.319415 -0.331608
455 1 8.42023 4.9949 4.41624 0.661345 -0.262605 0.163959
456 1 7.95147 4.20176 4.96983 0.167267 -1.09169 0.774295
457 1 6.77825 9.08775 8.67576 -0.227204 0.455156 -0.80933
458 1 2.62199 6.63044 3.49997 0.264726 1.07447 -1.09949
459 1 8.81022 3.789 0.247128 -0.028356 0.305913 0.356926
460 1 7.12173 2.46021 7.42748 0.124859 0.751303 -0.402741
461 1 8.50734 4.00808 1.59571 0.491722 -0.0575348 0.0276858
462 1 3.61088 7.507 1.00289 0.350918 -0.0181079 -0.297166
463 1 3.84595 1.88374 9.11972 -0.767733 -0.118578 0.351827
464 1 0.339858 4.18949 7.84675 -0.0673967 -0.902333 0.399015
465 1 1.43602 7.92092 7.23327 1.19313 -0.0677194 0.507413
466 1 2.5575 1.48493 8.20365 -0.782971 -0.169824 -0.324607
467 1 6.5509 1.03457 3.69035 -0.169369 0.066544 -0.0578513
468 1 9.0778 7.44192 5.08626 -0.795765 0.225706 -0.245068
469 1 6.90751 0.790606 5.00606 -1.78185 0.543016 -0.582131
470 1 9.18534 3.23434 7.47375 0.194415 0.70997 -0.671097
471 1 4.88829 8.1852 5.86538 0.224511 0.553651 0.138688
472 1 8.18899 3.18704 4.47283 0.0216842 -0.0258205 -0.257192
473 1 4.71707 2.72317 0.598681 0.320391 1.52413 -1.55154
474 1 8.70721 0.904583 2.08135 -0.69506 -0.410015 -0.687483
475 1 2.50046 2.63141 8.11014 -0.659895 -0.364418 -0.749179
476 1 0.295522 1.5078 7.52539 0.309636 -0.264315 -0.618622
477 1 3.03111 1.56003 1.60947 0.623959 -1.08422 -1.1243
478 1 4.21038 8.1497 0.552441 -0.682771 -1.09193 0.681846
479 1 1.27697 2.72654 3.02058 0.906342 -0.600695 -0.509881
480 1 6.54365 3.27031 8.03148 -0.801955 -0.378223 0.48547
481 1 3.05149 6.69181 1.31443 0.864018 -0.139516 -0.212946
482 1 1.53362 5.81516 5.28577 0.720531 -0.946806 0.650547
483 1 4.96203 6.1373 4.56844 0.361873 -0.137764 -0.432422
484 1 4.7132 0.023032 5.7321 -0.764445 -0.211262 -0.318832
485 1 5.02412 4.8437 8.25717 -0.786493 0.480737 0.00697203
486 1 8.76243 2.47941 4.03081 -0.170221 1.90847 0.600361
487 1 8.9851 5.47612 2.74976 0.103741 0.425194 -0.0430206
488 1 7.69545 6.75631 4.02319 0.675174 -0.153558 -0.602934
489 1 1.58244 1.15499 0.611461 0.0181228 -0.0257736 0.952927
490 1 4.63936 8.16862 4.3148 -0.337967 -0.850741 0.414488
491 1 7.63516 0.167035 3.98157 0.233621 0.0476104 0.114978
492 1 8.44034 6.23621 6.19693 -0.0742273 -0.501066 -0.0939675
493 1 6.15779 1.48774 8.05067 -0.349988 -0.398631 0.648753
494 1 6.80905 1.69724 4.5601 -0.535579 0.396512 -0.958744
495 1 4.70345 3.24698 3.81159 -0.197663 0.368068 0.260404
496 1 2.35544 1.99957 7.21855 0.0916095 -0.260903 -1.03775
497 1 2.27657 0.358803 0.545487 0.703612 -0.412477 -0.916775
498 1 8.13025 9.1096 0.467668 0.0955006 0.966292 1.07689
499 1 3.81668 2.58543 3.71694 0.415686 -1.19359 0.0652082
500 1 5.6015 5.97511 8.87845 -0.681826 0.897804 -0.553817
501 1 4.8876 7.2064 6.14377 -0.287629 0.269956 -0.601778
502 1 0.344754 3.56527 2.66225 -0.597464 0.909077 -0.448901
503 1 4.30901 5.16195 5.53471 0.272018 -0.271833 -0.301701
504 1 5.10949 0.744242 1.82531 0.489171 -0.55599 -0.277392
505 1 7.59906 5.34144 8.93765 0.369758 0.720516 0.0429503
506 1 2.08093 8.16724 5.34985 0.466384 0.230089 -0.49296
507 1 7.6496 0.315785 9.22853 0.426873 0.202593 -0.0374264
508 1 2.79882 8.22676 1.18562 0.600849 0.844286 -1.03919
509 1 8.68555 1.44478 8.00039 -0.992741 0.170006 0.468954
510 1 0.583411 0.720849 4.86938 0.155207 -1.303 0.199835
511 1 7.4536 5.37204 4.8916 0.418286 0.293744 0.205769
512 1 0.10632 6.36942 2.57245 0.868555 0.543665 -1.2514
513 1 2.10387 7.38915 4.58982 0.966737 0.235452 -0.185039