ITEM: TIMESTEP
53600000
ITEM: NUMBER OF ATOMS
1000
ITEM: BOX BOUNDS pp pp pp
0.0000000000000000e+00 9.4000000000000004e+00
0.0000000000000000e+00 9.4000000000000004e+00
0.0000000000000000e+00 9.4000000000000004e+00
ITEM: ATOMS id type x y z vx vy vz
1 1 7.92397 8.44589 2.21319 0.694565 0.626877 -0.898457
2 1 4.81975 7.61429 0.613377 -0.413961 0.157756 0.00792666
3 1 3.56921 3.12167 4.19723 -0.646171 -0.158874 0.435935
4 1 2.3363 6.18558 2.96581 -0.774896 0.363681 -0.526295
5 1 0.156909 0.69725 3.37352 0.451699 0.239667 -0.213072
6 1 6.26187 8.43683 4.55255 -0.210177 0.506295 -1.01276
7 1 2.80318 7.10888 2.29927 -0.990799 -0.162608 -1.22026
8 1 3.3263 0.396676 7.36301 -0.432593 0.290021 0.909595
9 1 1.98606 6.37688 5.17028 -1.01179 1.13405 -0.281643
10 1 1.48196 4.67164 2.55137 0.811897 1.14475 -0.435465
11 1 6.42831 1.11201 4.44619 -1.19116 0.0885091 0.0544639
12 1 6.71713 2.18715 9.3721 1.80988 -0.0842194 0.49874
13 1 1.37045 0.604637 2.30226 0.560028 0.823789 -1.07713
14 1 4.3512 3.49045 4.68469 -0.255446 -0.509648 0.0042453
15 1 0.915541 9.08652 7.44875 -0.483633 -0.2749 -0.891342
16 1 1.75873 8.53541 7.05374 0.279452 -0.810605 0.244009
17 1 6.53723 3.87744 1.33628 1.09014 -0.332851 -0.531835
18 1 3.47935 6.58813 8.835 -0.0210874 0.857984 -0.628613
19 1 4.24341 4.36621 7.88769 -1.232 0.713405 0.960217
20 1 0.637434 5.31619 7.70412 -1.71274 -0.180167 0.166733
21 1 0.197741 8.25298 1.08348 0.782341 -0.716927 -0.364866
22 1 7.73501 4.3051 8.31673 0.770996 0.604871 0.645991
23 1 4.4608 0.654633 1.46714 0.0969682 -0.260905 -0.0164719
24 1 3.14312 6.98738 5.58045 -0.214001 0.0389663 -1.15472
25 1 7.68836 1.80886 1.31856 -0.116548 0.049361 -0.0302409
26 1 8.90511 4.29349 4.87963 -0.042871 0.0503546 -1.21807
27 1 9.21218 7.41793 2.76724 -0.704286 0.324435 0.559015
28 1 4.93215 2.92434 1.63105 0.0126439 0.181819 0.339434
29 1 1.82017 3.68798 4.95035 0.134751 0.303344 -1.09794
30 1 8.64265 4.15994 6.75209 0.411356 -1.06048 -0.136373
31 1 2.05577 0.45573 0.18234 0.064996 0.178457 0.385114
32 1 8.91142 2.40906 7.26441 0.410537 -0.622785 0.00491559
33 1 6.2676 8.46264 0.410704 -1.17089 0.887694 -0.551331
34 1 5.38439 0.760679 4.04059 0.491805 0.693096 0.0781531
35 1 3.82699 1.09652 3.01541 -0.0914266 -0.0481776 -0.123186
36 1 3.78044 3.28629 1.70829 0.616081 -0.0989167 0.315255
37 1 5.63171 7.33793 8.1773 -1.01344 -0.829534 1.05214
38 1 0.371429 1.23878 2.53817 0.0121973 -0.962873 0.79625
39 1 3.97534 8.17877 1.09961 -0.818317 -0.201191 -0.37352
40 1 8.47939 8.41753 1.20785 -1.46932 -0.207771 -0.320153
41 1 6.50035 0.051317 6.39098 -0.510952 -0.56853 -0.168714
42 1 9.2105 0.42678 4.41317 -0.940935 -1.26772 -1.3994
43 1 1.14019 8.5905 5.1533 0.673871 -0.576649 -0.72815
44 1 2.61731 1.60913 5.81178 1.44378 0.396613 -0.583027
45 1 7.62059 0.756768 1.26252 0.320809 1.26155 -0.156232
46 1 7.76375 5.80789 2.36824 -0.434326 -0.203788 0.903809
47 1 0.723318 5.3842 0.981876 0.989877 -0.683912 -0.252337
48 1 5.4983 6.87554 1.05708 -0.120499 0.401151 0.938525
49 1 3.81318 2.99832 6.32405 -0.905944 -0.444603 0.59855
50 1 1.14667 4.43026 4.64732 0.308984 -0.842463 -0.648091
51 1 0.625006 4.92508 1.9059 -0.265722 -0.851198 0.0978249
52 1 4.67776 1.06316 2.43598 -0.0982677 0.61726 0.354393
53 1 2.9968 1.1709 3.71436 -0.494656 -0.98498 1.05823
54 1 8.31311 5.6371 9.1823 1.69565 0.623348 2.0661
55 1 1.5897 4.57042 6.90397 0.837952 0.716399 -0.376363
56 1 9.31375 3.4163 7.89375 0.0873376 0.0334036 0.292387
57 1 2.63391 5.27745 7.78422 0.451792 0.317427 0.17057
58 1 5.14257 6.75226 2.21595 -0.464935 0.667608 0.859904
59 1 7.85744 8.72062 7.12677 -0.552179 -0.383032 0.830558
60 1 1.72992 8.7259 3.56386 -0.264785 -0.314055 0.617978
61 1 3.89625 1.42253 1.89749 -0.0872354 -0.727903 0.034882
62 1 3.01906 7.69145 1.46333 0.61822 0.310529 0.213005
63 1 7.30046 1.06261 6.98899 -0.452235 -1.30134 -1.79718
64 1 0.576261 6.45846 1.69433 0.196201 -0.708438 -0.505474
65 1 8.42014 3.20426 4.81005 -0.382712 1.24919 0.339749
66 1 3.64858 9.34961 5.96345 1.0461 -0.632232 -0.0836593
67 1 6.36399 7.87806 2.22546 -0.587996 0.562577 -0.50531
68 1 5.41955 8.14844 7.34892 1.56125 0.961453 -0.196938
69 1 7.18129 4.9045 2.98391 -1.0439 1.02549 -0.758123
70 1 7.68557 3.98849 3.64651 -0.805437 0.197363 -0.295193
71 1 8.12909 3.64689 9.32056 -0.759352 0.85968 0.338288
72 1 5.69861 1.72901 3.85319 0.550165 0.172494 -0.559557
73 1 2.35608 7.92843 5.44708 0.360156 1.3025 -0.928599
74 1 5.35374 8.35662 2.95974 0.159628 -0.0772029 -1.34248
75 1 6.17047 1.86137 5.96629 -0.698731 0.451789 0.764266
76 1 8.1945 9.37193 1.7989 0.132157 -1.38977 0.495867
77 1 0.99482 3.30573 4.43436 0.506031 0.481159 0.0684508
78 1 0.54539 6.45252 2.68452 -0.19053 0.334619 -0.992644
79 1 5.52176 2.04638 7.06725 -0.982099 1.35825 1.64595
80 1 9.37139 7.96838 9.18277 0.17383 -1.16524 -0.522317
81 1 1.44263 7.99644 6.02211 -0.104416 0.745635 1.74874
82 1 5.53592 9.00145 3.76421 -0.253042 0.789938 1.27675
83 1 5.40829 5.73964 4.66224 0.0362117 -0.47927 0.291277
84 1 0.901991 6.49603 5.46126 -0.438527 -0.194563 0.225985
85 1 1.17753 1.96397 7.85302 -0.476021 0.0697653 -0.497799
86 1 4.18473 2.03265 9.30192 0.25693 1.4291 -0.390856
87 1 4.8927 4.71174 3.16659 1.31067 -0.0987018 0.364828
88 1 8.84322 0.946748 7.00376 0.801842 0.935676 1.74708
89 1 3.78232 4.68841 5.49381 0.0999302 -0.253224 -1.15973
90 1 5.58655 3.75602 1.89362 -0.507016 0.276479 0.975513
91 1 7.11871 6.86431 5.1708 -0.564619 0.318071 -0.535533
92 1 8.29429 9.09263 7.9521 -1.09532 0.593518 -0.338687
93 1 2.90993 0.324797 4.25729 0.671679 0.690768 -0.342774
94 1 1.32845 5.76897 4.68658 -1.03952 0.764028 -0.27914
95 1 8.43051 6.73899 4.2915 0.49594 0.422932 0.512787
96 1 6.48481 8.05067 7.52165 0.612585 -0.667451 1.29893
97 1 1.88579 4.05201 1.01078 -0.573259 0.380293 -0.406823
98 1 6.01269 7.3982 0.104542 -0.010849 -0.520554 -0.316096
99 1 3.70287 0.381103 4.96901 0.233486 0.969993 0.149735
100 1 6.87729 8.49818 5.38059 0.202836 -0.205653 0.482011
101 1 4.33377 5.52281 4.98341 0.187331 0.539211 -1.77638
102 1 4.42086 7.83274 2.87201 0.629666 -0.120209 0.106079
103 1 3.60657 8.36423 3.36009 0.861246 0.325402 0.133452
104 1 2.36144 8.1391 2.8449 0.690877 0.899937 -0.16836
105 1 8.6453 1.17035 5.01136 0.469083 -0.56231 0.0261476
106 1 7.45467 1.4447 7.95162 -0.830003 -0.9671 -0.00495307
107 1 6.20974 6.07098 1.34387 -0.155752 0.249334 0.524396
108 1 9.30503 1.83945 3.32145 0.700525 -1.02002 0.669616
109 1 6.62053 3.23381 2.22063 -0.112741 0.0279125 -1.58392
110 1 9.04453 5.14048 7.16675 0.0960945 -0.87858 -0.545614
111 1 8.00397 4.85591 7.14708 0.448556 1.02791 -0.878724
112 1 7.09272 8.85717 9.24545 -1.56631 0.619722 -0.653193
113 1 3.99117 4.17619 0.321333 0.420656 -0.520849 1.39463
114 1 0.903965 1.54115 1.32002 1.01977 0.423284 -0.67112
115 1 6.13898 0.381577 3.47892 -0.425551 -0.712804 -0.653773
116 1 5.82568 2.84793 9.35806 0.319535 0.725838 0.559995
117 1 7.54225 8.33141 8.08756 -0.153353 -0.00925662 -0.302808
118 1 7.58874 2.20018 6.5594 0.381314 1.1799 -0.0580187
119 1 4.39817 0.416062 7.55084 -1.39821 0.548251 -1.3845
120 1 1.37359 6.41749 8.7228 -0.362868 1.57172 -0.29349
121 1 6.19114 0.129337 4.4924 -0.912509 0.87209 -0.534299
122 1 1.87057 7.32107 8.78005 0.47579 -0.342522 1.44719
123 1 1.90704 7.07846 5.93028 -0.340931 0.388886 -0.12142
124 1 4.75483 1.41372 6.46348 0.848843 -0.749361 0.917398
125 1 6.23902 7.10935 5.80866 -0.999697 0.754454 -1.20541
126 1 8.86998 3.9467 2.69419 1.6809 -1.20749 -0.910631
127 1 3.74417 8.8328 4.30519 1.30142 -0.336231 -0.0830085
128 1 4.26618 5.6332 8.07262 0.987573 -0.113146 0.187394
129 1 3.15522 4.5624 9.3236 0.387913 0.192064 0.678642
130 1 3.94481 0.823311 4.03523 1.89273 0.57922 -0.802432
131 1 8.45301 2.36792 1.47611 0.7748 0.587306 0.105371
132 1 7.97407 2.79073 5.67217 -0.547608 -0.285492 -0.919521
133 1 6.08688 6.87716 1.98612 -0.384008 -0.964791 0.424672
134 1 0.586713 5.013 4.00766 -0.283438 0.396625 0.293123
135 1 5.51564 8.49933 1.96228 0.634125 -1.20447 0.425282
136 1 7.9574 0.352762 6.67614 -0.706998 0.787274 -0.0312427
137 1 1.53862 5.86849 0.274773 -0.042086 -0.324576 0.144212
138 1 7.62849 2.69227 9.29781 0.729327 -0.419538 -0.953075
139 1 0.226471 1.42756 6.56399 -0.266415 -0.594524 0.278052
140 1 3.15011 3.69667 6.05395 0.597619 1.13384 -0.165388
141 1 3.66951 8.15676 7.76651 -0.304476 -0.350855 0.868417
142 1 3.24802 2.25218 0.316154 -0.0569541 -0.823278 0.338863
143 1 3.9716 5.24403 9.3783 -1.29033 -0.167635 0.425874
144 1 0.835673 2.43847 5.03267 -0.326804 -0.313707 -0.664972
145 1 7.33314 4.54425 9.33891 1.50107 -0.5663 -0.0146994
146 1 4.80042 1.35018 0.294477 -0.873445 -0.271889 -0.550549
147 1 5.21838 2.26152 6.07872 -0.0278139 -0.380091 -0.526189
148 1 9.37259 5.44457 8.5268 0.141085 -0.0730391 0.265049
149 1 2.73069 8.93708 3.55474 0.400912 0.689826 0.566263
150 1 6.42082 0.503602 2.46832 -0.61553 -0.661046 -0.700884
151 1 0.0390847 8.64918 5.10098 0.226029 -0.184575 -0.728649
152 1 5.23722 7.91136 8.96565 -1.22463 0.156432 -1.22958
153 1 1.49322 6.11349 1.3649 0.530233 0.00391546 -0.329023
154 1 3.34926 7.65545 9.1677 -0.610193 -1.3623 1.05237
155 1 0.579729 7.22262 3.46149 -0.129808 0.255211 -0.119241
156 1 4.56203 8.4589 3.70894 0.586662 -1.07241 1.10009
157 1 6.25611 5.47914 7.37627 -0.00992231 0.319698 -1.39475
158 1 1.94636 6.37049 6.80724 -1.02182 -0.0768853 0.496278
159 1 0.95178 6.59727 6.51989 -0.131623 0.348732 0.429692
160 1 3.74943 1.74872 7.37573 0.345305 -0.177463 -0.316107
161 1 1.76994 2.81661 5.53865 0.996601 0.685372 1.02402
162 1 8.57947 2.80328 8.73829 0.311552 -1.50375 -0.663152
163 1 1.71199 2.62767 3.45486 -0.511879 -0.416415 1.26397
164 1 3.58222 8.6586 0.205762 -0.307407 -0.544314 -0.768287
165 1 6.60734 1.78988 1.07804 0.186646 0.599487 0.374333
166 1 4.7236 7.25816 3.68913 -0.527614 -0.555715 0.521149
167 1 1.79793 6.66158 2.17682 -0.298521 -0.335269 -0.429465
168 1 7.16951 3.6043 0.383075 -0.657718 -0.389068 0.086933
169 1 2.38601 6.54897 8.06624 0.596414 -0.197048 0.721223
170 1 8.95794 2.95331 3.24083 1.66614 0.940683 -0.85861
171 1 6.95645 7.60158 0.502336 0.436541 0.0367549 0.326362
172 1 2.6036 2.36644 8.7991 0.771435 -0.741369 -0.0655909
173 1 8.46353 4.1765 1.72281 -0.483888 -0.909095 1.224
174 1 1.73502 3.97469 5.978 -0.444612 0.977398 -0.608286
175 1 6.95937 7.00027 8.95354 0.96496 0.588385 -0.1113
176 1 2.05361 8.99909 6.1266 0.614619 -0.369349 -1.07952
177 1 5.2504 6.78516 9.23992 -0.689906 -0.236394 0.638692
178 1 7.9904 2.97546 3.84494 -0.83719 -1.55485 -0.0154307
179 1 5.49223 0.437441 6.22492 0.257931 -0.604019 0.419795
180 1 9.24369 8.56966 3.99369 1.06346 0.885419 0.226121
181 1 8.11923 6.04147 3.28957 0.503316 -0.269266 1.11455
182 1 5.84948 3.58576 6.2163 1.19464 -0.214882 0.193212
183 1 2.31248 6.35597 9.11153 0.150242 0.857442 -1.1891
184 1 3.78558 9.14092 8.09367 -0.00310003 0.788806 -0.131191
185 1 3.11693 6.39813 6.92835 -0.959389 0.346182 -0.562891
186 1 2.91722 5.13289 6.04815 -0.282162 0.698528 -0.047432
187 1 2.66543 0.165366 5.2581 -0.578551 0.799501 -0.615444
188 1 3.41056 5.2157 0.837373 0.413364 0.399643 0.238406
189 1 4.65712 5.15664 4.13099 -0.0160783 -0.776283 -1.4078
190 1 5.19804 6.38873 3.41252 -0.357796 -0.250555 -0.0615507
191 1 5.20632 5.03051 8.13853 0.859408 0.554952 0.985121
192 1 0.577323 4.39295 8.17878 -1.76299 0.453114 0.817258
193 1 2.7381 7.55572 8.1799 -1.54737 0.390016 -0.219382
194 1 0.546583 8.78863 0.0857637 1.12199 1.12906 -0.0855209
195 1 8.69065 0.102031 3.55174 0.05022 0.531623 -0.471517
196 1 2.38743 1.90761 4.09316 0.440625 0.982973 -1.61206
197 1 5.946 6.46206 7.46356 0.331748 -0.748164 1.1707
198 1 2.39779 1.58842 0.153436 0.283285 -1.19783 0.0501389
199 1 8.70664 7.434 5.0733 0.599854 0.723217 -0.154752
200 1 4.84557 8.89028 8.15368 -0.156704 0.12337 -0.359632
201 1 5.11779 2.41758 3.2687 0.925104 -0.557169 -0.525768
202 1 8.42078 8.33898 3.20097 0.754401 -0.443436 0.428072
203 1 6.13878 8.95807 7.27805 0.362362 0.261107 -1.41061
204 1 5.42245 1.08176 7.30178 0.365764 -0.424467 0.197101
205 1 5.93928 9.13012 5.42955 0.303249 0.351525 -0.454042
206 1 1.86566 0.963505 4.59849 0.387821 -1.09713 0.663432
207 1 6.54722 2.87379 0.692836 0.520399 -0.836222 -0.504413
208 1 6.82556 4.92434 4.8795 0.0466932 -0.490041 0.00224837
209 1 6.12957 0.815931 5.46229 0.695722 -0.242159 -0.209046
210 1 9.20801 0.499367 7.94283 -0.212559 -0.248071 1.07985
211 1 8.2678 2.0229 0.416527 0.45117 -1.10211 -0.532789
212 1 6.97452 8.33035 1.23591 -0.0173268 -0.809739 -0.875838
213 1 2.73937 2.77687 3.70422 -0.0487601 0.0371851 -0.539121
214 1 8.09338 2.33658 7.9804 -0.86989 0.558318 0.401802
215 1 3.06003 4.99851 4.76451 0.194087 0.114277 -0.468514
216 1 5.21886 7.00105 5.57133 -0.928929 -0.127573 0.986786
217 1 3.33265 0.960487 5.82844 -0.270139 -0.42862 0.21561
218 1 3.1915 3.63587 2.63308 -0.353314 0.62953 0.146573
219 1 5.72178 4.26973 0.70296 -0.694608 0.329692 0.228466
220 1 0.274999 1.54994 7.5924 0.413649 0.426617 0.970454
221 1 7.00633 0.292907 5.21303 0.248149 0.967605 -0.580146
222 1 7.09225 5.88704 3.12653 -0.481376 0.742293 -0.605137
223 1 0.99372 0.781087 7.60651 0.848939 0.83349 -0.309544
224 1 7.53423 6.40887 4.11248 -0.381745 -0.674464 -0.205063
225 1 7.30043 5.57743 6.96828 -0.282833 -0.31185 0.293171
226 1 1.56926 7.71196 3.51356 -0.433242 0.52979 -0.797406
227 1 5.47884 7.86457 3.97572 -0.85372 -0.0568905 -1.05183
228 1 6.73259 3.15861 8.98975 0.0107993 -0.207097 0.351982
229 1 3.46364 9.01777 1.49223 1.02057 1.17219 0.470405
230 1 3.23113 3.46401 7.11172 -0.416579 0.0699106 0.28662
231 1 5.43307 6.50866 6.52354 -1.13349 0.457799 1.13545
232 1 7.68225 4.06284 2.62872 -1.84177 -0.331012 -0.372583
233 1 7.39763 1.38873 0.447611 0.158019 -0.562368 -0.277771
234 1 5.52765 8.98476 9.26895 -1.72476 -0.339542 0.641989
235 1 8.16143 7.69255 6.49209 -0.213653 0.466448 -0.883047
236 1 2.05896 5.31296 8.77671 -0.886919 0.234516 -0.0796467
237 1 5.56624 1.07243 1.01056 0.326262 1.40186 -0.255158
238 1 6.08699 6.49607 8.66419 -1.10741 -0.102105 0.831125
239 1 3.86143 8.41183 6.24956 0.0517811 -1.42272 0.0985305
240 1 4.65349 2.90592 5.47646 -0.284536 0.0156085 -0.771386
241 1 4.08163 4.04705 3.18718 0.524495 -1.07738 -0.38262
242 1 7.56648 3.65753 1.61142 0.263126 0.719323 -1.11042
243 1 0.819053 9.26109 1.08129 -0.385393 -1.38898 -0.21256
244 1 6.16196 7.80666 6.54015 -0.0228316 0.445909 1.13656
245 1 5.97014 2.95741 3.51174 0.116267 0.676176 -0.0132676
246 1 8.24239 0.0437332 0.710441 0.162153 -0.520979 0.122671
247 1 5.16829 3.70568 2.96369 0.562549 0.154063 0.502784
248 1 4.396 9.11322 5.27175 0.710636 0.313129 -0.640129
249 1 2.62796 4.29746 6.64723 1.29293 -0.0213797 -0.438169
250 1 4.61047 6.20574 4.21126 -1.1695 -0.0315434 0.845879
251 1 6.32309 2.89811 7.90744 1.10961 -2.22911 -0.611779
252 1 0.319306 4.02987 4.17564 -0.679374 0.402666 -0.398906
253 1 9.04918 5.87091 2.65377 -0.280744 -0.432633 0.186913
254 1 4.76038 1.70313 1.36865 0.126989 -1.75344 -0.528932
255 1 7.49355 3.02074 2.91245 -0.512435 0.241451 -1.02133
256 1 0.54027 3.19516 0.444227 -1.3461 -0.725464 0.492412
257 1 5.6115 1.04538 2.86851 0.0610511 0.842831 1.2095
258 1 2.03655 7.74377 1.95226 0.649293 0.10353 0.560699
259 1 3.33438 6.13941 7.87586 1.12823 0.182517 -0.362639
260 1 2.31501 2.57924 0.682874 -0.139566 -1.24544 -0.405709
261 1 8.95367 6.33902 8.6742 1.06062 0.324715 0.88349
262 1 3.83322 0.923468 9.2585 1.01949 -0.617024 -0.296616
263 1 6.56869 4.76791 3.85335 0.238085 0.0484286 -0.321571
264 1 6.69842 7.0083 6.88065 -1.2506 0.0959808 0.147203
265 1 4.72112 4.4384 4.91465 0.416949 0.829074 -0.205958
266 1 5.42325 6.8201 4.53933 -0.745615 -0.0848009 -0.21991
267 1 6.54871 2.22151 2.08762 0.695771 -0.90091 0.984356
268 1 5.5105 8.73488 6.41711 0.603999 0.505549 -1.11637
269 1 2.26608 5.16073 0.469778 0.726361 0.218785 -0.328942
270 1 0.148643 7.53836 1.78667 -0.618497 0.0704063 2.14874
271 1 4.51381 6.78885 1.23076 0.990075 -0.183059 -0.970807
272 1 0.766073 8.26462 3.24842 0.0164974 0.415779 0.211432
273 1 6.74107 3.73751 3.14717 0.486648 -0.0362081 0.8662
274 1 5.20138 7.60141 6.45196 -0.206259 0.106247 -0.426672
275 1 4.04572 5.83014 1.43187 0.0748491 -0.348609 0.45588
276 1 6.92186 7.34746 1.56177 -0.0566372 -0.913203 0.121325
277 1 4.55507 0.00664685 4.29264 -0.461101 -1.22111 -0.435266
278 1 1.12745 4.9162 5.98629 0.143803 -0.262601 -0.455373
279 1 1.01316 7.44873 2.42019 -0.191691 -0.072128 1.01386
280 1 4.16878 2.00987 2.84429 0.886112 -0.202918 0.652236
281 1 6.69522 8.86579 3.75843 -0.461856 -1.55324 -0.332533
282 1 8.95263 6.6441 1.37335 -1.91863 0.506752 1.02711
283 1 8.50297 7.51277 1.70815 0.962367 -2.0919 0.190293
284 1 7.04988 7.47896 3.8878 -0.762664 1.08972 0.732963
285 1 7.8314 9.00367 3.94474 -1.45909 -1.76646 -0.0258879
286 1 2.60555 0.172489 8.08849 -0.688638 0.514066 0.463154
287 1 2.4143 9.40845 7.10278 -0.652798 0.870122 0.407248
288 1 3.34132 7.4108 6.54094 1.15527 -0.462536 0.344992
289 1 7.61261 1.35044 3.82462 -0.214734 -1.04789 0.449585
290 1 3.45075 7.13329 7.51869 0.218285 0.474014 -0.578027
291 1 5.0875 3.77616 9.35701 -1.02127 -0.959311 -0.119496
292 1 0.3733 7.48609 5.46534 -0.347876 -0.975365 -0.59326
293 1 0.971493 2.03092 2.98496 -0.75534 -0.608297 0.287295
294 1 9.42247 6.18646 7.12755 0.990185 0.370349 0.615008
295 1 7.50449 3.87949 7.37749 -0.201265 -1.11427 -0.575687
296 1 7.84335 7.23788 8.163 -0.870344 -1.44656 0.699391
297 1 5.77645 4.75092 4.61794 0.364043 1.52046 0.343121
298 1 2.66135 6.18262 6.05538 -0.946204 0.0412662 -0.0923625
299 1 6.11815 6.95751 3.79033 -0.92026 1.18201 -0.547124
300 1 9.23456 4.7717 1.09234 -0.849941 0.317192 -1.01694
301 1 2.75172 8.72332 4.64306 -1.7839 -0.294682 0.229177
302 1 7.97986 0.457895 5.62265 -0.65906 -0.357092 -0.75813
303 1 0.63572 9.14849 2.14918 -1.02799 -0.298983 -0.0302902
304 1 8.33507 4.68905 4.00406 0.735892 1.7235 0.568161
305 1 1.63097 9.18223 1.64663 1.07706 0.414563 -0.44684
306 1 5.4987 9.37478 2.63607 -0.401842 1.2668 -0.116056
307 1 5.52624 0.282474 1.62569 -0.604246 0.0398218 -0.948086
308 1 0.295996 0.368195 6.93877 0.0185751 0.122222 -0.631717
309 1 8.68512 6.75987 7.727 0.64523 -0.872467 -0.245261
310 1 5.59669 5.25019 6.48312 0.188163 -0.331479 -1.62029
311 1 9.25339 7.43053 8.20709 0.815076 0.00127225 -0.0587922
312 1 3.62886 5.36751 2.21495 0.0340753 -0.640203 0.117209
313 1 7.76439 2.21816 2.27666 -1.21346 -0.054503 -0.21606
314 1 8.22979 5.00928 3.02822 1.22104 0.619156 1.046
315 1 3.729 4.57963 6.49202 0.0200615 -0.39189 -0.632404
316 1 0.773997 3.70342 5.3599 0.18243 0.306469 -0.427477
317 1 8.76432 1.45275 8.06607 -0.233531 -0.436815 1.13459
318 1 0.442567 5.71078 6.1496 -0.310123 -0.54259 0.107822
319 1 1.75666 8.98919 0.622568 -0.98763 1.26786 -0.0825422
320 1 4.44437 6.54545 6.24849 0.133983 -0.424516 0.389392
321 1 1.29346 4.02191 1.82911 1.61797 -0.0284687 -0.0051947
322 1 1.44159 6.71823 3.22146 -0.141531 0.351568 -0.588594
323 1 2.42094 5.28216 2.58725 -0.119828 1.93606 0.00386547
324 1 2.12314 3.80946 7.58382 -0.0845195 -0.239127 0.139529
325 1 5.1772 5.9575 1.53184 -0.891312 -0.906287 -0.107405
326 1 5.89693 1.92658 4.96126 -0.627451 -0.091425 -1.23597
327 1 5.6615 0.121041 8.11352 -1.05677 1.19607 -0.398881
328 1 7.0557 6.54103 0.870987 -0.197378 0.228711 1.01815
329 1 9.38249 8.7652 7.79065 0.238868 0.416642 -0.536224
330 1 3.0297 5.59103 9.23916 -0.228574 0.602778 0.693647
331 1 4.25082 2.31487 4.70797 -0.267742 -0.770431 -0.120655
332 1 4.714 1.45586 3.57921 -0.617978 -0.339701 0.316099
333 1 1.21029 4.33773 3.57625 0.276765 0.928981 1.16331
334 1 9.4078 6.70652 6.11228 1.12615 -0.47102 0.064539
335 1 1.39559 2.69942 2.32877 2.25455 -0.525555 -0.559201
336 1 7.41899 6.33097 6.28892 0.163037 -1.57862 0.132018
337 1 8.35849 3.39183 7.53362 1.02051 -1.57544 -1.48601
338 1 0.573641 2.36579 6.93819 0.270075 -0.100804 -0.664915
339 1 1.10367 3.07443 6.21035 -0.0818392 -0.522975 -0.394371
340 1 4.69583 0.334514 3.19117 0.961538 1.1919 -1.32156
341 1 6.60147 3.45258 7.10119 0.562877 -1.01422 0.5994
342 1 7.36061 5.73589 1.45192 -0.564105 -0.267084 0.0365994
343 1 6.57994 5.85482 3.98123 0.700408 -0.158224 0.0563836
344 1 0.979523 2.0321 6.01387 -0.536911 -2.32769 0.934993
345 1 7.9577 6.22459 8.31615 -0.217429 0.701997 -0.476756
346 1 7.71501 8.50583 0.603381 -1.23445 1.0436 -0.300145
347 1 6.32874 5.37642 8.54684 0.163168 -0.561625 -0.865478
348 1 6.6511 2.36016 6.8783 -0.17576 0.428611 1.11381
349 1 1.56568 4.69992 7.96844 0.34556 -0.139138 0.133554
350 1 3.90857 3.07234 7.72232 -0.370941 0.0117593 0.405928
351 1 6.3457 8.03022 3.40582 0.842171 0.154186 -0.0890227
352 1 4.59888 7.70886 7.99665 0.264565 -0.518217 0.171847
353 1 0.0231492 3.13774 4.89528 -0.225842 0.354969 -0.72785
354 1 8.83884 5.75678 6.26534 -0.973129 -0.386474 -1.51981
355 1 1.05867 8.24249 1.50085 1.60707 0.248475 -0.250278
356 1 4.69916 1.60771 7.77203 -0.1734 0.215804 -0.411457
357 1 0.516218 2.12004 0.0213518 0.519351 -0.251677 -0.624955
358 1 4.21042 7.44632 5.8836 -0.0225872 -0.65471 1.59975
359 1 4.20114 6.71932 8.06181 0.0570206 0.591399 -1.14273
360 1 2.95486 1.7741 1.31424 0.415704 0.910911 0.141794
361 1 7.20534 2.00989 5.50392 0.47335 0.726601 0.156984
362 1 1.08856 0.0770784 3.23736 -0.851467 0.873736 0.145068
363 1 8.29764 3.19041 2.24793 0.0192387 0.349579 -0.702918
364 1 2.11082 0.897894 7.51069 0.245362 -0.713205 -0.82743
365 1 1.30937 4.82895 0.251118 -0.694942 0.143798 0.728562
366 1 4.61837 8.60363 0.405468 -0.488352 -0.114343 -1.01737
367 1 3.29009 3.26082 0.717855 1.13687 0.0515737 -0.409521
368 1 1.83672 2.70299 4.44607 0.290616 1.55865 0.51733
369 1 9.03779 6.51022 0.371523 -0.721709 -0.144791 0.633598
370 1 1.47409 6.85392 7.68387 0.0381671 -0.176116 -0.107369
371 1 3.44408 4.01885 4.82912 -0.0368354 -0.0255207 0.10648
372 1 5.78537 1.13201 8.29517 -0.312355 -2.43847 0.679052
373 1 7.58341 4.8414 1.90738 -0.0672413 -0.0510939 1.56476
374 1 9.3915 9.23167 6.08548 0.647691 -1.04333 0.335539
375 1 3.42937 6.63177 1.51989 -0.0625777 -0.611304 0.0968137
376 1 4.99445 2.39317 0.60034 0.122527 -0.114445 -0.776962
377 1 2.47198 7.21064 7.27675 0.0262125 1.25839 0.984128
378 1 4.05825 7.11366 2.28162 -0.27281 -0.165552 0.131401
379 1 7.04655 4.61808 6.70943 -0.756292 -1.21955 -0.667691
380 1 8.17211 3.77004 5.78298 0.547967 0.763761 -0.0427129
381 1 4.45595 3.12559 3.67004 -0.414998 -0.403471 1.04869
382 1 4.84021 8.23426 5.55306 -0.73329 -0.448447 -0.424
383 1 0.194455 8.5994 6.82406 0.69719 0.241314 -0.768135
384 1 2.88795 0.673726 2.73289 0.801779 0.405848 1.20682
385 1 4.35516 7.26217 9.06684 -1.19721 -0.341415 -0.03757
386 1 9.24832 4.56689 3.40014 -0.861582 -0.347184 -0.156741
387 1 9.00988 0.4658 2.3707 0.178814 0.322472 -0.601922
388 1 6.03843 6.22946 0.372855 0.215598 -0.144089 -0.0237719
389 1 6.50474 3.7397 5.38084 -0.169975 0.913408 0.734877
390 1 2.19354 6.24228 4.03278 0.629323 1.17972 0.143795
391 1 8.84562 0.695917 1.33884 -0.834472 -0.581579 -0.247631
392 1 4.53096 4.00122 2.1758 -0.195925 0.422727 0.602504
393 1 8.01629 7.40609 0.788516 0.0132853 1.3992 0.0601318
394 1 8.8956 5.26663 5.41597 -0.395462 0.516423 -0.45349
395 1 8.43361 0.988155 0.141809 0.459331 -0.0688235 -0.830132
396 1 2.70432 3.41663 1.57947 0.00676192 0.970169 -1.35442
397 1 6.42133 4.1044 9.14848 1.0538 0.514133 -0.294974
398 1 8.92735 2.96106 0.294598 -0.987205 0.559392 0.474969
399 1 7.18497 0.00194854 1.90175 0.793313 0.00190196 -0.0693126
400 1 0.507166 5.26511 2.90452 1.6266 -1.10199 -1.3067
401 1 5.58106 4.69425 9.04979 -1.21385 0.621675 -0.667628
402 1 1.96058 1.6309 1.19378 0.673495 0.116072 0.844424
403 1 2.39788 4.22855 2.19149 1.76825 -0.770362 -0.700257
404 1 3.80065 7.27503 0.689105 0.775706 -0.780517 0.399072
405 1 3.23035 4.48553 7.49377 1.42508 0.493415 0.549813
406 1 4.61158 8.97312 1.59287 0.579804 -0.269537 -0.0853201
407 1 6.37775 0.225781 9.00883 0.328521 -0.292512 -0.120813
408 1 1.25308 1.32708 0.36507 -0.217786 0.531293 0.788872
409 1 3.70129 2.9487 5.27491 -0.75724 0.845501 0.146145
410 1 8.36684 0.599577 8.59167 0.211899 -0.4433 0.310889
411 1 4.75472 7.74976 1.61043 -2.47623 0.504807 -1.05635
412 1 2.21061 7.26497 4.32174 -0.00860077 -0.546013 -0.928037
413 1 2.32709 0.92482 1.87343 0.809042 0.0566834 0.533414
414 1 6.02212 2.15844 8.64569 -0.391298 -0.362881 -0.880211
415 1 8.11834 9.05147 9.05076 -0.49123 0.192118 -0.454569
416 1 0.00770008 0.812459 9.08304 -0.116226 -0.377783 -0.417012
417 1 6.60439 1.25807 3.41739 -0.79612 -1.12377 0.793142
418 1 3.59426 1.90248 3.96704 -0.825732 -0.575807 0.201586
419 1 5.92002 1.35566 1.90306 -0.0134434 -1.1059 0.261849
420 1 2.63862 4.30845 5.41705 -1.2619 0.434459 0.573059
421 1 7.0905 7.6351 5.98574 -0.759243 -0.60728 -1.64373
422 1 7.79107 3.93963 4.79584 0.387982 -0.24347 -0.768904
423 1 7.91157 2.10271 4.49371 0.0706854 0.509607 0.00659953
424 1 3.09066 6.41467 3.60818 -1.39914 0.579671 0.984812
425 1 1.63417 1.18267 6.04393 1.37817 1.30079 0.955468
426 1 2.01638 1.59289 8.42632 0.667796 -0.219838 -0.838676
427 1 7.31807 4.36345 5.70222 -0.718141 -0.0116289 -0.559164
428 1 4.42959 8.73253 7.20054 0.168658 -0.503141 0.0304436
429 1 7.05932 0.475509 3.95431 -0.0499763 -0.347911 0.625152
430 1 7.89765 5.0079 4.99429 -0.0554273 2.1974 0.406487
431 1 8.92226 2.37089 4.13351 -0.690789 1.56082 -0.5607
432 1 1.42757 8.50331 2.45679 1.22211 0.692487 -0.129226
433 1 1.77534 8.21049 4.48065 0.779516 -0.774749 1.29499
434 1 7.54116 5.41168 0.474211 0.461179 0.337211 1.02071
435 1 5.91513 7.86382 1.16205 0.811207 -0.521205 -0.233155
436 1 7.97134 5.95044 5.58859 1.036 1.03105 -1.04071
437 1 5.92193 4.64081 2.90684 0.17283 -1.03211 -0.0986816
438 1 1.3242 5.7318 2.25679 0.574093 -1.17211 0.133436
439 1 3.48161 7.36736 3.14157 -0.222823 -0.053129 0.441007
440 1 6.66138 5.02847 1.30931 -0.807352 0.295946 -0.495856
441 1 7.12322 1.29102 2.05434 0.0792602 0.105344 -0.128058
442 1 6.83082 3.86346 4.33283 0.459115 -0.0654839 -0.30702
443 1 3.28588 4.71078 2.88732 0.856631 0.478855 -1.0118
444 1 0.216975 5.73279 4.75271 -0.0833254 0.430976 -0.105577
445 1 7.05769 4.85251 7.75037 0.415485 0.600765 0.206483
446 1 8.67778 2.07992 6.28065 1.81266 0.831135 0.711561
447 1 9.16562 5.50927 0.390564 0.203148 -0.262516 -0.53766
448 1 2.41443 7.96905 -0.0240101 0.985593 -1.4908 -0.871101
449 1 4.09872 6.11206 7.09497 -0.34205 0.880152 0.215014
450 1 2.43781 7.95155 6.51641 0.242223 0.725485 0.141743
451 1 6.04663 4.50889 8.0579 -1.15966 0.199523 0.0976153
452 1 4.43131 6.1701 9.07235 0.740879 -0.534182 0.54156
453 1 2.81696 2.65291 5.8004 0.350729 -0.331238 0.648287
454 1 1.97977 7.96896 0.921492 0.63496 1.41496 0.0399399
455 1 0.394327 4.85492 5.26242 0.0685951 0.279687 0.605162
456 1 1.63718 3.08515 1.3633 -0.385182 -0.793994 0.0943411
457 1 6.77408 7.15226 7.9055 -0.259865 0.539305 -0.835932
458 1 2.89344 6.54391 4.69075 -1.25086 -0.505908 -0.520728
459 1 8.63112 4.29478 7.7764 0.46958 -0.862378 1.69201
460 1 6.66197 2.83525 5.9223 -0.898996 0.16338 0.440543
461 1 8.82581 4.45727 8.78067 -0.0707156 0.352147 -0.370275
462 1 4.37897 9.35087 9.07735 0.504061 0.710799 1.51038
463 1 2.98706 0.744391 0.478942 1.48999 -0.630809 -0.263362
464 1 8.54427 3.15307 6.48795 -0.351949 -0.0598346 0.17308
465 1 1.71023 5.74417 7.83057 0.920359 0.828614 0.989435
466 1 4.49926 2.41071 7.16516 -0.603479 0.127598 -0.155586
467 1 5.07448 2.08864 2.26319 0.108721 0.430367 -0.552721
468 1 7.96183 7.25472 3.45919 0.686337 -0.983794 0.96629
469 1 7.13437 0.976457 5.97988 0.669085 0.716992 -0.703789
470 1 7.35853 2.86628 7.48991 -0.859146 1.11792 -0.387213
471 1 3.72405 1.8786 6.33754 1.18773 -0.493302 0.416613
472 1 8.89134 3.44089 1.20629 -0.677797 0.10486 0.34321
473 1 2.20507 1.92887 7.43476 -0.689379 -0.575895 -0.701913
474 1 9.00115 8.44481 2.22808 -2.24981 -0.357986 -0.981849
475 1 0.94595 1.19795 8.7578 0.154346 -0.220035 -0.150328
476 1 0.685517 0.160449 8.50213 0.0235403 -0.754031 0.112073
477 1 0.46946 0.711444 1.69446 0.290913 0.31096 -0.241517
478 1 5.7697 8.44299 8.29376 -0.00602667 0.957407 -0.893923
479 1 1.60642 4.99915 1.22868 -1.20902 -0.451754 -0.378604
480 1 3.27693 0.697886 1.45991 -1.20727 -0.142576 -0.631877
481 1 3.09778 3.9114 3.66231 -0.123563 0.575983 0.361885
482 1 9.32903 2.34606 8.19762 -0.594102 -0.151196 -0.183145
483 1 3.12303 7.56421 4.81671 0.250641 1.35241 -0.766106
484 1 5.238 0.417734 5.03459 -0.34277 -0.588927 -0.742864
485 1 5.11726 6.40211 8.2468 -0.262778 0.861684 0.199618
486 1 6.50916 8.86854 2.67592 -0.515178 -0.925277 1.04714
487 1 7.04935 6.40768 2.16584 -0.569686 -0.300103 0.256137
488 1 7.46082 7.69964 7.26666 -0.909938 -0.600947 0.313829
489 1 0.052215 0.234067 0.546514 -0.342864 0.262956 0.490089
490 1 2.76362 7.94076 3.88666 -1.84589 1.46018 0.636005
491 1 7.69498 7.43779 2.38361 -0.0644945 -0.434844 0.743982
492 1 6.45949 1.85505 7.80666 -0.162356 0.15878 0.766536
493 1 6.74484 1.24451 8.72301 0.534222 -0.858288 0.178546
494 1 5.70692 2.96365 5.43375 0.431738 0.420426 0.0766299
495 1 6.95826 2.88481 3.82476 -0.496195 -0.092755 -0.366161
496 1 2.86226 3.38151 8.17169 -0.235561 -0.357823 0.467058
497 1 3.29979 0.0791646 9.04151 0.816551 -0.928441 0.587082
498 1 7.10317 9.34525 0.784669 0.538015 -1.01552 0.525272
499 1 3.17518 8.94167 2.57933 -0.606978 0.328429 -0.142044
500 1 4.1434 4.73797 1.18833 -1.35163 -0.455532 -0.161572
501 1 5.26259 8.72049 4.68095 -0.428571 0.479852 -0.292748
502 1 2.45339 4.29064 4.31105 0.521286 0.380689 0.365023
503 1 4.43183 6.01847 2.43068 0.0173426 1.19964 0.21237
504 1 5.56744 3.26681 0.858446 0.24612 -1.27397 -1.4052
505 1 8.45669 6.80722 2.51952 -1.25253 0.812068 0.139263
506 1 0.689737 0.15554 5.08496 -0.243222 -0.0188221 -0.401055
507 1 8.07563 0.70446 7.63649 -0.62612 -0.209848 0.582454
508 1 7.38428 0.753226 2.89798 0.397184 -0.662271 0.918939
509 1 0.508394 7.10539 7.42056 0.490285 -1.17244 0.547284
510 1 0.0810709 9.07459 2.97202 -0.188546 -0.0157741 0.350622
511 1 6.35604 7.39486 4.77946 0.391092 -0.0202843 0.722017
512 1 1.86085 5.15538 4.10844 -1.09539 0.15411 0.125987
513 1 1.47743 7.42958 5.05143 -0.333062 0.148716 -0.742071
514 1 7.94346 6.97662 5.69107 0.0678795 -0.702166 -1.33313