ITEM: TIMESTEP
42750000
ITEM: NUMBER OF ATOMS
1000
ITEM: BOX BOUNDS pp pp pp
0.0000000000000000e+00 9.4000000000000004e+00
0.0000000000000000e+00 9.4000000000000004e+00
0.0000000000000000e+00 9.4000000000000004e+00
ITEM: ATOMS id type x y z vx vy vz
1 1 9.13062 4.88062 1.45155 0.416007 -0.288143 0.404152
2 1 7.21439 7.00218 0.496182 -1.1584 0.439094 -0.0482084
3 1 3.84326 2.34235 3.72712 -0.695095 -0.579786 -0.290017
4 1 5.37522 6.44715 0.415893 0.0398255 -0.594126 0.0610092
5 1 1.50565 8.8121 3.85313 -0.462041 -0.54366 -0.303311
6 1 6.82932 8.30568 7.35857 -0.0855475 -1.11301 0.504463
7 1 2.34731 0.379932 1.97043 -0.624352 -1.42625 -0.0555835
8 1 4.60647 0.893617 6.92455 0.13947 1.62128 1.00046
9 1 3.07258 5.67141 5.17096 -0.591149 0.0223472 -0.705767
10 1 2.38976 6.96881 9.08337 -0.307359 -0.453892 -0.651921
11 1 6.53263 8.98293 5.96904 -0.748336 -0.4327 0.544166
12 1 8.91002 0.119401 0.460661 0.604228 -0.258729 0.680013
13 1 1.60973 2.93621 1.12792 0.783313 1.028 0.472516
14 1 4.21771 4.10666 4.09049 -0.973237 -0.258051 -1.17615
15 1 7.76499 2.13024 0.467015 0.725927 0.331814 0.118648
16 1 1.40671 1.35041 6.19043 1.09508 0.448848 0.270615
17 1 8.56539 2.86574 1.01185 0.709535 0.910876 0.886782
18 1 5.44215 6.62437 8.75703 1.09224 0.0415747 -0.265562
19 1 3.82161 5.00897 8.32073 -0.94153 -0.218503 -0.278329
20 1 8.13121 6.44509 6.59287 0.567163 -1.15044 -0.711536
21 1 8.73417 9.03526 2.94671 -0.658179 -0.0463772 -0.366106
22 1 3.92916 4.55839 7.29675 0.257013 -1.09508 0.502308
23 1 5.15198 1.4851 8.96394 1.04777 -0.222683 1.05429
24 1 3.12445 6.41354 6.63859 -1.14823 -0.356558 -1.16753
25 1 6.27028 1.16919 1.44928 -0.75375 -0.86385 -0.591801
26 1 9.14611 3.07168 3.52537 -1.58242 -0.950817 0.337526
27 1 0.459275 7.36895 1.55538 -1.07832 0.945821 -0.693026
28 1 4.10513 2.31504 0.91249 -0.191257 0.648542 -0.726217
29 1 0.00275158 5.36849 6.07196 -0.717629 0.336423 0.24266
30 1 0.0526676 4.07734 6.08872 1.19977 -0.0968723 1.24727
31 1 2.52285 2.38837 1.54598 0.822036 0.0284555 -1.01635
32 1 7.40008 6.3249 5.63142 -1.04541 0.188327 -0.517074
33 1 3.69376 8.42952 8.419 0.171866 0.188273 1.18764
34 1 5.42378 0.0470795 3.87036 -0.308581 0.459281 1.44733
35 1 9.23254 1.40436 1.29593 -1.08575 -0.676567 -0.229857
36 1 4.00929 0.226754 2.58924 -0.0183073 -1.2137 0.726879
37 1 5.31567 8.84042 8.94276 0.0754973 -1.00657 0.357588
38 1 1.04404 7.93264 3.6358 0.324735 1.05695 0.364285
39 1 1.7103 7.60076 8.54969 0.515029 -0.423055 -0.632979
40 1 6.88446 2.01625 8.53227 -0.32434 -0.7739 0.0480793
41 1 7.49203 7.41733 5.44252 0.826681 -0.00146694 0.355996
42 1 1.56701 1.12074 5.14935 -0.6643 0.459953 0.00897919
43 1 1.45301 9.07307 8.61425 0.695646 -0.599419 -0.392491
44 1 1.23864 2.66853 5.61764 1.01845 -0.37983 -1.98261
45 1 6.3037 3.18214 3.66327 -0.803691 0.154052 0.586383
46 1 3.02952 3.39645 3.37046 1.09081 -0.926235 -0.206402
47 1 1.4465 5.82161 0.79728 -0.258262 -1.22831 0.458687
48 1 6.16488 5.19153 3.13337 0.556621 -1.19461 -0.446374
49 1 2.55269 3.90923 6.16562 1.16177 0.708273 -0.378837
50 1 1.63946 7.3052 4.22127 1.21536 -1.09648 -1.08665
51 1 1.59422 6.05504 2.91645 -0.122185 0.0253635 -0.390877
52 1 3.69901 1.13528 2.29956 1.92119 -1.1639 2.05432
53 1 3.22104 1.76125 4.38402 0.599104 -0.288468 0.284985
54 1 7.19491 6.49816 8.88659 -0.567995 1.51031 0.0626498
55 1 2.5037 6.0009 8.75493 -0.470543 -0.686155 -0.325061
56 1 0.323348 4.14943 9.05282 -0.24792 -1.30331 0.367084
57 1 8.74188 6.40196 7.40986 -0.351893 1.24225 0.0390425
58 1 6.25043 6.9299 9.37549 0.00703524 0.488137 0.757627
59 1 7.9033 8.45205 7.45795 0.441237 -0.235658 0.010351
60 1 2.61414 7.51699 3.86961 0.606335 0.850168 0.69558
61 1 2.56977 2.44825 3.61895 -2.07804 0.45941 -0.335255
62 1 0.376939 0.625885 0.843324 -0.701832 1.01065 -0.205028
63 1 7.52159 0.442327 6.34237 0.446998 -0.136405 -0.321397
64 1 8.80193 7.4859 0.839723 -0.902771 0.398513 -1.64255
65 1 0.480673 1.63821 4.39352 0.529152 0.196804 -0.278716
66 1 2.61319 6.5264 5.75302 -0.0568134 0.351307 0.220738
67 1 3.17284 8.95659 2.23396 -0.971059 0.336263 -0.102053
68 1 4.57082 6.17819 9.25586 0.45038 -0.747645 -0.639406
69 1 6.72537 4.38199 2.79821 0.12223 0.23761 1.3897
70 1 7.31931 2.1844 2.98412 -0.17698 -0.205673 0.411631
71 1 6.30709 3.67286 0.578238 1.51682 -0.952484 0.994742
72 1 5.84926 8.68413 4.50565 -1.19301 0.690627 0.158671
73 1 3.36385 7.29637 6.10898 0.115165 1.75961 -1.02937
74 1 4.75091 7.41985 4.38846 -0.103078 1.17528 0.754655
75 1 7.47716 2.36699 7.74445 -1.01083 -0.613121 1.47897
76 1 7.11711 2.33623 1.24815 1.55662 -0.158086 -0.39105
77 1 2.00085 3.31276 2.95593 0.67397 -0.973199 0.00159178
78 1 3.44086 7.77366 2.16396 -0.108903 -0.16089 -0.474374
79 1 7.14148 0.88595 7.38099 0.0893346 1.66975 -0.701963
80 1 8.99311 7.11364 9.20652 1.04808 -0.154451 0.547797
81 1 3.35436 6.71229 5.11759 0.0908229 0.130732 -1.19175
82 1 6.21903 1.30905 4.58974 -0.468804 0.45116 -1.17069
83 1 3.86737 5.14179 3.91881 -0.274721 0.880458 -0.636721
84 1 0.859412 7.07642 6.28956 0.240131 1.61743 -0.125512
85 1 2.25918 2.02494 0.510113 0.720678 -0.970337 0.421733
86 1 3.20021 3.68112 9.12157 -0.991969 -0.393935 0.342089
87 1 4.73306 3.07689 4.3597 0.271282 1.57908 -0.951796
88 1 9.24533 2.36341 8.02842 0.526467 0.331289 0.761282
89 1 1.07686 3.79116 2.83584 -0.242932 1.41511 -0.311945
90 1 8.01706 4.04874 1.96026 0.636455 1.39288 0.0375616
91 1 8.17428 6.10856 4.77089 0.393671 -0.503564 -0.00845497
92 1 6.4981 6.95534 8.19227 -0.555683 -0.533328 -0.144831
93 1 2.97124 8.95084 5.09306 -0.107402 -0.146533 0.951239
94 1 1.56364 8.4295 2.78564 0.247226 0.0338223 0.0434146
95 1 1.92718 3.91717 2.10021 -0.353378 -0.0787473 0.180178
96 1 3.24253 0.585068 9.05284 0.05035 -0.628953 -0.0859345
97 1 2.65079 1.38998 2.19721 0.115707 -0.485156 -0.22905
98 1 5.68703 1.15289 3.66163 0.758142 -1.80089 -0.75274
99 1 1.81578 0.346207 3.65258 0.5098 0.715687 0.98458
100 1 6.24759 7.12292 4.18908 0.190077 -0.838035 0.780995
101 1 4.7791 5.64432 3.95614 -1.68865 -0.22583 -0.00333774
102 1 6.40944 0.219564 4.40166 0.0336288 -0.350973 -1.11933
103 1 0.592907 9.11951 1.28711 -0.0757347 -0.508435 0.766394
104 1 3.95797 9.11702 9.23019 -0.612469 0.397903 0.32115
105 1 7.41104 8.51145 5.48373 -1.2617 -0.484742 0.303775
106 1 8.40268 1.98341 7.6358 0.635733 0.908844 -0.0539323
107 1 7.82442 7.47307 2.24633 0.806597 0.26571 -1.31147
108 1 0.786278 2.1338 6.47765 -0.0329331 0.0107736 0.472136
109 1 6.58281 3.42035 2.65879 0.15958 -0.491043 -0.26861
110 1 0.624947 6.05526 6.53294 0.613007 -0.823783 -0.80704
111 1 3.7862 6.49967 7.55688 0.991278 -0.884092 0.802188
112 1 6.62905 1.72363 0.560416 0.129496 0.585762 -0.647831
113 1 5.40394 3.80994 7.09324 -0.631434 2.056 0.221215
114 1 3.09796 1.57934 3.37885 0.112543 -0.218999 -0.572845
115 1 4.99515 9.16261 4.83249 0.659064 0.293514 -0.388606
116 1 5.74983 4.11417 8.36397 0.749403 0.461895 0.19597
117 1 9.05698 6.59089 1.3894 -0.353247 -0.158776 -0.79097
118 1 7.90536 2.15859 6.7757 0.246068 0.600526 -1.12485
119 1 6.40394 8.06598 5.21172 -0.293797 -0.259647 0.498503
120 1 1.9061 4.95778 1.20058 1.10956 1.04072 0.0691625
121 1 5.54998 7.4377 7.9616 0.32214 0.247581 -0.433217
122 1 2.0398 8.2937 9.27969 -0.0910319 -1.24634 0.261325
123 1 1.46668 8.35426 7.79099 -0.809737 -0.258942 -0.887287
124 1 5.91665 0.243824 5.37508 -0.108861 -0.725699 -0.0814107
125 1 6.40286 5.25463 7.31043 0.0603544 -0.947636 0.156794
126 1 0.456689 4.20965 1.94673 -0.946541 0.438581 -1.52027
127 1 2.29088 9.22269 4.36515 -0.867271 -0.128771 -0.507281
128 1 4.26209 8.16634 7.49444 -0.256218 0.359542 -0.140862
129 1 3.46112 4.24784 0.62559 0.276949 -0.846257 0.215575
130 1 4.27285 8.07901 6.34838 0.131462 -1.42015 0.0602002
131 1 8.85377 1.40042 4.08063 -0.0738519 -0.603957 -0.20305
132 1 7.18013 3.78186 3.57844 -0.803881 -0.734206 0.186369
133 1 4.94823 7.86342 2.43306 -0.484772 1.18926 -1.64821
134 1 2.46597 6.21604 4.50464 0.83872 -0.555894 -0.50827
135 1 4.71889 0.92224 3.96652 -0.593402 0.676407 -0.812469
136 1 1.67907 2.7875 7.88968 1.48541 0.440534 0.562235
137 1 1.92326 5.14837 0.109099 -0.796726 1.12703 -0.378541
138 1 7.95887 3.91804 8.02944 1.69115 -1.05434 -0.395406
139 1 0.902899 3.71271 5.37166 -1.12605 0.372141 0.835102
140 1 3.12345 4.1259 4.12015 0.0753699 0.00292902 -0.748756
141 1 4.51419 9.09466 6.98555 0.556571 -0.00476036 -0.739953
142 1 1.25116 2.44438 0.209692 0.0434673 -0.565736 0.0795108
143 1 2.51907 6.43734 1.58154 0.542178 0.155035 0.00698555
144 1 1.55806 3.57477 6.20076 0.396193 -0.292086 -0.810228
145 1 6.28081 5.03279 8.24086 -0.232409 -0.087707 -0.0360596
146 1 7.32558 0.737639 1.87249 0.0367095 0.212866 0.271978
147 1 3.99411 0.281217 6.24483 -1.18907 0.333672 -0.141046
148 1 6.36149 4.19213 7.39678 -0.630371 -0.0855577 -0.502435
149 1 8.24733 6.38767 2.18438 0.0651404 1.11609 0.956896
150 1 5.86428 0.139739 1.28805 -0.421985 0.788962 0.191898
151 1 1.14089 8.36998 4.86512 -0.142612 -0.352781 -0.0966429
152 1 4.89705 7.27144 -0.00276828 -0.24459 -1.09928 0.255891
153 1 1.45078 6.43178 9.19206 -0.134373 -0.614781 0.765669
154 1 5.8547 5.16588 1.19597 1.29274 0.51282 0.208887
155 1 7.67525 6.7336 2.98572 1.31414 0.714638 0.580209
156 1 4.71638 8.91965 3.11193 -0.531796 -0.370856 0.196883
157 1 6.0588 3.70014 5.52785 -0.447003 0.906588 -0.851414
158 1 4.1784 6.01916 8.36582 -0.487246 1.18193 -0.981561
159 1 0.999676 7.42376 5.33504 -0.532564 0.206237 0.535871
160 1 5.94778 8.04312 6.55614 1.28164 0.274719 -0.18014
161 1 0.107416 4.48833 8.10771 0.201683 0.306121 -0.136357
162 1 9.12933 0.997922 9.32055 0.158217 0.0423377 0.972061
163 1 0.959879 4.59375 4.84833 0.160807 0.276452 0.557074
164 1 5.58744 8.32227 3.13907 -0.704793 -0.0903682 -0.252561
165 1 8.06642 0.180458 1.10088 -1.28752 -0.543087 0.303267
166 1 5.36256 6.55311 4.29977 0.824599 0.0247294 -0.530114
167 1 3.54055 6.32877 2.25369 -0.675111 -0.081255 1.5756
168 1 5.89917 6.08187 7.82859 -0.282679 0.448154 0.813984
169 1 1.88073 4.97051 7.88854 -0.461311 -0.223509 0.0614107
170 1 2.13255 1.99962 5.62368 -0.186744 -0.816431 -0.235576
171 1 9.11961 4.76136 2.55372 -0.0116515 0.584225 -1.31656
172 1 2.17851 4.16561 8.84706 0.567559 -0.480873 -0.381105
173 1 7.97564 5.77805 8.71914 0.97391 -0.707585 0.0581404
174 1 9.29015 3.10202 5.43123 0.352828 0.800076 -0.076335
175 1 6.84368 8.15335 2.17444 0.887382 -0.575151 -1.11294
176 1 1.55025 1.7411 7.33435 0.956592 0.47127 -0.229464
177 1 4.80169 9.03455 8.03886 0.379781 0.472335 -0.372312
178 1 8.82441 3.3267 4.57113 -1.61445 -0.631003 0.295031
179 1 4.97855 8.45218 4.07053 -0.101711 -0.0737356 1.43721
180 1 0.466235 9.00083 4.24308 0.185626 1.2256 0.586303
181 1 5.91545 7.54553 1.523 1.14984 -1.23981 -0.930388
182 1 3.99042 2.23122 6.16121 0.71695 0.399417 -0.0013264
183 1 1.30314 7.21731 7.56061 1.00891 0.989447 1.36201
184 1 4.19885 1.25076 7.8968 -0.57425 -0.00048723 -0.486329
185 1 2.73898 6.60268 7.87792 0.548482 0.3721 1.18386
186 1 2.76189 4.67297 5.32909 0.973397 0.703582 -0.147845
187 1 3.9673 3.05346 8.62588 -1.3427 -0.040049 1.25747
188 1 3.31506 5.96874 1.05992 -0.225706 0.367323 0.551852
189 1 2.36052 3.43797 4.12977 -0.890816 0.600151 -0.144766
190 1 6.51227 4.25947 1.68318 -0.60729 -1.65922 1.3776
191 1 5.11027 5.65686 8.31439 0.297939 -0.0235813 -0.521997
192 1 8.7989 5.28669 7.90587 -0.607409 0.7193 -0.453888
193 1 2.88741 4.75801 7.13023 0.156485 -0.82415 -0.736226
194 1 2.47459 3.1987 8.46814 0.397054 0.787487 0.0505552
195 1 8.91064 8.76129 4.468 0.0149686 1.0445 0.521802
196 1 3.08232 0.919145 1.32775 -0.136259 0.181521 0.247666
197 1 0.710868 6.36561 5.53715 -0.888847 -0.629083 1.26455
198 1 2.34109 4.08375 0.483751 1.20686 0.124644 -0.0192218
199 1 1.59967 6.32775 6.23767 -1.03304 -0.522047 0.151263
200 1 3.57191 8.77597 6.77939 -0.0370533 -0.274759 -0.300339
201 1 1.9713 8.22662 0.930279 0.0800456 1.51841 -0.29329
202 1 7.75455 0.578793 3.81753 0.996815 -0.301402 -0.101255
203 1 4.43493 6.23611 6.81071 -0.981972 0.54932 0.157559
204 1 4.71478 2.99982 6.69898 -0.0663985 0.85721 -0.536502
205 1 6.79488 7.87359 6.134 0.0461005 -1.20159 -0.288784
206 1 0.700283 1.77669 5.45868 -0.232177 1.5148 0.0867565
207 1 7.4153 3.142 0.655769 -1.09977 -1.0027 -0.263312
208 1 8.40142 3.74566 5.44212 0.301423 0.0635835 -1.80897
209 1 5.12227 1.82652 7.84087 0.488931 0.200067 -0.565783
210 1 1.12594 1.62956 8.96682 0.705294 -1.0863 -0.165168
211 1 9.28152 2.2941 2.90021 -0.0191943 1.64225 0.890054
212 1 5.00644 6.27241 3.08269 0.419673 -1.34816 -0.966182
213 1 1.45615 2.9223 3.89663 -0.0340456 -0.363486 -0.628269
214 1 7.8782 2.27027 8.77094 -0.113522 -0.63771 0.780512
215 1 4.14158 5.54775 4.88905 -0.0214476 -0.0593855 0.302883
216 1 4.92679 5.69852 6.00569 -0.358551 0.767858 0.186264
217 1 7.48516 0.377653 0.179837 0.549116 -0.360059 -0.79371
218 1 4.96707 4.90444 1.56739 1.09653 0.536731 -0.633108
219 1 4.88461 5.59582 0.791142 1.08698 -1.34433 0.805202
220 1 8.42304 1.11852 0.717369 0.302557 0.198742 0.104723
221 1 7.17349 0.168361 5.43104 0.600201 -0.679858 0.487868
222 1 7.78114 4.37353 2.92882 0.0285817 -0.562026 -0.230096
223 1 3.23531 0.0379747 0.605697 -0.328306 0.145024 0.623107
224 1 7.14584 7.74404 3.17873 -0.175349 0.489105 -1.0088
225 1 6.42589 6.15432 6.86496 -0.689309 -0.317064 -0.859271
226 1 0.969058 7.50072 2.44659 0.59267 -0.72522 -0.873357
227 1 5.04849 7.14084 1.13396 -0.551942 0.729657 1.27604
228 1 6.44942 3.3971 8.66837 -0.655048 -0.928518 -0.329014
229 1 0.97943 8.13098 0.922691 0.865624 0.469795 -1.23327
230 1 5.05268 2.45191 0.36333 0.253655 -0.348051 -0.097467
231 1 0.438987 5.4818 8.48249 -0.476498 0.11381 -0.524722
232 1 6.27961 4.97762 0.201601 1.1414 0.0635142 -0.111546
233 1 7.43297 7.53388 8.06333 -0.53334 0.400494 -0.959797
234 1 3.3632 6.62217 8.69446 -0.219468 -0.33767 0.322995
235 1 7.18857 6.91526 6.43222 -0.930261 -0.052805 -0.836173
236 1 0.458008 8.81636 8.40305 0.339713 -0.405005 -0.0547215
237 1 7.36934 1.14205 0.856462 0.107817 0.124479 -0.909586
238 1 8.65101 8.08533 9.34128 -0.497189 -0.859342 -0.616425
239 1 3.88901 7.58133 5.22035 0.0325477 -0.46289 1.0522
240 1 4.4903 2.9803 5.62689 -0.524962 0.454897 0.690704
241 1 2.75681 5.48215 1.89202 -0.63805 0.628073 0.313631
242 1 8.30606 2.61538 5.34895 0.297948 0.316102 0.276079
243 1 2.14884 8.67558 1.89505 0.353203 0.379563 0.815251
244 1 5.76338 7.72747 8.92595 0.920845 -0.170757 0.221405
245 1 6.49374 5.25069 2.11657 -0.139242 -0.130454 1.40809
246 1 0.918938 6.67101 0.733364 -0.323795 0.243233 1.53618
247 1 5.36007 2.83882 3.49057 -1.07525 0.660244 -0.991908
248 1 4.7297 8.17612 5.09419 -0.360661 -0.539539 -0.731992
249 1 2.75635 4.21529 7.97112 0.519184 -0.685576 -0.868963
250 1 4.38832 6.49055 4.92386 0.912744 -0.900714 0.232904
251 1 6.65075 1.92779 7.31897 1.69331 -0.94067 -0.353075
252 1 1.38671 2.11489 4.65385 -0.35701 -0.763586 0.309446
253 1 9.30843 4.14601 5.08872 0.16728 0.352925 -0.125307
254 1 6.85769 1.83928 2.12953 0.11556 0.105133 0.737437
255 1 5.56998 3.23835 9.32173 1.06668 0.878784 0.289892
256 1 1.76967 3.86986 7.92135 -0.528424 -0.163222 0.182106
257 1 4.54457 1.47345 0.440235 0.283574 -0.440365 2.0301
258 1 2.09938 1.3141 3.06577 -0.679325 1.33481 0.00179669
259 1 2.90062 5.15335 8.14495 -0.145966 -1.13821 -0.773614
260 1 3.23552 3.83929 6.97569 -0.445541 0.280634 0.0899098
261 1 8.1219 4.91039 9.33584 0.104951 -0.548804 -0.486455
262 1 4.92302 0.0519111 1.91831 -0.409374 0.0292445 -0.682011
263 1 5.56023 4.96338 4.02442 -0.318858 0.250484 0.675185
264 1 8.1893 5.66552 5.85178 -0.581542 0.141225 -0.409247
265 1 5.19521 3.8286 3.89218 0.348306 -0.674739 -0.93838
266 1 6.65469 6.71113 3.02824 -0.346508 0.143105 -0.388983
267 1 5.28794 2.68805 2.28069 0.329689 1.58555 1.02408
268 1 5.52678 0.776536 6.34994 -0.541505 -1.48669 0.495838
269 1 3.94978 4.48105 1.55612 -0.0616752 -0.289649 -0.391139
270 1 7.99996 8.57761 3.71801 -0.116458 0.899965 1.08555
271 1 6.66963 6.05183 0.360632 0.658247 0.749109 0.255512
272 1 8.6585 0.15813 3.85263 -0.9626 -0.933353 -0.287226
273 1 9.05263 1.41179 2.41386 -1.47511 1.19052 -0.209536
274 1 6.45502 7.98415 8.20153 0.717958 -0.363047 -0.671076
275 1 3.4096 6.64108 3.33673 0.0816365 -0.254791 -0.296352
276 1 8.99256 6.77507 3.86356 0.308124 0.676403 0.678388
277 1 3.81866 0.62315 3.52597 0.363016 1.25989 0.414773
278 1 2.45106 5.68111 7.2621 -1.27274 0.159375 -1.00913
279 1 2.32476 9.16264 2.89844 -0.501646 0.680902 -0.973002
280 1 4.19764 1.5413 3.14274 -0.112626 0.48803 1.1349
281 1 5.47584 7.19505 3.41322 -0.067598 -1.43483 -1.00544
282 1 8.55293 7.94568 3.01045 0.483883 0.135093 -0.261196
283 1 0.13431 7.44011 3.26632 0.203148 -0.12661 -0.187875
284 1 7.30465 7.70362 4.4277 0.28072 1.20656 -0.368486
285 1 6.57348 8.70403 3.00461 0.805111 0.778713 -1.03449
286 1 0.639253 1.71415 8.06466 1.05974 -0.840094 -0.815503
287 1 3.43276 8.3448 5.80452 -0.112196 -1.7284 -0.140926
288 1 3.9865 0.257513 8.32746 0.534092 -0.683503 -0.233428
289 1 7.25401 1.4033 6.42747 -1.21388 0.683405 0.19121
290 1 2.28681 7.62183 7.70048 -0.259772 0.118445 0.713727
291 1 4.17971 4.07537 9.26513 -0.287765 0.285572 1.50712
292 1 9.35461 8.46715 5.99325 1.61078 -0.0296799 0.657872
293 1 2.13939 1.53119 4.13027 -0.693516 0.697367 -0.562809
294 1 8.71699 5.56627 6.83637 -0.97109 0.330331 -0.469519
295 1 7.91118 5.77667 7.66151 0.676949 -0.345759 -0.186462
296 1 6.23909 6.81612 0.952031 1.06529 0.358863 0.292888
297 1 4.96277 3.52153 2.77047 -0.430275 0.143131 0.850418
298 1 4.26933 6.93763 5.97518 0.140259 0.739101 -0.422669
299 1 5.95928 6.11394 3.57684 -0.744838 -0.177786 0.153993
300 1 7.76659 2.5011 2.09039 -0.7423 -0.252002 -0.739687
301 1 2.32711 0.953544 7.2482 -1.37944 0.74885 -0.166645
302 1 8.43388 9.37055 6.51913 0.157895 0.642576 1.68795
303 1 1.27163 9.04903 0.47078 -0.0427318 0.693701 0.745737
304 1 7.88615 5.3966 3.20085 -0.359792 -0.24697 -0.0480509
305 1 3.4498 1.44907 0.290211 -1.16924 1.16212 0.445086
306 1 6.32819 8.11269 3.82308 -0.151807 0.506602 0.707266
307 1 6.53116 8.54928 1.32525 -0.587863 -0.368931 0.147827
308 1 9.08037 0.640598 7.01409 -0.28525 -0.309655 0.326568
309 1 0.68957 6.56707 7.99608 0.673341 -0.32767 0.813127
310 1 5.37166 6.10025 6.86361 -1.53101 0.217641 0.122206
311 1 7.9513 6.89733 1.41477 -0.74705 1.23262 -1.95832
312 1 2.86513 5.17085 0.669835 -0.516165 -1.4946 -0.297914
313 1 7.04969 0.0588625 1.11284 0.557847 -0.0774444 -0.203975
314 1 7.69632 3.38959 2.73133 0.424345 -0.683931 0.167685
315 1 4.39293 4.7375 5.69672 -1.18094 0.0107997 -0.338845
316 1 1.98819 4.23178 4.66433 0.240469 0.35727 -0.311672
317 1 8.90615 1.66499 6.73945 0.306194 -0.699568 -1.33007
318 1 9.11677 6.35456 6.23297 -0.507015 -1.08689 -0.223284
319 1 5.64446 9.10248 6.48699 0.246877 -0.669044 0.447364
320 1 5.4217 4.65406 5.46965 0.953647 1.18092 0.38135
321 1 0.742761 1.7958 2.45941 -0.295654 -0.232005 0.810986
322 1 1.13811 6.9547 3.3123 -0.167127 -0.259654 -0.664508
323 1 2.75887 7.0051 2.50507 -0.179737 -0.360204 0.0583884
324 1 1.9421 4.54209 6.90801 0.0443434 -0.732663 0.074221
325 1 4.50331 4.36058 2.40284 -0.773998 -0.147362 0.426307
326 1 7.65986 1.76818 5.09678 0.0574262 0.379051 -0.320936
327 1 5.0759 0.730781 8.18635 -0.0069245 0.128018 0.42209
328 1 6.93796 4.23498 0.094992 0.188092 0.429824 1.06096
329 1 8.69017 1.58606 8.61092 0.218917 -1.02848 -0.152426
330 1 3.85958 0.38545 7.3469 0.452546 0.160858 0.127238
331 1 4.13093 2.28968 4.74897 0.0700737 1.85174 0.514093
332 1 3.6707 1.58915 5.32013 1.69584 -0.729052 -0.320367
333 1 8.26574 5.30088 2.17268 0.350309 -0.552198 -0.0730357
334 1 0.429153 7.9748 6.87972 0.112287 -0.887107 -0.602959
335 1 8.43727 0.620048 2.91862 -1.01697 0.082906 0.629495
336 1 1.45005 6.27079 4.18439 0.00535771 0.0801144 -0.153479
337 1 5.52532 4.94085 7.6254 0.858399 -0.0340018 0.839818
338 1 0.574774 0.742614 8.51597 -1.38024 0.8621 -1.0447
339 1 0.335023 5.73412 7.4632 0.429128 0.168079 -0.445794
340 1 2.7617 0.77723 3.86316 -0.583458 -0.179477 -0.883534
341 1 9.14579 0.104746 7.91912 0.492952 0.581446 1.61012
342 1 8.21417 5.91588 1.25531 -0.469452 -0.0229739 0.360648
343 1 4.17475 5.59526 1.62562 -0.726843 -0.715363 -0.854462
344 1 0.841578 0.412449 6.59553 -0.469406 0.315379 0.630877
345 1 5.89153 6.90971 6.27874 -0.514754 0.77529 1.37717
346 1 7.72161 5.78676 0.314327 0.00486029 0.0382805 0.857008
347 1 5.99896 4.28587 6.39243 1.07383 0.6163 0.0617076
348 1 8.04586 3.33046 7.1752 0.382502 -1.48426 0.848168
349 1 7.55371 3.47088 8.9447 1.04501 -0.156361 1.78206
350 1 3.50473 3.35282 5.9386 -0.788597 0.533087 0.130619
351 1 8.09201 6.28263 3.77876 0.33979 -0.777133 -1.004
352 1 0.114203 9.09547 6.90926 0.0428636 0.582189 -0.584709
353 1 9.20848 2.34316 4.69904 -0.242564 0.183046 -1.73264
354 1 0.22989 6.95625 7.16262 0.63785 0.162293 -0.405656
355 1 0.827277 6.20376 1.65646 -0.187006 0.468459 0.962172
356 1 4.65281 1.35824 6.00992 -1.45252 -0.0167116 -0.127509
357 1 0.796561 2.64225 8.49531 -0.541202 -1.11636 0.105345
358 1 3.99023 8.29728 4.17771 0.151606 0.391155 -1.06673
359 1 5.09034 7.20328 6.95457 0.164037 -0.12514 -0.69058
360 1 2.9073 4.44292 1.60385 0.182923 -0.0243575 -0.776433
361 1 5.13403 2.37963 4.9844 -0.35396 -0.172294 -0.48176
362 1 4.08523 1.27806 1.28191 -0.0196432 -0.21015 0.818577
363 1 7.3249 4.16694 1.10534 0.0719623 0.0502498 0.548065
364 1 1.46839 5.40778 6.64309 -0.346222 -0.123352 -1.40674
365 1 0.695549 2.4826 1.13942 0.95797 -0.745217 -0.962763
366 1 5.85186 8.47936 2.09663 0.285441 -0.0055457 -0.570559
367 1 1.44374 3.96971 1.1564 -0.487171 0.33952 0.458786
368 1 3.29313 2.53041 5.3491 -1.10441 0.0342722 0.225332
369 1 0.392462 6.20745 9.30587 0.519742 0.745262 -0.954447
370 1 9.05649 8.99076 8.93637 0.270904 0.309979 0.968808
371 1 3.04799 5.09295 3.2656 1.41788 0.966366 0.617411
372 1 5.12703 2.53211 8.69313 0.82431 0.512479 1.05803
373 1 5.34742 6.8639 2.17731 -0.30696 -0.901452 0.0287696
374 1 8.58843 7.87977 5.61831 0.0657139 0.436879 -0.557516
375 1 4.79489 4.54924 8.22332 -1.32987 -0.281894 -0.376421
376 1 2.41985 8.80618 8.35767 0.422083 0.85235 1.0982
377 1 2.11076 6.67213 7.13912 -0.486433 -0.563675 -0.332441
378 1 5.08347 1.07883 1.42808 -0.739963 -0.981657 -0.563362
379 1 7.03296 3.47032 6.85095 -0.0497376 -1.12159 -0.255817
380 1 7.75813 4.6386 5.52096 1.02795 0.0444619 -0.435814
381 1 3.87415 0.191129 1.53774 0.293676 -0.500342 0.179445
382 1 5.31153 6.49759 5.41488 0.352293 -0.0185538 -0.30412
383 1 9.12613 8.4744 7.69339 -0.346081 -0.509767 -1.04089
384 1 3.36918 9.32978 4.24107 -0.26541 1.37623 -0.621213
385 1 4.51958 8.30321 0.00632123 -0.985636 -0.0893706 -2.01426
386 1 0.407337 3.74215 4.24975 -0.503635 -0.190391 -1.25063
387 1 0.314232 1.49447 3.36023 0.569769 -0.270436 -0.115159
388 1 6.9871 8.87416 0.155688 1.11242 -0.0539119 -0.137802
389 1 6.11488 2.71809 5.32555 -0.0333346 -0.69693 -1.21611
390 1 2.09851 5.08545 2.76913 0.51426 -0.250971 -0.258327
391 1 6.00009 9.00739 0.324969 -0.201695 -0.00986376 -1.38402
392 1 3.8958 3.18259 0.373375 0.421889 -0.904556 -0.307597
393 1 9.37301 5.72873 0.992119 1.24231 0.00294187 -0.654883
394 1 9.27908 5.76071 2.11211 0.08812 -1.42458 0.977166
395 1 0.521111 0.045989 9.2545 0.0414818 -0.135302 -0.357904
396 1 2.35812 2.37519 2.53627 0.397482 -0.927195 -0.145814
397 1 5.26411 4.27042 9.26814 -0.52478 -0.955471 -0.271446
398 1 8.66454 3.95069 1.19909 -1.28981 0.796812 -0.0649736
399 1 6.858 1.09933 3.83502 0.936706 -0.271722 0.0725663
400 1 2.67232 5.95672 2.81586 0.595026 1.09324 -0.891728
401 1 4.29472 2.54 7.86026 -0.994362 -0.873639 0.277352
402 1 1.31939 4.20049 0.0971599 0.165007 0.348693 0.337914
403 1 3.94216 3.4402 2.39126 0.401915 -0.173041 -0.205705
404 1 1.77536 6.59841 8.18082 -2.27446 0.814996 0.351502
405 1 4.28339 3.97484 6.54295 1.21597 -1.11765 -0.0517884
406 1 7.4034 8.08015 0.667142 -0.0636886 0.123783 -0.268984
407 1 6.42526 0.490264 8.00682 0.632789 0.0650386 -1.33761
408 1 2.01855 2.31015 8.83704 -0.629291 0.469403 0.346638
409 1 3.3063 2.96852 4.35447 1.56218 0.158028 -1.92954
410 1 0.803959 2.43843 7.4489 -0.0747359 0.0354973 1.24582
411 1 4.60717 7.8391 3.39655 0.31494 -0.395874 0.386914
412 1 1.26655 0.119673 4.73654 1.26033 0.783134 -0.32965
413 1 1.44761 7.37041 1.50874 0.169801 0.779364 -0.10693
414 1 6.82988 1.0989 8.9488 -1.38157 0.146829 -0.807891
415 1 8.35457 0.590675 8.57027 -0.638275 0.314634 0.0549955
416 1 0.366693 1.66545 0.465493 -0.386389 -0.494898 0.837606
417 1 7.37857 2.75874 3.81054 -0.410528 0.75463 -0.931569
418 1 2.96799 2.21884 6.44453 0.481604 -0.343377 0.129854
419 1 7.1467 3.23884 1.7087 0.17143 1.36145 0.121883
420 1 1.83862 5.28099 4.7904 -0.0073567 -0.293994 -0.107929
421 1 6.25312 5.88688 5.36597 0.574639 0.886424 -0.0531192
422 1 8.84971 3.27201 6.36607 0.276626 0.239294 -0.937959
423 1 8.41084 2.43823 4.07194 -0.33557 -0.355072 0.821449
424 1 4.29447 7.08467 2.77345 0.734186 -0.629284 0.335915
425 1 2.26658 3.41277 7.14324 0.343335 0.0418491 0.207778
426 1 3.529 1.98363 7.32708 0.665933 0.0875045 -0.231556
427 1 7.87787 4.00882 6.43119 -0.194503 0.217635 0.124483
428 1 1.90814 7.28168 5.94588 0.614088 -1.15105 -0.016253
429 1 6.4742 0.0371083 2.1264 -0.585055 -0.311898 -0.499836
430 1 6.62385 4.70418 5.55567 -1.04793 -1.05335 -0.682801
431 1 8.31068 1.70766 5.87941 0.223797 -0.189161 -0.575719
432 1 5.29095 0.624591 0.477223 0.0548831 -0.168585 0.629005
433 1 2.14552 8.20053 4.40539 -0.508802 -0.600904 0.7655
434 1 7.94165 7.27942 9.04521 -0.0707419 -0.134729 0.374084
435 1 1.56185 3.23743 8.97615 0.873599 0.575568 0.508408
436 1 0.330195 6.27164 3.26144 -0.36624 0.859692 0.31397
437 1 6.49191 6.64348 1.98851 0.624757 -0.501799 1.65459
438 1 2.61137 8.21369 2.76214 -0.559879 -0.0074748 -0.244957
439 1 3.51057 7.71047 3.20121 0.286547 -0.397745 -1.1089
440 1 5.61095 5.83556 2.40389 -0.464934 -0.490683 0.0223191
441 1 6.26478 2.77304 1.81786 0.413994 0.060914 0.50061
442 1 6.75791 3.33854 4.57863 0.226439 -1.23505 0.284146
443 1 1.71216 5.68891 1.92293 -1.36133 0.256372 0.394284
444 1 9.03196 5.73931 4.1152 -0.00303783 0.761158 -0.24317
445 1 6.01889 2.18657 9.14617 1.21208 0.904046 0.59345
446 1 8.33354 0.531608 5.62332 -0.29363 0.362584 0.616951
447 1 1.35196 4.71642 2.1983 -0.923434 0.362111 0.206056
448 1 1.0281 8.28312 9.18966 0.309806 0.0827756 -0.0367976
449 1 3.47168 5.5659 7.29242 -0.209434 0.515373 0.0761348
450 1 4.08623 5.26304 6.52789 0.542187 0.444118 -0.198692
451 1 4.45366 6.96104 8.55062 0.146473 -0.0861621 -0.0527402
452 1 4.77105 7.96103 8.40936 -1.14913 -0.415553 0.844068
453 1 2.40456 1.07017 6.17907 -0.789292 0.111657 0.820682
454 1 2.90876 0.0509948 7.63695 -0.289217 -0.687312 -0.330514
455 1 8.65905 5.08305 5.05238 0.729907 -0.584229 -0.316978
456 1 7.75607 3.48489 4.60214 0.871058 -0.895542 -0.379055
457 1 7.0012 7.62969 9.04226 0.26672 0.494345 -0.583983
458 1 2.37709 6.60069 3.58843 -0.297442 -0.799587 0.377918
459 1 8.38708 2.91887 9.42387 1.11241 -0.368749 0.304775
460 1 6.91721 2.41239 6.48726 -0.637848 1.11371 -0.278914
461 1 8.0782 3.94352 0.389741 0.231381 -0.41254 -0.00178587
462 1 4.01184 7.48507 0.608051 -0.64304 0.180609 -0.178902
463 1 4.12506 2.18345 9.21355 0.0152845 0.293629 1.72668
464 1 8.92542 3.60702 7.77856 0.503536 -0.0420064 -0.644882
465 1 0.562459 7.74121 7.90741 0.642515 0.792392 -0.342744
466 1 3.45645 1.99116 8.38878 0.799519 -1.74746 -0.351964
467 1 6.34688 0.40673 3.27535 -1.10952 -0.727471 -2.12928
468 1 9.33604 7.12946 5.49836 0.978404 0.598089 0.839157
469 1 6.5017 0.829584 5.88112 -0.24347 0.843317 -0.278813
470 1 9.23632 2.61543 7.01311 -0.777761 -0.430156 0.120321
471 1 4.63368 8.87292 5.83696 0.0846549 -0.553972 -1.56786
472 1 8.23172 3.60577 3.65439 0.390212 0.807829 0.586773
473 1 4.86957 3.47455 0.547112 1.14985 -0.0383963 -1.32981
474 1 8.45223 0.850579 1.79015 0.685198 0.429617 -0.149883
475 1 3.32946 3.10008 7.85278 -0.778408 -0.308194 -0.0216729
476 1 0.661033 1.1519 7.19593 -0.169735 0.342656 1.78715
477 1 3.44258 1.93752 1.62974 -0.143228 1.04783 0.855052
478 1 4.04873 8.57065 0.961073 -0.217956 0.178261 -0.108251
479 1 1.18206 2.72014 2.81913 0.547973 0.499658 -0.132781
480 1 6.89157 2.73317 9.29391 0.438447 0.464363 0.641005
481 1 3.48651 6.98332 1.39482 -1.57588 -0.666283 -0.326375
482 1 2.15011 5.60585 5.75909 0.17951 -0.24014 0.387057
483 1 3.74594 7.24695 4.12558 -0.268347 0.103934 0.32083
484 1 4.90132 0.455212 5.58372 0.331208 0.682515 0.274639
485 1 5.39325 5.58808 9.26937 0.14568 -1.7198 0.093444
486 1 8.41384 1.64352 3.20978 0.405901 1.6553 -0.0185615
487 1 8.80682 5.83591 3.01336 -0.250596 -1.55663 0.874497
488 1 7.22997 6.79326 4.01676 -0.0970905 -0.348628 -0.568794
489 1 1.36081 1.31814 0.533111 0.838469 -0.621408 -0.636464
490 1 2.79038 8.58145 3.74118 -0.70108 0.611238 0.684134
491 1 7.1339 9.16498 3.61243 -0.352776 -0.375472 0.132077
492 1 7.78926 7.76039 6.45331 -0.095604 -0.177664 -1.29732
493 1 5.96254 1.45915 8.34516 -0.153226 -0.275076 0.864756
494 1 7.12726 0.982884 4.8131 1.13411 -0.106306 0.225567
495 1 5.78445 4.11263 3.12349 -0.194617 0.190562 1.27021
496 1 2.5905 2.47263 7.35088 -0.223904 0.0691752 -1.3289
497 1 2.43098 0.881675 0.384788 0.764553 1.3981 -0.205195
498 1 8.14047 8.99745 9.31092 0.362078 0.903845 0.559058
499 1 4.78379 2.0177 4.02231 0.287414 -0.175438 0.264223
500 1 5.48958 6.16531 1.40011 0.727038 -0.382705 -0.0947133
501 1 5.05778 7.55774 5.93932 0.738086 0.574771 0.915864
502 1 0.242126 3.2137 2.49983 -0.700961 -0.183234 0.395054
503 1 5.30809 5.61488 4.8828 1.14637 -0.858838 0.115989
504 1 4.65449 1.66879 2.21918 -0.763805 -1.00657 0.441017
505 1 8.95495 4.60602 0.438784 0.975448 -0.862569 0.758272
506 1 2.27783 8.17322 5.39787 0.322365 -0.515014 0.190698
507 1 7.33179 0.328576 8.48574 -1.53273 -0.632692 0.0190018
508 1 3.00127 8.58815 1.21079 -1.15846 -0.881124 0.117485
509 1 9.23484 1.14444 7.84847 -0.36651 -0.562442 0.484239
510 1 0.639123 0.731412 5.44213 -0.779114 -0.272953 -1.16868
511 1 7.31812 5.46163 5.08452 -0.159254 0.652086 -0.590987
512 1 0.411414 6.29656 4.43401 -0.833227 -2.17843 -0.563326
513 1 2.51393 7.22815 4.94611 -0.087304 0.995958 0.72427
514 1 8.30006 7.16534 4.73195 -0.306266 0.961545 0.503849