ITEM: TIMESTEP
75470000
ITEM: NUMBER OF ATOMS
1000
ITEM: BOX BOUNDS pp pp pp
0.0000000000000000e+00 9.4000000000000004e+00
0.0000000000000000e+00 9.4000000000000004e+00
0.0000000000000000e+00 9.4000000000000004e+00
ITEM: ATOMS id type x y z vx vy vz
1 1 4.8778 6.82696 3.39205 0.480348 0.759751 0.0298127
2 1 3.08294 4.53013 0.403535 0.187823 0.0535292 -0.514456
3 1 2.93808 2.34651 5.04425 -0.319484 -0.393776 0.45162
4 1 2.07289 4.83551 0.596564 -0.0072591 -0.822982 0.756487
5 1 1.6561 0.979972 4.67964 -0.497698 0.631452 0.330494
6 1 4.27097 7.27831 4.37245 -0.441246 0.008173 1.16554
7 1 5.51573 5.95564 5.11849 0.750141 -0.916951 0.531029
8 1 0.591743 2.40711 6.52253 -0.717912 1.00494 0.143296
9 1 8.77127 4.70263 5.00143 0.0512094 0.983375 -0.154988
10 1 0.597976 3.91242 8.71807 -0.916752 0.182722 -0.334256
11 1 5.38549 0.507005 5.21087 -0.652684 1.03018 -0.52432
12 1 7.332 0.741039 0.218338 -0.450469 -1.31382 -0.410562
13 1 9.30872 8.98178 4.66166 0.217485 -0.146057 0.0746657
14 1 4.12396 4.78103 8.47968 0.507849 -0.262787 -0.0753448
15 1 1.15154 8.42753 8.88767 0.110165 0.1001 -0.776721
16 1 0.730918 0.0402912 7.49079 -0.264334 0.193467 2.0697
17 1 6.87567 3.48372 1.50288 0.0702398 0.333204 1.13992
18 1 4.01761 8.43098 6.09353 0.118391 0.248149 -0.962356
19 1 4.46555 6.55663 9.38125 -0.227868 0.118252 0.694144
20 1 7.54837 3.54513 8.95638 -0.77507 1.01654 0.169551
21 1 7.22115 3.76919 7.96395 -0.411029 -0.537257 0.48018
22 1 8.52493 2.24469 8.78529 0.786901 -0.0120605 0.0115231
23 1 8.60326 1.18942 8.5854 -0.943961 0.512427 0.21229
24 1 8.12124 5.51 7.44959 0.323468 0.25662 -0.171015
25 1 7.11542 0.250229 3.05613 -0.531106 -0.197219 0.857914
26 1 4.50611 1.17074 5.01161 -0.469071 -0.275402 1.05858
27 1 2.37138 0.769212 5.39029 -0.823504 -1.157 -0.353404
28 1 4.84773 0.560442 1.45335 -0.151061 0.915743 -0.757801
29 1 8.98949 2.69233 2.77729 -0.801818 0.147807 0.579275
30 1 8.94158 4.10967 4.12015 0.914287 0.956512 -0.321902
31 1 1.59602 2.83141 1.00354 -1.04835 -0.399859 -0.981479
32 1 4.06415 4.96243 5.87056 0.585823 -0.761954 -1.02348
33 1 5.53691 0.0524347 0.238385 -0.0245731 -0.480269 -0.592165
34 1 5.09865 0.827814 2.41079 -0.060645 0.98941 -0.455778
35 1 2.2734 4.48171 4.51426 0.0913858 0.665303 -0.674366
36 1 4.61656 0.153491 3.08532 0.0803554 -0.91677 0.643524
37 1 5.95921 5.23513 9.08776 -1.03526 -0.575232 0.648416
38 1 1.11654 0.270819 0.407687 -1.88177 0.36803 0.131147
39 1 7.09398 8.17058 1.45796 -0.739895 -0.344294 0.556316
40 1 2.07173 8.98121 8.71224 0.887829 1.63778 0.277131
41 1 5.78093 0.333794 7.73016 -0.881592 0.306144 0.468797
42 1 1.9054 0.476645 2.42852 -0.344061 -0.730574 0.308344
43 1 5.00238 8.89934 7.53018 -0.79357 0.250013 1.83653
44 1 3.19892 0.211531 5.34094 0.592781 0.327127 0.221078
45 1 1.83636 8.26379 4.35794 -1.10785 0.785244 -0.518544
46 1 0.941695 5.16375 2.42423 0.855463 0.292802 0.535151
47 1 0.882767 0.340122 2.08233 -0.417059 0.257831 -1.98666
48 1 4.74332 7.86855 3.65495 -1.00323 -0.837635 -0.115155
49 1 2.02587 3.49227 6.16844 0.378041 0.331376 0.329745
50 1 6.94767 3.66845 4.20602 0.225962 0.180614 0.318716
51 1 7.87124 5.41986 3.35833 0.549374 0.666667 -0.543756
52 1 6.02995 8.46044 3.25344 0.032119 0.196941 0.0419736
53 1 2.49829 9.2769 6.10453 0.363057 -0.424511 0.246724
54 1 8.2931 9.3886 7.38047 -0.809997 -0.530816 0.1367
55 1 1.41698 4.42049 3.95811 1.76489 -0.285388 -0.683887
56 1 1.37575 7.20924 4.27773 0.856511 -0.651082 0.63177
57 1 3.2907 6.48385 6.10553 -0.187266 0.700965 -0.431232
58 1 5.24982 5.80299 2.6193 -0.329859 -0.50671 0.435148
59 1 7.46185 8.6302 7.2853 0.505005 0.108116 -0.0320216
60 1 0.798087 0.838236 4.09277 -0.082774 -0.767701 0.649312
61 1 2.20891 7.38402 0.606136 -1.07189 -0.368303 0.685736
62 1 7.54906 0.501852 1.21782 -0.799639 1.53891 0.827962
63 1 7.35042 3.53881 5.18017 -1.29223 0.032972 0.658473
64 1 9.01674 8.7573 0.731181 0.120471 -0.606282 0.341101
65 1 7.74268 1.03737 3.84524 -0.328589 0.144459 -1.23406
66 1 3.07113 3.78995 8.42043 -0.0382386 1.12303 0.00794791
67 1 7.98964 8.28908 9.22486 0.793994 0.819307 -0.989302
68 1 5.15063 6.39001 0.81027 0.544453 1.01576 -0.203759
69 1 6.1639 6.6983 0.878974 -0.0838548 0.00414134 -0.502007
70 1 7.06813 4.9616 2.78548 0.134148 -0.835859 -0.0126203
71 1 8.01103 1.96803 7.26188 0.22828 -0.556537 -0.0325935
72 1 4.97344 3.35878 1.02497 -0.147339 0.0205819 -0.115373
73 1 2.31396 6.85297 4.54553 -0.117152 1.08661 0.572428
74 1 4.34577 1.48445 2.06711 0.382378 -0.0579178 -0.101536
75 1 6.003 3.71165 0.991974 -0.460737 0.978867 -0.50152
76 1 8.31403 7.14224 1.45261 -0.11268 0.167202 -0.734108
77 1 8.45015 1.81356 3.24258 -0.0846062 -0.347864 1.02915
78 1 2.13165 8.37934 1.18131 -0.736036 1.38125 0.327033
79 1 6.38108 0.330045 8.61629 0.00174235 0.0730413 -0.281655
80 1 1.64482 0.647466 8.927 0.125384 -0.339092 0.546876
81 1 3.37151 7.58722 7.51759 -0.286223 -0.497307 0.446223
82 1 6.16307 0.800115 2.88321 0.463223 -0.282907 -0.595924
83 1 2.97011 4.37961 5.4883 1.14843 1.09727 0.681634
84 1 1.16927 3.43623 5.29469 0.5965 -0.57778 -0.629802
85 1 3.74124 2.09169 8.08895 0.367998 1.77756 -0.17575
86 1 2.22579 3.44303 7.88132 0.39144 0.601744 -1.5564
87 1 3.78696 3.73981 3.65297 0.969749 0.395532 -0.577299
88 1 8.72303 1.96024 1.0102 0.51612 0.481817 0.964374
89 1 6.3169 4.57933 4.11937 0.0153019 -0.511984 0.443768
90 1 5.351 6.92414 2.35463 -0.250161 0.0579196 -0.550602
91 1 9.32845 5.55241 4.2542 0.596372 -0.830629 0.872792
92 1 9.25666 9.19885 8.05488 0.663075 -0.502926 -0.972931
93 1 4.24494 0.530611 6.80468 0.630755 -1.26892 0.0214286
94 1 1.01127 5.33177 5.64074 -0.0821853 -0.905503 0.917942
95 1 7.68734 8.07109 3.88598 0.0955374 -0.121901 -0.162906
96 1 7.33706 6.12603 7.42954 0.573075 -0.325934 -0.217004
97 1 1.61472 4.75307 1.49755 0.0249698 -1.16757 0.13556
98 1 5.98857 0.141729 2.06171 -0.0603352 -0.661737 -0.0174848
99 1 6.22869 8.4054 6.37155 -0.208191 1.11476 -0.311675
100 1 6.92565 8.52854 0.513696 -1.32515 0.611824 0.155201
101 1 5.21359 4.74044 8.25617 0.794373 -0.197806 1.03167
102 1 2.04519 2.70303 1.93764 0.270603 1.01385 -1.77225
103 1 4.23776 8.0142 7.09028 0.723861 0.138603 0.599985
104 1 3.31941 7.42944 3.80186 -0.995629 -0.92512 1.05475
105 1 0.273175 9.07806 2.81818 0.483566 -1.24506 -0.93137
106 1 8.82172 0.993063 5.66538 -0.340967 0.603061 -0.113234
107 1 5.84605 6.36946 3.29611 -0.896596 -0.206544 0.572383
108 1 6.47896 8.07583 5.51153 -0.0929555 -0.0733072 0.850027
109 1 8.38546 0.669099 0.408754 0.828861 1.79891 0.940678
110 1 8.18526 4.25322 8.37605 -1.0824 0.868998 0.803186
111 1 9.00244 8.36372 5.92636 -0.0907882 -0.353484 -0.574311
112 1 6.52681 2.27439 1.58127 1.69692 -0.289415 -0.325704
113 1 2.99884 3.49363 1.95385 -0.910121 -1.12987 1.22311
114 1 4.45662 4.52237 2.80298 -0.572392 0.144327 -0.328007
115 1 5.66147 9.07734 5.7746 -0.0190058 0.0482223 0.198618
116 1 6.10153 2.27442 8.07427 0.369016 -0.795475 -0.319523
117 1 8.17516 8.82164 8.2351 0.675034 0.489907 0.173464
118 1 6.57446 3.21764 7.36561 -0.389637 -0.710312 -0.249504
119 1 3.92115 1.54272 6.4723 0.395038 -0.0483277 0.983382
120 1 2.13323 8.71967 6.96206 0.317565 -1.75626 0.252805
121 1 3.56332 9.34891 6.34327 0.257918 0.539077 -0.966852
122 1 2.2272 8.16476 2.6241 0.598198 0.832794 -0.648171
123 1 3.33642 5.19004 6.86448 -0.0206442 0.518119 0.247887
124 1 1.28546 0.775223 5.72811 -0.383471 -1.24184 1.86499
125 1 5.82687 5.64171 4.12179 0.612169 0.963565 0.0909063
126 1 6.27475 3.93383 4.95266 -0.684245 -0.820427 -1.30017
127 1 4.92608 8.95653 5.00376 0.492573 -0.117697 -1.70962
128 1 6.60727 5.52432 7.78104 1.19529 -0.0680005 0.486441
129 1 0.500759 7.81676 8.41297 0.622151 -0.394299 -1.02927
130 1 2.85102 1.67731 2.61384 -0.970209 0.216816 -0.111032
131 1 8.07569 2.7995 0.689126 -0.232661 1.08196 0.712329
132 1 8.74916 8.40617 2.76357 0.0663808 0.306891 -0.236541
133 1 5.61983 1.75427 2.64592 0.332968 0.0600138 -1.37354
134 1 0.0978238 5.26784 0.230181 0.624229 -0.559649 0.45006
135 1 8.10605 6.28468 4.60379 0.747934 -0.257516 -0.0430653
136 1 6.65957 9.33513 5.94249 0.34585 -0.279998 0.371699
137 1 1.77009 5.32194 6.37365 0.294816 0.407573 1.26297
138 1 3.81229 0.0140612 0.0532314 -2.20532 -0.864328 1.69958
139 1 0.778673 0.104888 8.64937 0.654351 0.448391 0.245508
140 1 8.58085 4.63172 1.87699 -0.145921 -0.426144 -1.22955
141 1 2.9288 0.377557 2.3993 -1.42892 -0.947108 -1.24501
142 1 4.63933 8.76082 9.14568 0.30631 -0.060152 0.821559
143 1 5.05166 4.44299 1.229 0.153194 0.233125 0.57714
144 1 1.57832 2.60456 3.06264 0.353095 0.524199 -0.427991
145 1 8.85969 4.53769 9.08963 -0.282642 -0.129996 0.890786
146 1 4.69419 0.645992 0.419151 -0.31935 -0.844735 0.138114
147 1 5.43147 4.70069 7.08853 0.355651 0.547846 -0.36033
148 1 2.23033 6.34075 6.21756 -0.145027 -0.626015 1.5682
149 1 2.67827 0.248579 4.4824 0.34669 0.520315 0.107948
150 1 0.630739 6.36704 4.13341 0.131257 -0.204642 -0.218987
151 1 7.61847 9.35221 6.42243 -0.453456 -0.615658 -0.476536
152 1 5.9471 8.73026 7.9353 0.330884 -0.0698388 -0.0786565
153 1 3.58693 5.78289 8.60685 -0.340747 0.927982 -0.0212033
154 1 4.62556 6.47768 1.72959 0.871209 -0.220719 -0.455139
155 1 8.41062 7.55253 4.60144 0.848445 -0.515273 -0.795297
156 1 6.38431 7.59165 4.54727 -0.211311 -0.00789736 0.231503
157 1 6.05803 3.94913 6.71577 -0.679922 -1.29343 -0.357896
158 1 3.24954 6.36112 0.101796 -0.0943489 0.144507 0.138514
159 1 1.78653 7.49706 6.16264 0.0175098 -1.26872 -0.15902
160 1 0.269943 5.37891 6.35162 -0.0168464 0.213474 -0.60818
161 1 1.01574 1.80756 5.07905 -0.53686 -1.11238 -0.478414
162 1 1.13273 5.30122 0.192648 0.424579 -0.256374 0.145821
163 1 8.3343 1.09369 4.68182 -1.14041 -0.416906 -2.02724
164 1 1.27433 0.834463 7.99882 0.718575 0.364347 0.830176
165 1 3.06168 5.38824 1.91949 0.28109 -1.29403 -1.54482
166 1 6.11996 5.43778 2.31571 0.0420628 0.999713 -0.314684
167 1 2.56982 7.15159 2.75454 0.182012 1.01905 -0.518459
168 1 6.77313 5.07403 0.303327 0.868797 0.664599 -1.90281
169 1 1.23452 5.41236 8.047 0.374925 -0.997648 -0.0323023
170 1 8.99383 3.04983 4.12891 -1.0005 1.22099 0.060667
171 1 5.40936 7.21223 0.154306 0.613829 -1.30329 0.231453
172 1 0.47152 4.32233 6.63365 -0.711272 -0.322122 1.37311
173 1 3.85871 4.81592 1.19286 0.0706437 -0.411142 -0.678526
174 1 3.73455 6.99945 8.75479 -0.892786 0.644203 -0.402634
175 1 6.22514 5.70127 0.96426 0.542154 0.630935 -0.0952466
176 1 3.88989 0.765832 5.76469 -0.787535 -0.00538996 -0.159646
177 1 5.06123 8.20966 1.28951 0.899511 -0.100984 1.13692
178 1 7.31743 3.87764 2.97483 -0.734618 -1.19542 0.472098
179 1 6.34905 1.97359 5.54469 -0.850465 -1.40933 -0.983874
180 1 1.10048 7.84395 3.39415 -0.756183 -0.525931 -0.780878
181 1 7.92295 5.3866 1.48799 -0.00711408 0.851711 -0.938932
182 1 2.32527 1.76781 4.50919 0.453786 -0.137131 1.28815
183 1 1.68587 3.54551 8.73282 0.675997 0.521036 0.0581118
184 1 6.4631 8.145 7.34589 0.363031 -0.159932 0.873298
185 1 0.557754 8.80108 6.23783 0.213429 -0.0140035 0.53499
186 1 1.73051 4.90821 3.04105 1.44767 -0.0253204 1.26477
187 1 1.43259 2.13718 4.11929 0.785317 -0.414908 0.737271
188 1 1.58238 7.36876 2.33087 -0.430602 0.0101652 1.09339
189 1 4.58668 7.5041 2.61769 0.160852 0.536119 1.11248
190 1 6.09963 7.35275 2.82048 -0.502921 0.822225 -0.337743
191 1 3.89232 4.25757 6.80587 0.440015 -0.968706 0.253137
192 1 0.545384 1.14112 9.11537 -1.12813 0.965929 -0.48425
193 1 3.83798 0.51718 1.08471 -0.159857 -0.147748 -0.308068
194 1 8.59893 8.70483 3.70558 -1.07865 -1.13521 0.580767
195 1 6.96729 0.721211 2.19889 -1.21694 0.0338156 -0.459829
196 1 0.626693 9.14563 1.13584 0.554677 -0.72769 -0.0360496
197 1 6.10709 4.65131 3.0776 0.30498 0.116373 0.43438
198 1 7.9612 1.46796 9.2484 -0.784314 0.649198 -0.00274363
199 1 7.85852 0.781224 5.79823 -0.34284 -0.642246 0.201401
200 1 2.99145 0.314063 0.600937 -0.269925 0.762456 -0.323145
201 1 5.79523 2.20145 4.5306 -1.12844 -0.881662 -0.635437
202 1 1.4533 6.35987 4.96368 -0.828461 0.269223 0.64639
203 1 6.58472 9.18692 7.0647 -0.917411 -0.152919 -1.58807
204 1 6.21027 2.12638 0.437972 -0.0551888 0.313828 -0.239777
205 1 5.98037 0.883098 6.15391 -0.428142 -1.08829 -0.0607953
206 1 1.45502 9.25997 6.36733 1.00621 -0.431537 1.3649
207 1 6.10824 1.58732 3.53406 0.635243 0.285621 0.116727
208 1 9.38498 4.6484 2.68041 0.321289 0.716848 1.37803
209 1 7.20076 7.87835 6.67095 -0.462614 -0.932967 0.300336
210 1 1.52724 2.53755 5.93466 0.061607 0.775343 -0.0577524
211 1 8.11764 7.26746 0.380508 -0.527233 0.0614686 -0.09368
212 1 6.84125 6.55886 2.85999 0.467849 -0.211209 0.726276
213 1 0.897349 5.44889 4.59 -0.443681 -0.217022 -0.862797
214 1 7.85371 1.51747 0.929923 0.846716 -1.03954 0.714544
215 1 4.45355 6.27695 4.59575 -0.626167 0.926321 -0.162438
216 1 7.06115 7.0931 7.34062 -0.0870079 -0.226535 0.0519996
217 1 2.08569 0.817979 6.42841 -0.375511 -0.955389 -0.590659
218 1 4.25297 2.81449 3.32474 -0.04013 1.36563 -0.0737586
219 1 8.32798 5.26842 0.371852 -0.277443 -1.07472 0.72306
220 1 0.96253 1.78664 8.35658 0.757075 0.524019 0.312648
221 1 6.73171 0.830024 7.67494 -1.39266 0.545151 -0.934047
222 1 4.99469 5.48299 1.61112 1.21814 0.0693466 1.05066
223 1 3.03713 1.40232 8.30558 1.27619 -1.01155 1.07281
224 1 6.78 5.85547 6.42012 -0.376645 0.287851 1.41639
225 1 0.480037 4.40721 7.71624 0.947854 0.874743 -0.560972
226 1 3.86632 0.469427 4.54431 -0.849663 0.442589 -0.125535
227 1 7.25835 5.60087 4.40007 0.657147 -1.01081 0.970374
228 1 9.12682 1.31876 6.62773 -0.215869 0.0867103 -0.659827
229 1 1.59359 2.66337 9.35108 0.549978 0.0788866 -0.0530799
230 1 5.5578 1.95368 9.01803 0.533048 1.05571 -0.682162
231 1 4.95146 6.51345 6.59116 -0.303702 1.33761 0.029847
232 1 3.16575 3.69279 0.879552 -0.402197 0.587777 0.475795
233 1 7.18938 7.83574 2.54577 0.00650112 -0.0873935 0.831922
234 1 5.35447 7.20084 8.49481 -0.431005 0.653954 -1.08326
235 1 5.75134 6.07977 6.08885 -0.0437433 0.832608 -0.239608
236 1 7.25425 4.97847 6.0667 0.180064 -0.46002 -0.0259714
237 1 7.6998 1.27085 2.70873 -0.513617 0.481182 -1.24111
238 1 8.00049 3.96126 7.37225 1.46547 -0.0295138 -0.185365
239 1 4.63424 7.53683 6.21536 -0.58856 -0.110577 -0.334533
240 1 1.55449 1.86232 7.53162 0.242421 0.653551 0.362688
241 1 3.51164 4.4487 2.28318 -0.546289 -0.143828 -1.20661
242 1 5.83004 4.60532 0.461733 -0.0672502 -0.109176 -0.796328
243 1 0.731465 7.18494 1.82103 -0.96478 0.744308 1.00301
244 1 4.98833 5.35259 6.36057 0.0221984 0.862841 0.271656
245 1 6.33124 2.57631 3.36707 -0.369562 -0.178052 0.38118
246 1 9.10888 1.06034 3.66262 -0.480488 -1.45528 -0.122802
247 1 4.9066 3.38156 2.75821 -0.548995 0.453583 1.40023
248 1 5.10215 8.52561 6.55842 -0.839152 0.175425 0.0128877
249 1 5.1569 4.85141 3.40424 -0.839537 1.29676 -1.06746
250 1 4.90344 5.87166 3.68164 0.325831 -1.10322 0.575006
251 1 6.99686 2.16703 7.47188 0.516879 -0.252413 -0.40449
252 1 8.9624 5.06461 3.4655 -0.781653 -0.352668 0.168774
253 1 1.78003 6.76099 1.37502 -0.202583 1.21611 -0.154156
254 1 6.709 1.72711 2.64211 -0.264576 -0.0695842 1.3803
255 1 7.33123 4.59478 3.72932 -0.190795 -0.996293 -0.536403
256 1 8.39269 3.7042 0.249036 -0.12287 0.116377 -0.348354
257 1 6.44609 0.271857 5.00216 -0.440677 0.114911 -0.100951
258 1 2.41699 0.175946 3.32866 0.334181 0.146571 0.349417
259 1 3.69023 5.78231 5.25126 0.745483 -0.518081 -0.595632
260 1 4.17896 4.01323 0.685758 0.580396 1.23225 0.239159
261 1 0.394851 7.92369 0.0446514 0.712219 0.320621 -0.414002
262 1 8.03416 0.307539 2.33516 -1.1551 0.00691074 -0.266291
263 1 8.3935 6.49428 3.09327 0.0109291 -0.714686 -0.413353
264 1 7.79391 5.81916 6.4266 0.690849 -0.902153 -0.0657474
265 1 5.25266 2.52846 3.3037 0.101341 -0.532371 0.591988
266 1 8.96362 5.90643 8.94454 -0.231895 0.0417811 1.00847
267 1 5.69029 2.65376 1.13629 -0.958796 0.0467204 0.00354993
268 1 6.25942 1.12392 0.00983719 -0.127083 -1.06635 0.130075
269 1 0.441298 8.13108 1.12053 -1.2012 0.845626 0.0895751
270 1 1.7197 9.32828 4.1282 -0.160443 -0.848784 -1.05311
271 1 3.61253 6.30434 1.9422 -1.43499 1.37487 -0.935242
272 1 1.42224 4.46247 9.08172 -0.273913 0.122364 0.869915
273 1 5.95956 4.76628 1.47787 -0.712265 -0.594696 0.632451
274 1 3.95671 3.94936 9.03426 -0.762498 -1.23592 1.61144
275 1 5.51855 7.94656 2.18613 -0.785978 -0.777459 -0.962175
276 1 8.09169 8.34987 2.01349 0.111267 -0.365923 0.188996
277 1 4.95146 0.386536 4.19022 -0.183114 -0.129282 0.10952
278 1 2.60644 2.57141 5.96277 0.862913 0.730195 0.368513
279 1 0.435198 4.35858 1.72643 -0.96148 -0.220544 -0.0520916
280 1 3.13418 0.955527 6.7553 -1.12881 0.225217 0.645487
281 1 7.24819 7.02258 1.21703 1.10324 -0.435138 -0.642265
282 1 1.83425 1.5898 2.48888 0.527329 1.38837 -1.26427
283 1 9.26367 7.99572 4.94047 0.29382 0.0170438 0.799184
284 1 7.59876 6.37893 3.74207 0.400343 0.736136 -0.211025
285 1 6.67587 0.728682 3.85573 -0.375644 -1.08024 0.382719
286 1 3.08291 1.62857 5.94226 0.074971 -0.214726 -0.960452
287 1 4.29121 8.33878 8.17709 -1.00277 0.454987 0.948965
288 1 9.23484 7.65189 1.76454 0.815814 0.224129 -0.337165
289 1 5.84544 0.743673 0.974202 -0.561983 0.778177 0.437922
290 1 3.5842 6.55174 7.80603 0.0945477 -0.808687 -1.10205
291 1 5.6977 3.92562 7.74667 0.188871 -0.537576 0.269154
292 1 2.84641 5.36236 5.96679 -0.579327 -0.655608 0.954077
293 1 8.24554 2.75755 3.49968 -0.793649 -0.0575134 0.446548
294 1 0.239079 3.31824 7.07554 0.542767 -0.439971 0.325957
295 1 6.50251 2.98753 5.60327 -0.755223 -0.149537 1.40609
296 1 6.69255 6.32834 1.80684 -0.198958 0.498273 0.568974
297 1 5.89975 6.98531 5.34306 1.19792 -0.488571 -0.492058
298 1 1.19158 4.94889 7.1644 -0.518634 0.752979 -0.641104
299 1 2.98162 8.82782 2.94107 0.394991 0.603508 0.868339
300 1 0.0438895 3.65574 0.193781 -1.34332 -0.329207 -1.12054
301 1 4.11559 9.3403 8.38818 0.519573 1.43754 -0.0122474
302 1 5.69088 1.03709 4.39286 0.995507 0.075902 -1.01299
303 1 3.19548 1.29155 4.95577 0.340187 0.477095 0.762351
304 1 8.84367 5.84931 6.74699 -1.30916 -0.445326 0.0899386
305 1 3.60187 0.72395 7.78076 0.344497 -0.664396 -0.352493
306 1 2.42021 7.50536 1.66068 -0.688325 -0.140998 -0.0240493
307 1 5.98316 8.63609 4.8048 0.718691 0.970131 -1.35216
308 1 1.80943 0.216812 7.37777 -1.25935 1.37139 0.279527
309 1 8.1562 6.20631 8.20479 1.41487 -1.2292 1.29845
310 1 8.65255 5.4545 2.62106 -0.220383 0.555946 0.58397
311 1 9.012 6.7787 0.141425 0.959553 0.548063 -0.159538
312 1 6.23578 6.99077 8.96876 -0.605866 -0.278781 -1.47542
313 1 6.7924 5.68257 3.46796 0.45788 -0.069173 1.00252
314 1 6.5395 4.12295 2.21176 1.52076 0.333797 0.366636
315 1 2.91593 4.01711 7.35628 0.302837 0.367702 0.158168
316 1 8.92085 3.93912 7.73095 0.0253712 -0.350867 -0.24583
317 1 9.15692 6.64134 1.3509 -0.0723126 0.730897 0.145559
318 1 8.9189 3.67186 3.17558 -0.455814 -1.66979 -0.079857
319 1 3.23306 1.17103 1.65448 -0.404659 -0.454865 0.62355
320 1 4.59111 5.97658 5.68292 -0.69203 -1.1264 0.623309
321 1 8.94098 3.45025 1.11387 -0.824318 0.0862049 -0.680869
322 1 1.86708 9.38664 5.13787 -0.976494 0.114244 0.145791
323 1 2.54027 2.66678 2.87199 0.237987 0.944368 -0.404265
324 1 1.86597 6.65356 8.14412 0.65435 0.624301 0.545605
325 1 7.10296 6.85299 0.236437 1.18342 -1.76661 -1.08532
326 1 3.87033 1.34799 4.01011 -0.308865 -0.2481 -0.343331
327 1 3.58009 2.12001 1.7269 -0.0370442 -0.295078 0.1689
328 1 7.91396 4.3256 4.59116 -0.524484 -0.195656 1.2644
329 1 0.0671613 0.526651 0.542758 0.141963 -0.8441 -0.596922
330 1 3.35366 2.91775 8.96423 -0.724187 -0.356754 0.535688
331 1 1.6922 0.895259 3.59601 0.688827 0.435229 0.478103
332 1 2.19571 1.75738 3.44675 0.6032 0.811819 -0.333761
333 1 0.378918 3.09899 1.66855 -0.47885 0.832339 -0.871381
334 1 2.45212 7.71556 6.99579 0.36003 0.0690411 -0.383093
335 1 0.705904 5.21453 1.12605 -0.824016 -1.19021 -0.531617
336 1 4.87203 6.91704 5.44065 -1.13719 -1.28796 -0.50578
337 1 8.82081 0.194738 3.02874 -0.363873 -3.15067 -0.0144691
338 1 5.62146 1.88248 6.2623 -0.566036 0.699906 -0.0199483
339 1 5.60866 5.73732 8.20318 -0.118403 -0.140359 -0.449906
340 1 2.66412 8.73011 5.12379 0.791305 -2.18153 0.00699509
341 1 5.35329 7.90791 7.60977 0.188775 0.42617 -0.362289
342 1 9.03653 0.322016 9.04071 -0.621926 -0.546053 -0.167354
343 1 8.43543 7.44579 2.44841 -0.399413 0.65933 -0.861526
344 1 1.65379 2.79726 6.94032 0.173584 -0.0842778 -0.0797699
345 1 7.58649 8.00898 5.6956 0.635215 -0.0875454 0.04006
346 1 0.648174 2.96693 0.610431 -0.855513 -0.211321 -0.446078
347 1 8.05112 5.25928 8.58411 -0.377037 -0.143152 0.467455
348 1 6.91539 0.756458 6.6767 0.0763684 0.283076 0.608237
349 1 3.87972 3.01024 0.472627 -0.0458789 -0.124509 -0.324549
350 1 3.41379 3.40344 5.03429 0.179047 0.171683 -0.0920011
351 1 5.46318 8.34733 0.346998 0.528643 0.297863 -0.131442
352 1 4.03513 6.98396 6.93031 0.000645541 -0.4826 1.13001
353 1 8.28175 5.2873 4.29915 0.945379 -0.704127 -0.675409
354 1 1.85416 6.89191 7.04689 0.449326 0.390299 0.23748
355 1 0.774228 6.75113 3.00201 -0.662256 -0.0669143 -0.572448
356 1 7.54652 2.95503 7.16579 0.259545 -0.741385 0.678486
357 1 0.383712 4.55171 4.45088 -0.849387 -0.775963 -1.1356
358 1 5.49222 2.98247 7.58442 1.20547 -0.420795 0.948518
359 1 2.23103 6.14633 0.392364 -0.30365 0.0918979 0.396961
360 1 4.59566 1.63977 9.39038 -0.380142 -0.0780894 -0.581167
361 1 7.39041 0.72243 4.73056 0.646847 -1.21103 -0.356239
362 1 1.62282 1.60678 9.32997 1.65277 1.52853 -1.11551
363 1 9.19608 4.4407 0.818527 1.23524 0.748193 0.760818
364 1 0.0950272 1.83223 3.02358 -0.138811 -1.3762 -0.584647
365 1 4.36838 5.72909 0.723379 1.54013 1.17114 -0.669837
366 1 5.45126 9.17955 1.22101 -0.135227 0.0792469 -0.719572
367 1 1.84591 4.00094 7.07103 -0.769612 0.0798568 0.286984
368 1 1.72862 6.09869 3.97082 -0.423467 0.0423672 0.556464
369 1 8.98069 7.66805 0.769771 -0.4322 -1.13898 0.359859
370 1 2.07899 6.9397 9.05463 -0.528203 -0.706864 1.63122
371 1 0.15761 0.0418625 3.79205 0.908354 -0.629169 0.191467
372 1 4.90503 4.41846 5.32253 -0.0526853 0.339527 -0.337795
373 1 6.37514 4.52112 8.2901 -0.0365634 0.362348 0.879501
374 1 9.30323 0.283419 2.00885 -1.09357 -0.866408 -0.0449214
375 1 4.47842 7.33171 0.763241 -0.563425 0.50301 0.504871
376 1 3.90218 5.02895 0.0238265 -0.708932 -0.741644 -1.14004
377 1 3.34852 8.04162 8.54557 0.382679 -0.175785 -0.481514
378 1 3.97521 7.24183 1.80641 -0.261855 0.181555 0.248078
379 1 7.51231 4.50831 1.9368 -0.79542 -1.44575 -0.246758
380 1 8.82641 1.95883 4.3099 -1.42327 -0.799737 -0.0036378
381 1 4.3304 2.9157 5.23979 -0.699706 -0.911422 -0.318417
382 1 3.93788 8.92997 5.16431 -0.693007 -0.679888 0.175473
383 1 0.589305 6.00784 8.97452 -0.988101 0.896751 0.336993
384 1 5.27835 8.72956 4.01492 1.09692 0.406036 0.337258
385 1 5.3445 5.43596 0.557605 1.30435 0.443573 -0.0306452
386 1 8.94074 6.57587 4.06302 0.177506 -1.61005 -0.14247
387 1 9.29058 2.04135 1.99066 -0.00202236 -0.370684 -0.597101
388 1 5.27893 0.898933 8.95586 0.113624 1.30022 -0.214288
389 1 6.20489 1.60051 7.20614 0.136229 -0.808185 0.135327
390 1 1.87424 5.4292 4.92263 -0.561293 0.0496403 -0.324747
391 1 8.67896 7.55137 3.4967 -0.16415 0.244012 -0.896096
392 1 4.10867 5.41027 2.22303 -1.12337 0.465636 0.513687
393 1 7.01759 8.57151 4.64823 -0.717453 -0.206501 0.0387632
394 1 4.87267 3.6481 3.78005 0.735179 0.303131 -0.17287
395 1 7.35361 1.71694 1.82858 0.150009 0.203018 -0.382712
396 1 4.32826 1.43563 1.02072 0.312389 -0.66318 -0.484714
397 1 5.91164 3.25029 4.0164 -0.37264 -0.686706 -0.188828
398 1 7.91462 4.76788 6.77659 -0.174578 -0.905025 0.570903
399 1 8.92048 1.13256 2.46497 -1.46666 -0.189229 0.0536287
400 1 0.441463 3.3607 2.74154 -0.154868 0.446678 0.0559692
401 1 6.47828 6.03681 0.047405 -0.693037 0.244184 -0.287208
402 1 1.89903 3.57485 3.27645 -1.16687 -0.89521 0.313606
403 1 1.48386 3.43544 2.33008 0.39171 -0.808187 -0.174652
404 1 4.95308 9.15259 2.09522 -0.461509 0.725994 -0.0995722
405 1 2.45101 3.62874 5.1038 0.00318465 0.507999 -0.108897
406 1 5.35459 1.53195 0.601954 -0.632768 0.285244 0.309289
407 1 6.62544 0.0135113 1.2263 -1.32304 0.294776 0.859573
408 1 2.28421 1.99042 0.633358 -0.31535 -0.334304 0.251956
409 1 0.164394 3.55826 4.84198 -0.094958 0.497752 0.773377
410 1 7.17513 2.30053 0.709427 -0.570467 -0.00377872 -0.417803
411 1 8.10772 3.34989 2.52399 0.909765 0.254366 0.473121
412 1 2.64651 6.11716 5.27724 0.663457 0.743943 -0.576947
413 1 2.062 9.23947 0.398851 1.15854 -0.0589292 -0.311043
414 1 6.12197 1.20646 1.87325 1.8015 0.447796 -0.277465
415 1 7.11772 1.00748 8.64599 0.140697 -0.454056 -0.985024
416 1 0.451414 9.01213 0.0770832 0.436131 1.67208 0.206929
417 1 7.12344 1.91071 3.72402 -0.0906829 1.1143 -0.929584
418 1 6.83496 2.41324 6.50713 -0.0298467 0.0592147 0.108666
419 1 0.838853 2.3904 2.38081 -0.796672 0.90743 -0.783508
420 1 0.343235 4.40535 5.43849 0.502086 0.210692 0.909991
421 1 1.79471 7.68378 8.52199 0.87147 -0.196897 1.47556
422 1 7.95618 2.94009 4.50081 0.393013 0.627134 -0.375101
423 1 5.61631 3.67553 5.75617 -1.12409 0.185521 0.793348
424 1 3.85657 6.38452 3.67403 -0.963257 -0.986582 0.0166192
425 1 9.12208 2.15578 6.09816 0.517509 -0.637245 -0.237791
426 1 0.497639 1.41777 5.9896 0.134643 0.470135 -0.21859
427 1 8.5123 2.72268 1.74794 -0.677816 -0.834576 0.259313
428 1 2.99499 8.50802 0.771503 -0.829604 -0.712657 0.958191
429 1 6.1031 1.22523 8.39216 -1.04191 -0.734995 -0.0328458
430 1 7.5311 2.73503 1.79547 -1.57217 0.87171 0.0501327
431 1 7.90314 5.28111 5.30792 -1.18753 0.334994 -0.624947
432 1 1.76901 7.58645 5.11147 0.0350238 0.599631 -0.0953709
433 1 0.519929 1.49301 7.37052 -0.0408008 1.37388 0.292086
434 1 7.04862 4.70323 5.041 -0.75338 0.543057 0.902048
435 1 7.50132 6.87696 6.33937 -0.0378438 -0.692923 -0.814521
436 1 8.60202 7.13901 7.97203 0.206361 1.8099 -0.598214
437 1 3.22051 6.10467 2.88422 0.576285 1.11884 -0.247713
438 1 2.02605 5.43241 2.08102 0.546906 0.678831 1.1851
439 1 4.51966 9.03375 0.735594 -0.0657476 -0.489244 0.101511
440 1 3.2333 7.9255 2.38368 0.356601 -1.04141 -0.0823431
441 1 5.3462 2.91787 8.58376 -0.196913 -0.000640133 -0.45402
442 1 1.66894 6.01167 8.94463 0.849898 0.128082 0.261636
443 1 2.19695 3.67912 1.35439 1.2869 0.396946 0.282302
444 1 5.8456 5.6449 7.07689 -0.0202432 0.194755 0.239786
445 1 0.524635 4.93349 8.67635 -0.2474 -0.147495 0.42958
446 1 7.19472 2.78417 8.28955 0.742444 0.112145 0.246023
447 1 0.894242 4.19427 2.92349 -0.00213132 0.932115 0.199739
448 1 0.671854 8.18939 2.24767 -0.477427 0.479711 -0.720168
449 1 5.4475 7.98723 5.69037 -0.0241356 0.0761352 0.913164
450 1 2.01454 1.49368 8.36951 -0.0128038 -0.815873 1.00002
451 1 7.43905 4.8015 7.76692 0.517 -2.14233 0.84864
452 1 8.27322 6.24211 0.852961 -0.155504 0.383901 -0.257848
453 1 2.40246 1.08293 7.46291 0.321088 -0.447967 0.905426
454 1 3.83352 6.57118 0.891358 -0.308944 -0.300614 -0.273891
455 1 0.855864 7.73337 5.79589 1.28331 0.142224 0.613071
456 1 0.174705 6.34441 6.04105 -0.23303 0.429206 -1.24328
457 1 6.59334 4.86674 6.93227 0.96566 1.4261 0.831348
458 1 3.29381 8.51277 6.82126 -0.195653 -0.412015 -1.2422
459 1 8.06433 2.54331 6.36426 0.124305 0.224467 -1.14296
460 1 3.58977 2.80842 4.21956 -0.700676 0.537265 1.25379
461 1 7.17582 3.97087 6.83372 -0.109939 -0.161748 -0.913486
462 1 5.66516 6.25383 1.67142 -0.999493 0.538106 0.651078
463 1 2.18812 8.20441 0.098531 -0.298352 -1.81136 0.103696
464 1 9.28503 8.70666 1.76173 0.224388 -0.308021 0.28565
465 1 8.16507 6.67519 7.13188 1.87157 -0.816084 0.173138
466 1 2.58777 8.16662 7.89533 0.233916 0.176201 0.257219
467 1 4.47164 2.79673 7.84986 0.218154 -0.237643 -0.0162039
468 1 8.34578 7.55935 6.31645 -0.363271 -1.04258 0.0197879
469 1 6.51295 6.27493 4.88621 0.524924 0.176076 0.246922
470 1 6.70901 4.09934 5.91669 -0.822622 -1.07118 -0.513738
471 1 0.463191 1.805 4.20403 -0.434284 -0.484639 -0.0602869
472 1 0.662625 2.8739 8.55924 1.34897 0.339671 0.461679
473 1 3.9297 3.90645 7.81681 0.987382 -0.245821 1.7928
474 1 3.94321 9.1648 7.34542 0.0772799 0.474666 0.915278
475 1 1.25276 8.5262 0.588337 -0.037007 0.461756 -0.28588
476 1 8.57056 3.08225 7.064 -0.937445 -0.206889 -1.2836
477 1 7.50259 9.24691 4.00792 0.510282 0.0012948 -1.33206
478 1 5.31208 8.24567 8.58605 -0.115878 0.328983 -0.942712
479 1 0.671407 2.45442 7.57951 -0.458834 1.05556 -0.0981565
480 1 1.35503 7.56361 0.121032 1.40513 0.0827499 0.293182
481 1 4.89688 1.78295 4.13957 -0.232207 -0.547631 0.0668772
482 1 4.99295 2.53609 0.340568 -0.421705 0.0696716 -0.512001
483 1 2.79522 5.75861 7.72108 -1.54714 0.555736 -0.473387
484 1 3.52328 1.01544 3.03553 0.154975 0.434775 1.37823
485 1 7.75672 7.1575 8.71025 -0.975327 -0.0131039 -0.19997
486 1 7.22314 8.87928 8.86515 -0.187775 0.706384 -0.96883
487 1 5.53823 6.6594 4.35176 0.34473 -0.792177 -2.6137
488 1 8.04335 7.66504 7.33044 -0.0670686 -1.18649 -0.304249
489 1 0.814067 1.31009 0.741613 1.35136 0.729825 -0.846103
490 1 3.97353 0.561958 2.14649 -0.234278 0.231907 0.963339
491 1 6.79858 7.67307 3.59585 0.938576 -1.15119 1.08458
492 1 3.61063 2.52085 5.91218 -0.750618 1.42198 -0.692271
493 1 8.26872 1.88051 2.13524 -0.0118517 -0.944789 0.366691
494 1 5.27067 3.41045 4.84664 -0.552512 -0.54943 -0.336574
495 1 5.17642 1.11223 3.3692 0.250814 0.0628077 1.50208
496 1 3.71608 3.21153 6.88912 0.952314 -0.286432 0.507736
497 1 1.77571 2.60404 8.23961 0.584512 0.115427 -0.521468
498 1 0.0807238 1.10068 1.47392 0.0608471 -0.0208736 0.0416418
499 1 3.26973 7.50492 0.95205 -0.22647 0.456498 -0.508854
500 1 5.68953 4.07198 8.89081 -0.70654 -0.317617 -0.851638
501 1 7.07213 7.13942 5.31511 -0.302871 -0.076479 -0.799057
502 1 9.22299 0.348176 6.99719 -0.713076 -0.217905 -1.28621
503 1 5.20118 9.33068 8.53614 0.277217 0.184215 -1.23915
504 1 6.92307 5.28055 8.73842 -0.105948 -0.582611 0.53118
505 1 2.89223 5.23118 4.83419 -0.18949 0.663861 -0.29152
506 1 0.573719 8.66911 5.29467 -0.537285 -1.6536 -0.888117
507 1 0.595419 2.1611 1.23453 0.254184 -0.634855 0.454364
508 1 6.80648 1.27267 1.01332 0.176054 0.660662 -0.843312
509 1 4.80732 0.667346 7.8291 -0.942652 0.991705 -0.118404
510 1 0.854726 7.99677 4.56854 -0.587344 -0.52613 -0.513372
511 1 8.52636 0.292645 4.07865 1.11692 0.353614 -1.08696
512 1 4.7654 5.24201 4.77074 -0.539195 -1.00708 -0.890025