ITEM: TIMESTEP
71900000
ITEM: NUMBER OF ATOMS
1000
ITEM: BOX BOUNDS pp pp pp
0.0000000000000000e+00 9.4000000000000004e+00
0.0000000000000000e+00 9.4000000000000004e+00
0.0000000000000000e+00 9.4000000000000004e+00
ITEM: ATOMS id type x y z vx vy vz
1 1 6.9431 7.59165 4.18133 -1.30967 0.133352 -0.159262
2 1 2.10883 3.55925 0.845817 -0.85506 1.12601 -0.22188
3 1 3.60758 2.65964 3.92024 0.711172 -0.196858 -0.48353
4 1 0.909392 5.05295 0.236846 0.428622 -0.835489 -0.882446
5 1 2.18902 0.492067 5.04246 -0.716354 -0.101209 -0.543913
6 1 5.00654 6.86039 4.85872 0.99959 -0.00493947 -0.434276
7 1 6.02919 6.87657 4.56184 0.713993 -0.00511469 -0.364122
8 1 2.9405 1.27386 6.34003 -0.966718 0.224319 0.648319
9 1 0.524913 4.41553 5.0095 -0.596913 0.923236 0.709039
10 1 0.215776 3.78501 8.79903 -1.1527 -0.299993 1.01368
11 1 4.92511 9.37446 5.50937 1.47169 -0.162943 0.147285
12 1 7.38875 1.54154 1.46586 0.512359 -1.16769 1.4103
13 1 8.79196 0.0261781 4.66671 -0.647262 0.0967314 0.989249
14 1 4.79279 4.60302 7.80213 -0.867357 0.761413 0.906976
15 1 0.304496 9.21889 8.07643 1.01066 -0.331589 0.521479
16 1 1.31895 9.08433 6.4995 0.284659 1.67316 -0.120248
17 1 6.0991 4.16043 1.82112 0.712953 -0.457938 -0.9679
18 1 5.24527 7.7152 6.10851 -0.0122309 -0.677962 -0.500048
19 1 4.98594 6.28862 6.9408 -0.57547 -0.519343 0.357112
20 1 8.50998 3.37745 8.53943 0.206323 0.219893 1.5988
21 1 7.92378 4.9857 7.01218 -0.116473 -0.727248 -0.455579
22 1 8.51058 2.47532 7.77843 0.111681 0.459234 -0.097882
23 1 6.60586 9.12354 0.359863 0.274091 2.00358 1.47683
24 1 8.65429 7.28268 6.48212 -0.456834 0.201262 0.939003
25 1 7.50441 1.14201 2.45151 0.39416 0.114475 -0.262483
26 1 4.2738 3.53361 3.92461 -0.730459 0.118564 -0.206184
27 1 1.80666 0.687056 2.76056 1.20918 0.393548 0.278846
28 1 4.40598 1.69936 2.71206 0.230246 -0.901529 0.0340194
29 1 9.20723 2.49817 2.87818 -0.595075 -0.401976 0.566293
30 1 8.88578 4.55171 4.71941 -0.853958 -0.702906 -0.144971
31 1 2.21041 2.41024 1.75222 -0.673883 -0.528009 0.238611
32 1 3.32229 4.07028 6.59752 -0.105643 0.247051 -1.5594
33 1 5.49541 0.128414 0.139185 -1.12804 0.652583 -0.252688
34 1 5.12655 9.15995 1.71966 0.327623 -1.6622 1.18094
35 1 3.02132 3.46728 4.00183 0.608458 0.367276 0.0931871
36 1 4.29935 1.88934 3.85692 -0.2361 -0.343686 0.287782
37 1 6.24594 5.82188 7.66518 -1.00085 -0.414946 1.21264
38 1 0.494333 1.61177 0.225723 -1.40619 -1.1201 -0.137221
39 1 6.74763 8.24934 1.02552 0.989508 -0.108326 0.562828
40 1 1.43106 6.7214 7.67384 -0.476115 0.258059 1.11669
41 1 5.84354 1.31071 8.75871 -0.72275 -0.314845 -0.216446
42 1 2.54833 0.998057 3.40557 -0.228361 0.853375 0.477467
43 1 3.86763 8.72585 7.83315 0.144509 0.490296 0.429433
44 1 3.01635 0.24299 6.34106 0.222409 0.6111 0.756104
45 1 1.9531 7.70196 3.93485 0.375697 0.020631 0.799087
46 1 0.00755497 6.72677 1.96721 -0.285006 -0.00447718 -0.347436
47 1 1.56637 1.62178 2.17144 -1.69819 -0.288291 0.430003
48 1 5.4614 7.64458 4.20969 -0.0672965 -0.387126 -0.194358
49 1 2.34451 4.34518 4.63328 0.362865 -0.054409 1.03279
50 1 8.02813 5.1089 4.74146 0.320786 -0.427794 -1.06371
51 1 8.53284 5.27049 3.65954 -0.0977652 -0.505328 0.166179
52 1 7.03729 9.00016 2.60108 0.308244 -0.663337 0.31505
53 1 2.36646 0.237461 4.0963 -0.248836 0.850595 0.95251
54 1 7.99691 8.07306 8.21721 -0.0703879 -0.829265 -1.10986
55 1 1.24222 4.11626 4.08709 -0.319588 -0.858692 -0.852245
56 1 1.89562 6.61495 3.98959 0.601346 0.0622 -0.142211
57 1 3.41815 6.88723 6.19039 0.177755 0.299938 0.216178
58 1 5.51473 5.62314 3.16732 -0.209245 -0.45276 -1.11399
59 1 5.82581 9.12448 6.07844 -0.682148 -0.10569 -0.885567
60 1 1.33556 9.34745 4.38385 0.0403953 -1.0134 0.252466
61 1 1.72517 8.01319 9.26155 0.15346 -1.45517 -0.165798
62 1 7.71824 1.11755 0.499268 -0.682933 -0.180841 1.32574
63 1 7.66032 4.32259 5.41641 -0.34548 -0.467068 -0.476416
64 1 0.955477 7.98808 0.911091 -0.853423 -1.40422 -0.588005
65 1 6.00574 0.457881 3.88776 -0.888654 0.931561 -1.31899
66 1 3.24008 2.39408 0.454342 -0.152886 0.388788 -0.177898
67 1 7.43597 7.64374 0.538863 0.315172 0.709246 -0.559104
68 1 5.19245 7.08349 8.26148 -0.60065 -0.526285 0.00640065
69 1 7.05178 6.02049 0.585897 -1.20636 0.124124 0.406865
70 1 6.3421 4.07623 2.80302 -0.131982 1.12281 0.0589034
71 1 8.90892 2.27958 8.78472 -1.38151 1.54984 -0.372952
72 1 5.20635 2.52415 2.443 1.91601 0.50114 1.03021
73 1 3.54576 7.43443 5.09442 0.534222 -0.619389 0.0094855
74 1 4.77651 0.645598 2.35164 0.429755 -0.0446266 0.201813
75 1 6.77335 3.27364 1.27425 0.620976 -0.523348 -0.0739148
76 1 9.3272 8.61825 1.25385 -0.354771 0.479024 -0.302962
77 1 9.05123 1.91076 3.96912 -0.353616 0.735695 -0.628651
78 1 2.92595 7.84699 1.60918 -0.409507 0.676994 -0.751733
79 1 6.85111 1.49212 8.84926 0.879916 -0.974956 0.51797
80 1 1.15363 0.765431 8.35516 0.070697 -1.57567 0.430331
81 1 2.82205 8.12323 7.8535 -0.375894 0.22096 -1.40931
82 1 6.70239 0.610298 2.8925 0.00394627 0.771703 0.0972396
83 1 3.32772 5.70889 4.62618 0.889826 -0.882719 0.616148
84 1 1.85236 4.17156 6.14223 0.66253 -0.863385 0.225533
85 1 3.17502 1.86428 7.19573 0.165082 -0.482449 0.351632
86 1 3.52234 2.12832 8.91622 0.164004 -0.780562 -0.352219
87 1 3.77652 3.49895 2.95055 -0.826565 0.341664 -0.258064
88 1 8.71322 1.41516 0.0588986 -0.808677 0.0852178 -1.78381
89 1 5.9055 4.19694 4.50493 -0.0464038 -0.989975 -0.256634
90 1 5.48404 7.0144 1.38304 -0.0541376 -1.83197 0.321807
91 1 0.535729 5.37384 5.12189 -0.458991 -0.424104 -0.23183
92 1 8.6882 8.25447 8.91618 -0.0846433 0.167099 -0.0511039
93 1 3.96731 1.56307 6.58332 0.271003 0.808972 -0.44168
94 1 1.81656 6.48234 6.11939 -0.453693 0.910864 -0.340295
95 1 8.30645 8.07992 5.44834 -0.786405 -0.0709614 0.0353797
96 1 6.46617 6.85647 8.1532 -0.148293 -0.491072 -0.395612
97 1 0.735947 4.37188 1.82404 -0.222915 -0.759465 -0.080482
98 1 6.07326 9.29122 2.95939 0.0669765 0.0727576 -0.246717
99 1 5.25015 9.28983 6.95134 -0.28727 -1.22104 0.766639
100 1 7.48804 8.50643 9.1966 0.339025 -1.07328 -0.179602
101 1 5.68714 5.26009 8.79012 -1.3382 0.923138 0.258186
102 1 2.03731 2.57346 2.80774 -1.07494 -0.325371 1.3992
103 1 4.66646 8.39113 7.06521 0.362945 -0.579415 0.512371
104 1 3.611 6.69089 3.36726 -1.13894 -0.676524 -0.562662
105 1 0.689585 9.23396 3.63375 1.10169 -0.398578 -0.416729
106 1 8.39745 1.57468 5.86699 0.524143 1.18648 -0.780588
107 1 6.36935 6.33152 3.32562 0.585952 1.23425 -0.473058
108 1 8.00767 0.634197 4.83104 -0.0420714 -0.24705 1.2601
109 1 8.11429 9.18359 2.24513 0.634208 -0.840622 -0.527012
110 1 7.73207 3.69604 9.07617 0.0212805 -0.118412 0.263345
111 1 0.124383 0.905463 6.73918 -0.578125 0.384224 -0.803532
112 1 5.60682 1.99533 1.71003 0.397519 0.605893 0.344677
113 1 2.56252 3.38148 1.98121 -1.07786 -0.342267 0.349073
114 1 4.26491 4.41614 3.19003 0.889173 -0.500943 -1.25389
115 1 4.84156 8.78345 4.58187 -0.58524 -0.100476 -0.62825
116 1 6.70543 1.30372 7.7686 0.529488 -0.253006 -1.83527
117 1 8.29251 8.38816 0.451299 0.0582692 -1.29821 0.741968
118 1 7.53072 2.67115 7.36276 -0.856483 0.554232 -0.182903
119 1 4.5144 2.52057 6.43576 1.4935 -0.232884 -0.504405
120 1 1.88424 8.46509 8.31984 -0.733602 -0.250238 0.466342
121 1 3.92054 9.31363 5.93766 0.279183 -0.556628 0.200893
122 1 2.00596 8.38558 1.49437 0.182009 1.29209 0.831887
123 1 2.65061 4.79824 6.45316 -0.656909 1.70389 0.170195
124 1 1.56777 1.37678 5.28762 0.175043 0.552051 -0.9807
125 1 5.80685 5.15343 5.07493 -0.0183573 0.829766 0.953696
126 1 6.86791 4.92561 5.11602 1.35955 -0.119208 -0.923962
127 1 4.65037 8.27126 3.74973 -0.0012835 1.33253 0.15942
128 1 5.84439 6.29007 8.75323 -0.373169 -0.739635 -0.157711
129 1 9.31822 7.56717 8.39905 0.274129 -0.201654 0.258566
130 1 2.7942 2.27977 3.41706 -0.0389449 0.334072 -0.446293
131 1 8.68122 3.06347 2.23329 0.458516 0.686404 -0.298339
132 1 8.75966 8.99639 3.02522 0.528405 -0.0908631 0.0205316
133 1 5.39612 1.47787 2.60638 0.181996 0.0271376 -0.600767
134 1 0.477106 6.12899 1.23641 0.234326 1.52654 0.392111
135 1 7.55739 6.04381 4.87804 -0.0104426 -1.2997 0.735103
136 1 6.7635 9.14333 6.78628 0.348335 0.302032 -0.514848
137 1 3.07312 4.62535 7.4641 -0.0914286 -1.17077 -1.25399
138 1 4.24618 1.04817 1.49016 -0.378209 0.813224 2.14688
139 1 0.562611 1.37736 7.68501 -0.403623 -0.861955 0.0793891
140 1 6.69059 3.1518 2.28091 -0.323787 0.192974 0.730003
141 1 2.7087 0.649413 2.09888 -0.865683 0.622159 -0.0549906
142 1 3.9009 8.29509 0.269804 0.0176949 0.283865 -0.135043
143 1 4.64269 5.25894 8.7577 0.68258 1.85826 -1.11243
144 1 1.5483 2.61644 3.8658 0.460985 -0.684515 -0.36263
145 1 8.1129 4.72622 0.484318 -0.258311 -0.388002 0.185874
146 1 4.7804 0.312484 0.962337 -0.707848 0.0521739 -1.19941
147 1 5.25274 5.24041 7.07388 -0.372355 0.280931 1.75369
148 1 2.85206 7.57454 6.88189 -1.4073 0.264559 0.110763
149 1 2.53838 8.49061 3.41848 -1.06533 0.681982 1.27978
150 1 0.128575 7.21484 3.47075 0.58464 0.321739 0.0542832
151 1 9.0585 8.90721 5.58247 -0.0903382 1.17097 -0.706652
152 1 7.49757 8.57084 7.39984 0.378897 1.71958 0.544913
153 1 2.1309 6.20428 8.35479 0.736223 -0.248246 2.1278
154 1 4.49108 6.69112 1.54498 -2.0584 0.549575 -0.488248
155 1 8.83493 6.41905 3.73036 1.13263 0.746258 -0.494035
156 1 7.83409 7.91033 4.5888 0.226914 -0.392982 0.834611
157 1 7.10337 4.66545 6.36677 -0.503837 -0.204048 0.708564
158 1 2.80077 6.83324 8.84253 0.475339 0.22691 -0.0403773
159 1 0.978742 6.39225 6.71157 0.691834 0.240348 -0.0539245
160 1 1.67606 5.05075 8.15456 -0.173057 -0.89764 0.37745
161 1 1.53597 2.26481 5.99607 0.527902 1.0608 -1.54616
162 1 0.164095 5.0596 8.87791 0.372211 0.308595 1.06347
163 1 8.76192 2.724 4.6164 1.81425 -0.330123 0.668528
164 1 2.79814 0.53886 8.87878 1.53697 -0.122749 0.149893
165 1 3.60779 5.50928 0.649325 0.374031 0.550334 -0.727781
166 1 5.4095 6.08356 1.83889 0.524429 0.59056 -0.0350807
167 1 2.54983 6.76783 2.06724 -2.13428 1.22981 -0.179213
168 1 6.57082 5.23927 1.43724 -1.13982 -0.375064 0.435166
169 1 1.10017 5.93945 8.48679 0.344028 -0.410223 0.272544
170 1 9.38223 3.61765 4.4246 -0.483934 -0.390135 0.62497
171 1 5.48999 6.67255 0.304816 -1.21308 1.14055 -0.487221
172 1 0.161781 4.26426 7.26322 3.00499 0.712468 -0.800763
173 1 4.20011 4.74482 1.2875 0.17752 0.511779 0.481674
174 1 4.36268 6.74966 7.62416 0.776329 0.450484 -0.548241
175 1 6.03992 4.69862 0.754375 1.15998 -0.351177 -0.16008
176 1 4.53267 2.08108 5.50242 -0.189355 0.0976888 -0.0778829
177 1 4.4773 7.6479 2.16347 0.708476 1.64405 0.507819
178 1 6.88088 5.43756 3.23611 0.640949 -0.382367 -0.927888
179 1 6.58311 1.6603 5.7744 -0.269418 0.0852699 0.950097
180 1 1.31873 7.88771 2.11714 -1.2564 -0.286315 -0.0533665
181 1 7.13248 6.22046 1.68739 -0.120187 -0.694925 -0.0827174
182 1 1.15997 1.65958 4.33228 -0.792872 -0.244848 -0.339658
183 1 2.02514 3.52098 8.87118 -0.399382 -0.142839 0.0185788
184 1 5.47834 8.08936 8.46786 0.930761 -0.967516 1.377
185 1 1.82706 8.04102 6.14498 -0.589794 0.0566428 0.608866
186 1 2.34287 4.19618 3.58029 -1.07751 -1.78206 -0.921852
187 1 0.555829 1.01723 5.00621 -0.354541 1.66037 -0.0466376
188 1 1.97155 7.32679 1.3255 0.654594 -0.48884 -0.919748
189 1 4.52658 6.86251 2.86874 0.638771 0.941793 0.212364
190 1 5.83165 8.33118 3.36282 0.918301 -0.122976 1.04
191 1 3.5561 5.30431 6.78305 0.374711 -0.800777 0.125967
192 1 9.36178 0.657339 0.13218 -0.336714 -0.548085 -0.250417
193 1 3.16161 9.3206 0.285136 0.489584 -0.327801 -0.0636983
194 1 7.81342 8.61499 3.03461 0.796046 -0.266191 -0.0586762
195 1 7.66585 0.273811 3.16651 -0.326992 0.650081 0.611696
196 1 0.0799647 0.400113 3.02639 -1.06623 0.844192 -1.05916
197 1 6.16084 4.83496 3.72338 -0.241602 -0.553925 -0.430976
198 1 7.90747 1.87374 9.05271 -1.23413 1.29081 0.177376
199 1 6.65436 0.638685 5.98874 -0.0353121 0.628965 -0.474761
200 1 3.06577 1.35359 0.107701 0.0296428 0.510404 -0.947228
201 1 5.33051 2.70346 4.9811 0.237026 1.01377 0.718556
202 1 1.87486 6.82316 5.05629 -0.500548 -0.320041 0.276346
203 1 5.04774 8.93327 7.95004 -1.12074 -0.832339 0.496584
204 1 5.84951 2.15111 0.660104 -1.60062 -0.160523 -0.0164968
205 1 4.59792 0.665913 6.52639 1.15317 0.592065 -0.230576
206 1 1.82613 8.84802 5.36526 -0.320276 -0.272778 0.578314
207 1 5.29885 1.9371 3.50058 0.583067 -0.266971 -0.894858
208 1 8.86834 4.84604 2.70608 0.371991 -0.332324 -0.718318
209 1 7.65944 0.0795512 6.29444 -1.21962 -1.06828 0.270559
210 1 2.4497 2.26181 8.76715 0.839018 -0.728186 -0.34781
211 1 8.51073 7.30885 0.39275 0.536334 -0.721881 0.108965
212 1 6.16958 7.29991 3.45314 0.425706 -0.997379 0.142747
213 1 1.43661 5.08372 4.65495 0.53931 -0.49716 -0.387688
214 1 9.17521 1.40444 0.930444 -2.05386 0.812456 -0.951138
215 1 4.46974 6.10961 4.40102 0.353206 -0.0708017 1.024
216 1 5.73906 8.41762 6.78332 1.17195 -0.395142 0.668205
217 1 2.94924 1.61183 5.30233 0.214197 -0.368666 0.637296
218 1 3.6169 2.41157 2.73787 -0.863549 0.945424 -0.735112
219 1 7.62244 5.33806 1.3375 -0.141971 0.0282856 -0.528357
220 1 0.853336 1.83211 6.80678 -0.348422 0.716972 0.0833312
221 1 7.76552 7.6553 6.96749 0.234459 -0.792122 1.00504
222 1 4.6067 5.72897 0.345353 -0.914275 -1.01585 -0.338029
223 1 2.07051 0.958968 7.9426 0.610743 1.02511 0.129932
224 1 7.1697 6.30103 5.80008 0.754362 -1.11251 0.980239
225 1 8.01235 4.184 7.83805 0.680986 -0.0925555 -0.759552
226 1 3.0046 9.3187 5.38983 -1.69216 -0.390916 0.898949
227 1 6.94561 7.10516 5.08957 -0.416195 -0.115902 -0.297103
228 1 8.38508 0.848857 6.64217 -0.558378 0.332338 -0.0105073
229 1 2.31326 1.90344 0.8187 1.50534 -0.451107 0.797479
230 1 4.37823 0.169974 8.45244 -0.136657 -0.0428517 0.313851
231 1 5.05757 6.66796 5.88439 1.36812 -0.184544 0.266282
232 1 4.10665 3.80697 0.937998 0.607528 -0.216336 -0.736163
233 1 6.87589 8.05352 3.1896 -0.961746 0.310254 -0.357108
234 1 5.81359 8.64353 0.949765 0.755962 0.223035 0.447828
235 1 7.85295 6.66788 6.62415 1.36557 -0.479798 -0.282786
236 1 8.61793 5.53502 5.35729 -1.59094 0.0257454 0.163163
237 1 8.37525 1.39337 1.6716 -0.123293 0.367291 1.19856
238 1 6.56473 4.08598 7.25282 -0.268443 -0.412456 0.322839
239 1 5.13571 7.36015 7.12795 0.734357 -0.0884666 0.560705
240 1 1.98141 1.37887 6.83532 -0.255162 0.448358 1.56382
241 1 4.08027 4.13958 2.19359 -0.64267 0.131946 -0.836938
242 1 6.47367 4.61925 9.13534 -0.33524 1.33907 -0.864676
243 1 0.362841 6.9916 0.528696 0.652846 1.31184 1.98272
244 1 6.09325 6.10597 5.24862 -0.375711 0.919057 0.877786
245 1 6.19241 2.22656 2.76496 -1.81502 -0.903528 -0.730803
246 1 8.0706 2.31422 3.84938 -0.718047 0.196249 1.36262
247 1 4.90643 3.61013 2.9455 -0.339298 -0.259078 -0.101104
248 1 3.77094 8.46191 5.20072 -0.302059 0.585496 -0.130852
249 1 5.86517 3.53485 5.32904 0.907155 -0.520926 -0.855233
250 1 6.13116 5.76521 4.28606 -0.112979 0.333521 0.666212
251 1 6.1954 1.45413 6.82694 0.336574 -0.0896041 -0.36802
252 1 0.241983 4.49911 3.70329 0.451903 -1.32737 0.370076
253 1 1.57239 6.34453 1.08438 0.0945582 -0.0857832 1.27958
254 1 6.4207 1.38692 2.15477 0.564443 -0.81095 -0.0216239
255 1 7.64393 5.58503 2.50684 -0.0440967 -0.180492 -0.521774
256 1 8.71786 3.79769 0.311448 0.713572 -0.21479 -0.710177
257 1 6.22365 1.04582 4.69065 1.24582 -1.0446 -0.823778
258 1 2.55876 9.40328 2.99841 0.301037 1.29349 0.501848
259 1 3.93226 6.23305 5.3621 -0.258711 -0.588311 -1.43012
260 1 4.73402 3.38926 1.7304 0.70903 -0.0521269 1.03503
261 1 8.31875 7.12716 8.70311 -0.302635 0.705798 0.405758
262 1 0.878082 1.28075 1.45579 0.132828 0.289064 0.267518
263 1 7.79827 4.76056 3.12436 -0.751219 0.345872 -1.80758
264 1 7.07735 7.70227 7.92496 0.276942 0.168188 -1.27162
265 1 6.00674 3.13027 3.17996 -0.420152 -0.122641 -1.10195
266 1 0.0258144 3.80456 1.3004 0.59337 -0.445626 -1.00016
267 1 6.20655 3.03689 0.398281 -0.109311 0.0845627 0.258044
268 1 5.47396 1.14172 0.461472 0.353332 0.416529 0.792798
269 1 0.877076 8.83908 1.52424 -0.385239 0.031531 0.67321
270 1 1.95844 7.28169 2.92366 0.272494 0.190242 1.20311
271 1 3.01855 5.92455 2.55363 0.688594 -0.304762 -0.476249
272 1 1.65866 4.4064 0.411403 1.12872 1.02922 -0.40675
273 1 4.52258 5.69918 1.46886 -0.251904 0.25644 0.55899
274 1 3.70073 5.70849 9.02167 -0.212353 0.843026 0.378926
275 1 5.56426 6.68083 2.7739 1.00542 -1.19133 0.636496
276 1 8.60485 8.28728 2.14081 1.42674 -1.25725 0.111467
277 1 4.06381 0.0571656 4.94261 -0.346787 0.640146 -0.268613
278 1 1.49696 4.19086 5.18458 -0.48125 0.913745 0.115839
279 1 9.301 5.62328 1.94544 -1.2312 0.0215557 -0.0245979
280 1 3.94132 1.54399 4.96753 -0.357491 1.32448 0.382834
281 1 7.81807 6.82998 1.04373 -0.00764449 -0.212069 0.216806
282 1 1.23648 2.70945 1.94665 1.55345 -0.454772 0.441326
283 1 0.624811 7.90571 5.05086 0.306206 -0.449568 -0.548286
284 1 6.33674 6.07843 2.31546 0.0463437 0.182203 -0.132364
285 1 6.792 9.10698 3.71 0.815093 -1.19418 -0.392827
286 1 2.45998 2.53116 5.51031 -0.194697 -0.525244 -0.726763
287 1 4.44721 8.42337 8.68607 0.362661 -0.57182 -1.01783
288 1 1.07766 8.98558 2.62793 -0.345273 0.508009 -0.98508
289 1 5.77903 0.543825 2.28468 1.22484 -0.246989 -0.143398
290 1 4.45664 7.70949 7.94144 0.331933 0.542204 -0.120737
291 1 5.93905 4.89965 7.77829 0.0605305 0.643212 -0.17144
292 1 3.11223 5.42934 5.63357 0.102764 0.339086 0.296367
293 1 8.4824 3.22401 3.80718 -0.454516 -0.66454 -0.361268
294 1 0.744789 3.28424 7.30491 -0.039983 0.23596 0.575356
295 1 7.17421 3.64093 5.96562 1.2544 -0.195 0.385091
296 1 6.83337 7.05757 2.44595 -0.117103 -0.0448339 0.387424
297 1 6.25204 5.12641 6.75099 0.805918 -1.0528 0.614652
298 1 1.86632 4.65125 7.14262 0.132023 -0.307143 -0.168173
299 1 3.5672 8.69967 3.47887 0.485406 0.136493 -0.353369
300 1 0.549597 4.17186 0.430218 0.70604 -0.950067 -0.970625
301 1 2.89635 0.765479 7.24636 -0.373679 -0.364792 -0.352331
302 1 7.01487 0.381383 5.0549 0.604241 0.291098 -0.558186
303 1 1.57273 0.821235 3.75669 0.786756 -0.196477 0.854747
304 1 8.41886 5.69241 6.39368 0.301883 0.469631 0.592112
305 1 2.30768 9.33585 8.07369 -0.769348 -0.632358 -0.764847
306 1 2.56672 7.29236 0.492214 0.297277 -0.534491 0.0741071
307 1 5.85968 8.84145 4.39722 0.327924 -0.133104 0.155743
308 1 2.04165 0.635151 6.02519 -1.12539 0.0216566 -0.707965
309 1 8.09654 6.21513 8.48829 -0.00356367 -0.0965177 0.484657
310 1 8.6709 4.25162 3.70786 0.0154644 -0.116552 -0.446352
311 1 8.64639 5.50564 9.05273 0.920351 0.315137 -0.212375
312 1 6.25043 6.2565 1.21689 -0.321291 -0.153518 -0.914532
313 1 7.70537 5.95331 3.5106 0.420425 0.367497 1.02776
314 1 6.73205 3.87226 3.77682 -0.202236 -0.135969 0.412992
315 1 4.01084 3.96743 7.54707 -0.0941015 -0.871902 -0.541344
316 1 8.58904 2.82913 6.76408 -0.198963 0.191546 0.288229
317 1 0.0745694 7.65019 1.54217 -0.104396 -0.575285 -0.479729
318 1 9.31117 3.51371 3.18387 0.0809127 -0.694098 0.489655
319 1 3.57768 1.47353 2.19479 0.58441 -0.395721 -0.0655297
320 1 5.00099 5.85331 5.28276 0.427814 0.267412 0.157578
321 1 8.65702 3.10223 1.07406 0.235024 0.699741 0.0783052
322 1 1.686 7.83123 5.03434 0.347417 -0.286992 0.316723
323 1 3.27396 4.488 2.86047 -1.19735 0.181707 0.154984
324 1 1.46718 5.69144 7.45322 1.16036 0.674501 0.0133906
325 1 6.75697 7.24567 1.4144 -1.98443 -1.20926 0.439623
326 1 3.21875 1.72593 4.22337 -0.542099 -0.553548 -0.740428
327 1 4.10484 1.70384 0.351851 -0.229306 0.125519 -0.621048
328 1 7.08834 5.26355 4.16151 0.281375 0.503798 0.00362759
329 1 8.90166 9.37862 8.62738 -0.951866 -0.0599526 0.468053
330 1 3.45569 3.99417 -0.0100521 -1.44116 0.21206 -0.976534
331 1 0.93402 1.29642 2.98381 -1.1584 0.682906 0.29958
332 1 1.79595 1.74391 3.38362 0.454263 -0.833763 0.435806
333 1 9.3698 3.96283 2.33976 0.744653 0.0927113 1.22906
334 1 1.29439 7.77956 7.59429 0.525244 0.212514 0.433397
335 1 1.14716 5.4826 1.73399 -1.82269 1.35516 -0.234478
336 1 6.16662 7.86383 4.92931 0.510787 -0.871695 -0.660535
337 1 0.446914 9.29446 4.93194 -0.746886 -0.507469 0.750705
338 1 5.75468 2.34727 6.93742 0.0184954 0.440391 0.99911
339 1 4.35993 4.6009 6.72123 0.0766443 -0.0899431 0.792079
340 1 4.30474 9.30455 3.83461 -0.250997 -0.201805 0.349336
341 1 5.79929 6.68272 7.3954 0.371522 -0.311611 -0.614632
342 1 8.24446 2.0687 0.764547 0.872014 0.448506 0.21666
343 1 8.48134 7.23839 1.81907 0.152141 -0.2243 -0.115238
344 1 1.00376 2.40392 7.93364 -1.52803 -0.11962 -0.00517454
345 1 0.00976804 5.56273 6.11967 -0.0855993 0.889812 -0.834651
346 1 9.15758 2.32029 0.40749 0.743802 0.288609 0.715954
347 1 8.30792 5.89844 0.538504 1.15794 0.702871 -0.212986
348 1 6.16646 0.451123 7.13326 0.555206 0.0630019 -0.212852
349 1 4.26863 2.76349 9.30246 0.179827 0.000149463 -0.573448
350 1 2.94341 4.2536 5.59944 0.185167 -0.418562 0.512415
351 1 5.19845 8.5909 2.55015 0.463068 -0.566378 0.656376
352 1 4.00742 7.62833 6.81353 -0.0503981 -0.885734 0.086931
353 1 7.17605 5.86239 6.80387 -0.488361 -1.82706 -1.62581
354 1 1.81151 7.1841 6.8488 -0.0604975 0.387585 0.70124
355 1 8.81807 6.90251 2.8053 1.60877 0.316607 -0.395736
356 1 6.14865 3.536 6.39771 -0.94108 0.130076 -0.0360195
357 1 0.504197 5.01925 2.60492 -0.776589 0.135603 0.496044
358 1 5.50055 5.74258 6.23946 0.592161 0.0546126 0.109889
359 1 1.95843 5.3616 0.770903 0.067464 0.381408 0.853641
360 1 4.87158 1.44769 8.38628 -0.0455711 0.974716 0.0399087
361 1 7.19086 1.32135 4.85153 -0.453371 0.427377 -0.664457
362 1 1.3037 0.369789 1.02214 0.149786 0.381851 0.202384
363 1 7.64062 3.37817 1.84867 0.365292 -1.18375 0.09659
364 1 0.532725 2.45683 4.51103 1.02883 0.219739 -0.296354
365 1 2.78258 5.26889 0.0634747 -0.632207 -0.719774 0.210616
366 1 6.02181 0.256818 1.07684 0.661248 -0.323367 -0.23366
367 1 1.24064 4.3151 8.86902 0.279474 -0.436052 0.204693
368 1 1.76088 5.6375 3.86087 0.506399 0.428317 -0.562973
369 1 7.73756 6.65415 9.37122 -0.249766 -0.317307 0.430635
370 1 1.07143 6.26034 0.13022 -0.746639 -0.546082 -0.129383
371 1 9.20481 1.84746 5.08855 -2.09433 0.901004 -0.626783
372 1 6.65878 2.75461 5.28094 -0.170934 -0.0529368 0.666034
373 1 6.82522 3.85574 0.353701 0.79786 0.302821 -0.765885
374 1 9.02826 0.961638 4.39686 -0.60409 0.257155 -0.972986
375 1 3.96898 7.89198 1.28386 -0.983166 1.33834 0.740848
376 1 4.67039 3.77529 0.0727295 0.0944727 0.409614 0.275398
377 1 2.73933 7.98899 8.99855 1.47149 0.752371 1.60663
378 1 5.10524 7.65696 2.92443 -0.914532 -0.111401 -1.80252
379 1 7.5873 4.37002 4.06399 0.210388 1.22367 1.83801
380 1 8.15257 1.86513 6.95258 -0.0938111 -0.588312 0.0185842
381 1 5.57914 1.69561 5.43366 0.102342 0.0725454 -0.0690133
382 1 4.50454 8.46043 5.94484 0.740276 0.939048 0.193253
383 1 8.88628 6.48206 9.31841 0.12914 -0.0826483 -0.732547
384 1 5.25917 9.17178 3.52646 0.127252 -0.113034 -0.668281
385 1 4.85109 6.30894 8.84002 0.860358 0.153857 -0.232385
386 1 8.54054 5.89506 2.76874 -0.777639 -1.21687 1.97604
387 1 0.901161 0.547863 2.09311 0.903331 0.0449303 0.580136
388 1 4.60786 0.781712 9.25188 0.458689 -0.61309 -0.253697
389 1 7.49515 2.09616 5.55758 0.212589 -0.257502 -1.35484
390 1 2.33365 5.70183 4.81939 -0.716269 -0.842605 1.53244
391 1 8.75616 7.95586 3.06067 0.154225 0.564658 0.803838
392 1 4.30009 6.71293 0.359129 0.419737 0.90961 0.00304422
393 1 8.80745 7.50009 4.10902 -0.544373 0.58814 0.847651
394 1 4.97073 4.35594 4.01357 0.990186 0.375279 -0.731083
395 1 7.80945 0.52473 1.60471 0.327908 -0.583308 -0.474619
396 1 4.84657 1.94929 1.00747 -0.606843 0.0616366 -1.14241
397 1 6.83666 3.8777 4.89445 0.433433 0.997214 -0.477678
398 1 6.65247 5.42208 8.48122 0.00934354 -0.361702 0.321179
399 1 8.51778 0.731688 2.57492 0.834657 0.87468 -0.163511
400 1 0.813562 3.02671 2.79439 -0.468611 -0.0388836 -0.223171
401 1 6.23303 5.57593 0.225926 0.163985 1.20921 -0.298863
402 1 1.67288 3.46627 3.27199 0.00409241 0.501485 0.495565
403 1 0.604958 2.26355 1.16103 -1.50348 0.455068 -0.312493
404 1 4.41233 9.16767 2.83291 1.68285 -0.0272414 1.11421
405 1 2.15517 4.96405 5.56787 0.27113 -0.448065 0.531221
406 1 5.36386 0.997063 1.53392 -0.107842 -1.17938 -0.226344
407 1 7.06771 0.393246 0.882684 0.119704 0.22123 -0.0612994
408 1 3.81254 1.1057 8.59223 0.0598156 -0.510239 -1.06492
409 1 0.940556 3.37705 4.90351 -0.341967 -0.799432 0.190051
410 1 7.94246 2.40175 1.7466 -0.283265 -0.567765 0.0197067
411 1 7.97552 2.83563 2.96078 -1.12343 -0.580627 -0.609691
412 1 2.84067 6.44797 5.42904 -0.265521 0.672495 1.24008
413 1 0.609832 9.11881 0.552977 0.29694 1.2173 -0.471938
414 1 6.36319 1.32365 1.03104 -0.385196 0.267384 -0.16206
415 1 7.15289 0.0733735 8.94699 -0.0135136 -0.65347 -0.145369
416 1 8.88452 9.13285 0.276584 0.529988 -0.225742 0.236289
417 1 6.32007 1.56227 3.59452 -0.737177 0.0263781 0.272478
418 1 5.61897 0.736234 6.07209 1.05954 0.33181 0.557844
419 1 1.56754 2.59316 0.948685 0.688886 -0.146448 -0.766145
420 1 0.0901033 2.84142 5.39429 1.3416 -0.901186 -0.231146
421 1 0.483415 6.18044 7.61217 0.638426 0.53539 0.418145
422 1 8.51516 2.59178 5.67647 -1.53895 -0.897694 -1.45857
423 1 6.5482 2.56875 6.36442 0.501307 -1.20009 0.0448785
424 1 5.34796 6.47855 3.86619 0.00387493 0.534184 -0.545299
425 1 0.506253 0.118716 5.98309 0.594352 0.201911 -0.443449
426 1 1.05875 1.0231 6.12669 1.61927 1.23333 0.848959
427 1 7.29715 3.78677 2.9001 -0.389631 0.679949 0.919883
428 1 1.9572 0.40413 0.255553 -0.343615 0.536792 -0.0719432
429 1 6.35201 0.394357 8.3776 0.74539 -0.807238 0.455827
430 1 7.20253 2.24091 2.45388 0.696277 -0.46254 0.151769
431 1 9.19333 5.51251 4.39923 -0.173181 1.42073 -0.267581
432 1 1.01551 7.26541 4.18096 -0.345211 0.165543 -1.00861
433 1 1.98632 8.59203 4.33773 -0.0709556 -0.418005 -0.380929
434 1 6.17253 4.46067 5.88867 -0.50769 -1.70002 1.10966
435 1 8.30608 5.98651 7.45351 -0.710136 1.42731 -0.102527
436 1 7.86877 6.96571 7.78433 -0.563216 0.302229 0.022387
437 1 3.63436 5.33112 3.28976 0.172597 -0.709941 0.507327
438 1 1.46893 4.74912 2.41683 0.771536 0.924311 -0.254838
439 1 4.13654 9.23462 1.74536 0.143739 -0.521184 0.775634
440 1 3.54123 6.98595 1.10518 0.0527393 1.20079 1.05223
441 1 5.3468 3.00243 9.12993 -0.201717 -0.944195 0.193051
442 1 1.79991 5.42294 9.1267 0.199832 1.85371 0.893647
443 1 3.2129 3.3841 0.902791 -0.836964 0.306161 -0.232014
444 1 6.5812 5.44006 5.85959 0.0722668 0.46087 0.138945
445 1 8.59449 4.28571 6.8466 0.440402 -0.726489 -0.5153
446 1 7.69647 1.87885 7.94624 0.455762 -0.58684 -0.331489
447 1 0.347362 5.0476 1.14093 -0.095263 -1.54903 -0.455096
448 1 2.02614 8.41584 2.54419 -0.922882 0.774981 0.188991
449 1 5.98709 7.06089 5.60967 0.108229 -0.666112 0.792956
450 1 2.92846 1.46449 8.25175 -0.449005 0.455675 -0.231414
451 1 6.15323 4.04961 8.27793 0.284107 1.4012 -0.998928
452 1 7.12013 7.52184 8.92571 -0.036751 -0.504352 -0.231655
453 1 3.52103 2.26877 5.99355 1.28569 0.233502 -0.7919
454 1 3.26261 6.37234 0.237096 -0.151514 0.0687769 -0.28776
455 1 0.608843 6.39964 5.68075 -0.564705 0.976317 -0.705217
456 1 9.03032 5.54764 8.06934 -0.586676 -0.334812 0.414442
457 1 6.88025 6.29667 8.9313 -1.39051 0.758963 0.192913
458 1 2.59625 8.5958 6.39152 -0.31443 -0.358232 -0.139783
459 1 7.63975 2.74595 6.34174 -0.0227718 0.285448 0.749335
460 1 3.78004 3.55645 4.9071 -0.824537 -0.0733059 -0.398468
461 1 7.62358 5.36706 5.74668 -0.181014 0.212619 0.980308
462 1 4.7668 7.54964 0.750425 -0.241069 0.137376 -0.105676
463 1 1.35016 9.09847 8.87246 0.0912849 0.026338 0.472557
464 1 0.534648 0.823809 3.81079 -0.620682 -0.920257 1.13177
465 1 0.310836 7.09445 6.39782 0.458508 0.560019 0.740904
466 1 2.12213 1.33311 9.16099 -0.22155 2.03852 -1.59231
467 1 4.86205 1.88369 7.3728 0.546928 0.260935 0.0743304
468 1 6.83933 8.95774 5.72175 -0.00350174 0.507909 0.782939
469 1 7.15151 8.05074 5.45208 -0.42593 -0.16364 0.187905
470 1 6.7978 2.44825 8.14961 0.533341 -0.0750855 -0.534465
471 1 1.5457 2.44678 4.88521 0.532612 -0.224328 0.755702
472 1 0.182021 3.22879 0.528371 -0.164684 -0.622389 -0.0182126
473 1 3.1471 3.98631 8.48161 0.268742 -0.157011 0.890338
474 1 2.89006 9.0525 7.24667 0.707511 -0.965108 -0.792448
475 1 0.266096 8.67396 9.08945 -0.157589 -0.88128 1.32347
476 1 9.22081 1.91936 6.37144 -1.18424 1.01713 0.371536
477 1 6.93896 0.795976 3.95314 1.68469 0.0680345 -0.520449
478 1 5.20822 8.51396 0.067164 -0.696533 -1.12934 -2.04515
479 1 0.0630814 2.94784 8.19791 -0.638318 0.826692 0.909215
480 1 1.6204 8.87143 0.652852 -0.331338 -0.420021 1.09358
481 1 4.88898 1.74607 4.62491 0.352216 0.393798 0.0758544
482 1 5.77319 2.06923 7.98512 -1.04815 -0.503676 1.03459
483 1 3.31773 6.18689 8.13577 0.838955 1.57324 -0.642412
484 1 2.59539 1.62227 2.4901 -0.309567 0.885104 -0.0245496
485 1 6.60032 6.91067 0.363586 1.73185 1.51426 -0.746525
486 1 6.92888 8.63512 8.30095 -1.35216 -0.0145325 0.189993
487 1 6.88761 6.43696 4.17849 1.22467 0.648993 0.00195756
488 1 6.7683 8.05693 6.83912 0.493351 0.0854674 -0.133553
489 1 0.110881 0.834407 8.49373 0.511851 -0.97334 -0.493006
490 1 3.50824 9.36343 2.57538 -0.262316 0.625786 0.648101
491 1 7.77899 7.66506 2.60811 1.06672 0.897653 -0.10686
492 1 4.48256 3.11261 5.58896 0.711706 -0.595307 0.0865584
493 1 9.3126 1.01932 2.01194 -0.521632 1.50987 -0.138197
494 1 4.87599 3.74468 4.8305 -0.266128 0.941189 -1.09597
495 1 5.13075 0.781937 3.37945 -0.0830006 1.10471 -0.4531
496 1 4.35261 2.88257 7.44608 0.115342 -0.778995 2.0321
497 1 1.58798 1.75853 8.40662 -1.2034 -1.20436 1.11213
498 1 0.0851899 0.360261 1.22748 -0.0931039 -0.211141 1.01719
499 1 3.61299 6.93642 2.30398 0.196932 0.916628 -0.751588
500 1 5.96102 3.05788 8.19226 2.02 -1.32872 0.40698
501 1 6.24965 8.12017 5.96409 -1.2983 0.238632 0.668215
502 1 0.71421 2.79823 6.38083 0.911307 0.51088 -0.227945
503 1 6.09353 8.9002 7.73895 -0.263017 -0.38852 0.291099
504 1 5.13786 4.83615 0.217532 0.0334292 0.0973134 0.839971
505 1 4.18271 5.10289 4.10681 0.272202 0.110736 0.900037
506 1 0.877389 7.97346 6.6469 -1.09431 -0.0773406 0.136567
507 1 9.00987 2.17144 1.5584 0.237838 -1.27345 0.123615
508 1 6.59521 2.24779 1.36276 0.140416 0.35544 -0.491471
509 1 3.61902 8.58161 6.74771 0.54725 0.0370752 -0.279356
510 1 0.982051 8.31849 4.07269 0.595404 -0.985798 -1.18033
511 1 8.5091 8.49275 3.89472 0.35623 -0.309169 1.15687
512 1 4.77951 4.81515 5.04893 -0.108101 1.66944 0.275933
513 1 1.50344 7.20977 0.405777 -0.411072 1.79695 -0.936972
514 1 0.786748 8.62586 5.72388 1.36506 0.0292684 -0.116814