ITEM: TIMESTEP
46300000
ITEM: NUMBER OF ATOMS
1000
ITEM: BOX BOUNDS pp pp pp
0.0000000000000000e+00 9.4000000000000004e+00
0.0000000000000000e+00 9.4000000000000004e+00
0.0000000000000000e+00 9.4000000000000004e+00
ITEM: ATOMS id type x y z vx vy vz
1 1 0.374562 6.38966 2.3163 -0.127913 -1.31516 -0.511142
2 1 5.88048 6.29737 9.36519 -1.15016 0.446964 -0.552975
3 1 3.26018 2.47237 3.91608 0.829898 -0.411993 -0.127946
4 1 3.63875 7.43913 2.25761 0.232189 0.904323 -0.425089
5 1 1.28443 8.06298 3.55122 0.126509 -0.110234 0.973748
6 1 5.23771 7.85989 5.94516 -0.0217628 -0.654899 -0.222873
7 1 2.13613 -0.0275228 2.22025 -0.489188 -1.27837 -0.808326
8 1 4.53754 0.115786 7.07557 0.708107 0.362101 0.182338
9 1 2.2105 7.20559 5.26207 -0.0299599 -0.143139 0.289505
10 1 3.34363 7.12481 0.641064 0.807589 -1.25252 1.51616
11 1 6.68218 9.39236 5.47459 -0.558928 0.81001 0.379568
12 1 0.000221634 9.16072 8.87682 -0.0621493 -1.25593 -0.62222
13 1 2.26044 3.43315 1.92619 -0.0880749 1.28541 0.30105
14 1 3.83338 3.50444 4.00606 -1.02064 0.553402 0.687108
15 1 0.129492 0.931619 8.81759 0.398895 -0.531718 0.283872
16 1 2.19865 0.836849 7.05405 0.589937 -0.236634 -0.863489
17 1 8.00598 4.26897 0.636002 -0.990245 -0.173992 0.228061
18 1 5.29641 6.33688 8.49242 -0.766525 -0.597102 0.681259
19 1 3.75857 4.53597 8.76563 -0.216251 0.284661 -0.917203
20 1 0.536512 5.74874 7.74204 0.705506 0.288388 1.03531
21 1 8.62075 9.22754 2.1212 -0.0976534 0.499965 0.666756
22 1 6.33366 3.86297 8.67808 -1.28516 0.144869 -1.1674
23 1 4.56938 2.713 9.3642 0.0473093 -0.569296 0.907402
24 1 3.1564 8.60906 5.86105 0.143576 -0.771326 -0.933589
25 1 7.49545 1.4585 2.12533 -0.390679 0.567485 1.01862
26 1 8.6513 3.15338 3.10776 0.373828 0.939675 -0.017881
27 1 1.61026 7.51159 1.79525 -0.454491 -0.723238 -0.244475
28 1 3.96837 3.11399 0.866245 0.039354 -0.88164 0.57937
29 1 1.68827 3.94169 5.85214 -0.319943 -0.563916 -0.177254
30 1 0.754053 4.05743 5.49477 -0.482395 1.14795 0.999104
31 1 1.93551 2.39066 0.643447 -1.94685 0.421058 0.17147
32 1 8.48195 4.24049 6.52776 -0.135519 0.444438 -0.532991
33 1 4.94593 7.751 0.110961 0.539352 0.145789 0.411854
34 1 4.73747 9.10899 3.53832 0.323156 0.777787 -0.565642
35 1 0.258515 2.09011 1.10148 -0.851068 -1.34071 -0.939576
36 1 3.37107 1.13771 2.80241 0.591499 0.980917 -0.108438
37 1 5.33935 8.34463 8.69218 0.938389 -0.0106137 -0.51199
38 1 1.17546 8.30565 2.5506 -0.492354 -0.444704 0.568123
39 1 4.19478 6.98293 9.3209 0.510598 0.508363 0.408637
40 1 7.13055 1.74237 8.36079 0.981308 1.74557 0.36241
41 1 6.94806 8.38941 5.34925 0.171076 -0.218348 0.0818651
42 1 0.119792 0.366774 5.14954 -0.432283 1.45928 0.894506
43 1 1.63906 9.01438 7.34953 -1.26224 0.162329 -0.750218
44 1 1.51049 2.92416 6.17067 0.401869 -0.553017 0.0185055
45 1 7.70304 3.56208 1.46408 -0.701357 -0.63685 -0.10899
46 1 1.29668 4.0133 3.76127 -1.33839 -1.14741 -0.0316463
47 1 1.31112 5.54981 9.06585 -0.070904 0.169386 0.361275
48 1 6.54829 5.08989 3.48344 -0.665493 0.685706 -0.521105
49 1 3.26056 4.45153 6.79556 -1.6911 -0.0620601 0.978696
50 1 1.00592 6.98366 5.07392 0.381835 -0.637819 0.251322
51 1 1.34238 6.17375 2.70975 0.484429 -0.0534895 0.657274
52 1 4.72058 2.40987 2.61834 0.343442 -1.01459 0.0641798
53 1 2.51255 1.83214 4.20264 0.136538 -0.413283 0.890153
54 1 7.59535 5.14087 8.96166 -1.02388 -0.518262 -1.07532
55 1 1.60691 5.40415 7.02533 0.272798 0.585241 -0.334247
56 1 0.134239 4.54704 8.80849 0.234365 -1.04725 1.66579
57 1 1.73304 5.02444 8.05832 -0.406201 -0.499893 -0.126126
58 1 6.69546 6.8826 9.08493 -0.683726 0.246308 -1.09458
59 1 8.15515 8.02574 6.69898 0.389255 -0.386315 1.80329
60 1 1.50773 7.67415 4.54898 0.443082 -0.82283 -0.359797
61 1 2.57437 2.34636 3.13868 0.614123 -0.341506 -0.851753
62 1 1.53176 8.15641 0.773651 0.131341 -0.363117 -0.211415
63 1 7.09542 0.770173 6.13541 0.421325 0.199142 -0.305188
64 1 0.613139 7.70606 0.621183 -0.152926 0.157147 -0.642467
65 1 8.96253 1.40582 5.13827 0.990351 -0.825236 -1.48778
66 1 2.58772 8.21495 5.01832 -0.814749 0.238859 0.87391
67 1 4.51977 8.05182 1.84262 -0.383442 0.436329 -0.361973
68 1 5.40936 7.08782 7.66256 0.682305 -1.30012 0.0850156
69 1 6.88539 3.49842 3.17332 0.340378 0.758386 -1.73002
70 1 5.89511 2.04397 3.6067 0.9455 -0.348547 -1.29524
71 1 6.5727 3.79962 1.02754 1.00066 -0.145365 0.465112
72 1 5.81807 0.2737 5.0504 -0.755153 0.0576783 0.385468
73 1 2.81021 8.36434 6.8469 0.973902 0.5877 -0.260053
74 1 4.17292 8.22924 3.62069 -0.213181 -0.592864 -0.339964
75 1 7.56528 2.10277 7.5001 0.477311 0.418641 0.95573
76 1 7.22339 1.85405 1.03614 -0.764641 0.0175365 -0.283119
77 1 1.9213 3.20907 3.42566 -0.960813 1.41551 -0.815656
78 1 2.62082 7.88293 2.15615 -0.54302 -0.573718 0.854786
79 1 6.86397 1.74193 6.61854 0.284574 0.369144 0.150001
80 1 0.244154 7.69438 7.8585 -0.204447 -0.709638 0.0495729
81 1 3.14706 7.29422 4.79536 -0.386637 -0.453575 -0.0327086
82 1 4.93355 0.944164 3.79416 -0.91297 0.437275 0.574043
83 1 3.68304 5.32786 4.15459 0.703913 0.927341 0.086586
84 1 0.317549 7.39729 5.82473 1.0044 0.213271 -0.26995
85 1 1.90171 2.4901 8.11567 -0.181765 0.517118 -1.3003
86 1 4.78594 3.66063 0.479513 -1.04435 -0.726972 0.432213
87 1 4.79355 3.88964 3.76082 1.39864 -0.798617 0.71278
88 1 8.82481 1.18842 7.72374 0.546732 0.0125039 -0.066343
89 1 0.630339 4.27768 2.30414 0.117917 -0.0950959 -0.599429
90 1 6.92078 3.84436 2.12347 -0.250175 0.642294 -1.74758
91 1 8.49863 6.38542 4.58308 0.227205 -0.1813 -0.23082
92 1 6.3628 7.3145 7.15182 -0.13968 1.97681 0.306996
93 1 2.31363 9.14734 5.41899 -0.118315 -0.428342 0.168734
94 1 1.85181 8.55218 1.66871 -0.472588 0.506942 0.625734
95 1 1.82927 4.31765 2.37428 0.856399 0.378028 -0.306371
96 1 3.69415 0.107874 8.47644 1.4953 -0.566399 -0.500545
97 1 1.81714 2.67842 2.44334 0.365592 -0.683398 -0.589196
98 1 5.66717 9.39874 3.9856 1.2069 1.06456 -0.26027
99 1 1.94641 0.179644 4.03715 -0.0690375 -0.508264 0.0473965
100 1 5.94498 7.61908 4.30362 -0.749577 0.744029 0.221761
101 1 3.84236 6.27722 3.62711 -0.26189 1.23483 1.22716
102 1 6.32603 8.35409 3.68428 -0.546222 0.285368 -0.332767
103 1 0.0035107 8.54822 0.316327 -1.11042 -0.701046 -0.494754
104 1 3.75875 0.633097 1.31108 0.345792 0.515362 -1.42641
105 1 6.99766 8.99322 6.4254 1.66491 -1.54608 -0.120422
106 1 7.85717 1.26588 6.80696 -0.54161 0.0246926 1.02105
107 1 8.16494 7.21303 2.0668 0.662016 -1.00695 1.05841
108 1 0.231231 1.48761 5.85609 -0.409365 0.358038 1.02358
109 1 6.97419 2.89231 1.23444 1.50531 -0.999871 1.30028
110 1 0.0550017 4.14296 6.26851 0.00656742 -0.110542 0.93841
111 1 5.12972 5.46941 7.90834 -0.314788 -1.42467 0.368099
112 1 7.35587 0.837332 1.35524 -1.54475 0.318698 0.271979
113 1 4.67051 4.5237 8.22898 0.624535 0.165161 -1.336
114 1 3.15398 1.96323 2.13785 1.55005 -0.0274206 0.0608184
115 1 4.83937 0.368992 4.72107 -0.603046 -0.419141 -1.05107
116 1 5.77692 4.3481 7.05051 0.911269 0.612533 -0.488864
117 1 0.1646 6.19443 0.888045 -0.114385 -0.729152 0.644584
118 1 7.71965 2.24469 6.16829 1.03583 1.02962 0.0290514
119 1 7.09561 8.01415 6.70564 1.09772 -0.774262 0.113386
120 1 1.87501 4.98119 0.522336 1.47309 0.629379 1.38723
121 1 6.2418 7.62868 6.03928 -1.71379 0.324269 0.148963
122 1 2.35548 7.44434 0.02928 -0.383846 -0.425824 -1.33026
123 1 2.28519 8.03867 6.00507 1.03446 -0.0371042 1.21062
124 1 5.12807 0.640807 5.80889 1.17501 -0.627772 -0.999097
125 1 7.18138 5.76109 6.22368 -0.549767 0.762834 -0.617201
126 1 0.23864 5.0254 1.16663 -0.108179 0.675427 0.040593
127 1 3.00283 9.3296 3.94369 -0.738794 0.861545 1.23593
128 1 3.68384 6.86348 8.01201 0.0214781 -0.653915 -0.338467
129 1 3.84915 5.03779 0.329702 1.05688 0.695284 -0.203097
130 1 4.48597 8.79723 4.53436 0.341112 -0.413894 1.70085
131 1 8.56594 2.20812 3.48927 0.230353 0.225296 -0.209474
132 1 7.0772 3.25581 4.26823 -0.900222 0.886099 -0.0544598
133 1 5.97385 7.17137 1.36732 0.862504 -0.262738 -0.921933
134 1 1.12405 5.79618 4.70474 -0.151597 1.02953 -0.0397354
135 1 4.03079 0.32141 4.0751 0.450635 -0.145995 0.00722217
136 1 0.775161 2.02617 6.5647 1.06257 -0.343508 0.416925
137 1 2.74247 5.45051 0.298813 -1.3972 -0.826047 0.128749
138 1 7.50767 2.6682 8.63269 1.14126 -0.89661 0.372865
139 1 0.566033 2.98598 5.89966 -0.0197483 0.819585 -0.0456995
140 1 3.95391 3.95961 6.05961 0.21321 -0.48241 -0.742011
141 1 4.31569 8.3864 7.17589 -0.403595 1.24005 0.233941
142 1 1.02503 2.85531 0.983085 0.136442 0.418234 -0.0873119
143 1 2.80951 6.25822 0.917443 0.892285 -0.54452 -0.191577
144 1 2.30343 3.72451 6.62253 0.229967 0.785628 0.706046
145 1 6.62961 4.89576 8.58408 -0.665387 0.421012 -0.554321
146 1 8.19744 1.44041 1.41806 -1.27785 -0.548064 -0.324091
147 1 3.27099 0.963232 5.68643 -1.15523 -0.237573 -0.639858
148 1 7.41239 4.18995 8.4443 0.507786 -1.26641 -0.0964541
149 1 9.17846 7.81428 1.20513 0.182074 0.241941 1.74864
150 1 6.04943 9.32604 2.15562 -1.56508 0.125938 -0.0218676
151 1 0.521664 8.43849 4.14673 -0.0370361 -1.20624 -0.0888416
152 1 5.22854 7.87605 1.15941 0.545164 -1.01026 -1.29183
153 1 1.94271 6.38585 1.55923 0.640686 -0.128888 -0.376778
154 1 5.3431 6.86156 0.54959 -0.515859 -0.837436 -0.273343
155 1 7.64499 7.05481 3.0724 -0.712018 0.291572 0.333474
156 1 3.75269 9.07679 3.27143 0.203024 0.616496 -1.04945
157 1 5.71816 4.59721 6.06153 0.940098 0.0326254 0.242839
158 1 2.63582 6.73517 8.26837 -0.695221 -0.965163 -0.647603
159 1 1.37887 7.47826 5.92906 0.754556 -0.468686 -0.221166
160 1 5.25027 8.74296 7.52865 0.905736 -0.020447 0.809586
161 1 0.149724 3.8332 7.29179 -0.447882 0.16808 -0.647664
162 1 0.631441 1.13695 0.319326 0.803352 -0.8867 -0.511302
163 1 1.36971 3.16021 5.10612 -1.02056 -1.20982 -0.249699
164 1 4.9054 7.99419 2.91724 -0.297186 0.404049 0.129893
165 1 8.03906 1.41696 0.334117 0.358576 -0.816496 -0.49636
166 1 4.78799 6.29219 4.15487 0.301919 -0.795706 0.200577
167 1 5.30506 7.34418 2.17489 0.691283 -0.510741 0.391165
168 1 5.78773 4.62066 8.03076 1.06095 0.841689 1.55959
169 1 1.4222 5.97538 8.13392 -0.0266791 1.00306 0.185539
170 1 0.760424 1.93427 4.09664 -0.743495 -0.577117 0.119553
171 1 8.39727 5.43261 2.40415 -1.04343 1.27625 0.703444
172 1 2.53485 4.24039 0.341884 -1.56101 -0.984601 0.420024
173 1 8.62081 5.80003 0.661014 -0.00676171 -0.4294 -0.584516
174 1 8.85323 3.43007 5.9157 -0.104425 1.01354 -0.64445
175 1 7.35639 6.84727 1.41223 0.125335 1.30006 0.455608
176 1 1.11048 1.22559 6.99919 -0.172948 0.988598 -0.294934
177 1 5.85349 7.96877 7.82024 -0.0784334 1.0883 1.24259
178 1 8.5754 2.43583 4.4883 0.434137 1.15234 0.849169
179 1 6.19802 8.71197 4.67323 -0.171508 -0.548055 0.00183714
180 1 9.34711 9.35352 4.19409 0.158187 0.554972 0.0526274
181 1 6.63814 6.69602 2.98766 -0.534715 0.509564 0.351259
182 1 4.94775 2.53343 5.32526 -0.324241 0.391589 -0.764444
183 1 2.01713 6.34524 7.33551 -1.36022 -0.975202 1.03808
184 1 4.33485 1.01797 8.26036 -0.00292382 0.295842 0.0587281
185 1 3.25354 7.51711 6.36872 0.364034 1.65154 1.88306
186 1 3.10992 5.31207 6.2322 -0.237007 -1.52268 -0.84479
187 1 4.09696 2.81848 8.47772 -0.357045 -0.712077 -0.524339
188 1 3.80894 6.10386 0.516866 0.455015 0.0732617 0.485569
189 1 2.73581 3.69257 3.86605 -0.234015 0.27014 0.778066
190 1 5.96312 4.06707 1.76244 1.47358 -0.380771 -0.14181
191 1 4.0401 5.40075 8.06493 -1.19538 1.18344 0.199093
192 1 8.40458 3.99632 7.55891 -1.81197 -1.16687 -1.00653
193 1 3.12154 5.93241 8.04279 -0.73206 0.910283 -0.0901896
194 1 2.45833 3.17469 -0.0368581 -0.636773 0.193244 -1.17588
195 1 8.32007 9.01266 4.02069 1.03308 -0.494137 -1.13874
196 1 2.43144 1.05715 2.2209 0.361702 -0.843922 0.143837
197 1 0.167408 6.70214 6.47071 1.08509 -0.819059 -0.191273
198 1 3.05001 3.61711 0.962727 -0.32801 0.87312 -0.173099
199 1 0.644694 5.98493 5.67338 -0.143384 -0.723379 -0.802146
200 1 3.53165 8.83449 7.5774 0.692031 0.144095 -0.0569416
201 1 3.21902 9.10523 0.756495 -0.62018 -1.05483 -0.22606
202 1 8.63177 8.43203 2.99871 0.481286 1.07119 -0.0189928
203 1 5.54448 6.16407 7.2485 -2.05826 -1.33528 0.502801
204 1 4.35358 3.27198 6.74084 0.898151 -0.292455 0.0907025
205 1 5.00984 8.68857 6.52321 -0.611417 0.150926 1.10734
206 1 0.932598 2.15178 5.43284 -0.402513 -1.14703 1.27394
207 1 6.7557 3.09651 0.181302 -0.812952 0.440181 0.353058
208 1 8.08401 3.98953 5.46222 0.951784 -0.254747 -0.436167
209 1 6.46949 9.33176 7.36281 0.466954 0.219502 -0.986819
210 1 1.3038 2.92537 9.31799 -0.794944 0.397405 0.498433
211 1 8.4841 1.78719 2.35366 0.142279 0.805786 0.442912
212 1 5.80476 6.70495 3.71348 0.187661 0.133777 -0.364687
213 1 2.27077 2.77943 4.27177 0.29096 0.140346 0.0900138
214 1 8.45699 2.52694 9.29529 0.758807 -0.0675304 -0.63974
215 1 3.85496 6.47805 4.66698 1.5106 -1.05556e-05 0.832633
216 1 5.31911 6.17067 4.99789 0.10975 -0.288256 -0.0904173
217 1 6.39414 0.40718 9.01324 0.501622 -0.22149 0.671727
218 1 4.13717 5.29271 1.33313 0.764942 0.0823707 0.274328
219 1 5.64517 4.31751 0.778708 -0.689689 -0.190179 0.744832
220 1 7.37105 0.950639 8.99788 -0.324856 -1.42309 0.577203
221 1 7.34542 9.12293 4.62704 -0.397787 0.0896007 0.885778
222 1 8.06278 4.35122 2.16963 0.0772274 -0.326017 0.389579
223 1 2.96175 9.17899 9.21858 0.470867 1.33385 -0.895436
224 1 6.81468 7.07323 3.94036 -0.694711 -0.60318 0.650669
225 1 7.53338 4.86947 6.83089 -1.47056 0.778566 -0.687904
226 1 1.60321 6.86462 3.48189 -0.179736 0.140777 0.806341
227 1 4.289 7.11965 3.13911 -0.0411848 0.406254 0.719265
228 1 6.38252 2.8238 8.57887 -0.90226 -0.0202782 1.32165
229 1 2.1497 9.1251 0.810007 1.22778 -0.803673 -0.395716
230 1 5.37642 3.65267 8.21201 -0.0952957 -0.345392 -0.707895
231 1 9.13009 5.3384 8.25322 -1.14898 1.19258 0.832517
232 1 7.68774 5.31052 0.677068 0.203988 0.858923 -0.749116
233 1 7.88288 8.67935 8.41322 -1.17939 -0.964013 -0.521986
234 1 4.03463 7.91142 8.98292 0.0777584 1.15775 0.0115747
235 1 6.9849 6.93743 6.28776 -0.318858 0.00576061 0.0768321
236 1 1.28168 8.03149 7.86246 1.07236 1.07106 0.0634267
237 1 9.12194 1.69549 0.0551128 1.05398 0.0420331 -0.443674
238 1 6.91527 8.0592 9.25425 0.861558 -0.349756 1.18971
239 1 3.89764 7.21033 5.56766 0.549254 0.171866 -0.802738
240 1 4.34106 3.52875 5.10569 -0.0625878 1.09672 1.14086
241 1 2.80913 6.06221 2.16846 0.58274 -0.3786 1.21259
242 1 7.439 2.27069 4.42542 0.584602 0.0159213 -0.570052
243 1 3.5945 7.97112 1.30011 -0.0496034 -0.578397 1.16552
244 1 6.70992 7.53733 8.13955 -0.103592 -0.26822 0.468526
245 1 5.16387 5.21026 2.61986 -0.691368 1.00032 -0.836241
246 1 1.5669 7.12605 0.761671 -0.451154 1.06076 0.287278
247 1 5.39402 4.9141 3.59938 -0.0360598 -0.150838 -0.337046
248 1 4.88892 9.01435 5.49105 0.331729 -0.284029 0.627108
249 1 2.28572 5.98593 6.26485 0.373504 0.0737125 -0.219205
250 1 4.69426 7.17289 4.95229 -1.12412 1.14135 -1.20894
251 1 6.45935 1.9367 7.51446 -0.516109 1.15503 1.14704
252 1 1.66192 2.02404 4.70359 0.406443 1.5747 0.321652
253 1 8.79059 3.45779 4.82067 -1.01882 0.276275 -0.853937
254 1 4.65149 1.12645 1.24981 0.126289 0.18622 -0.0736338
255 1 6.31221 2.06929 0.697491 -0.462267 0.204009 0.485822
256 1 2.81059 3.98855 8.80574 -0.120135 1.37607 0.670235
257 1 5.34436 0.784743 1.8349 1.60726 1.06134 0.111533
258 1 1.51986 1.70425 2.52555 -0.441136 -0.116939 -0.617624
259 1 2.81204 4.96839 8.18916 -0.0970106 0.00284916 0.105152
260 1 2.56009 3.38133 7.58171 -0.466357 -0.469375 -1.50028
261 1 8.47394 5.76601 8.96606 -0.775831 0.614222 0.0123092
262 1 4.12998 1.51906 2.30374 -0.0469874 1.0933 -0.98751
263 1 4.68758 5.1923 4.50107 -0.135956 -0.190624 -1.05211
264 1 7.84865 5.95476 7.03781 -0.481372 1.48657 0.354891
265 1 4.23567 4.26866 4.52114 0.860574 0.0394027 0.00620273
266 1 6.71499 6.05643 3.8379 -0.400831 -0.876668 0.178943
267 1 6.7234 2.73524 2.39147 0.426851 0.355381 -0.388499
268 1 4.14507 0.752403 6.32705 0.820564 0.50718 -0.487861
269 1 3.26841 4.64089 1.01003 -0.687296 -1.56705 -0.961341
270 1 7.78551 8.69333 2.39507 -0.220204 0.510407 -0.555392
271 1 5.94115 6.12539 1.09876 -0.173699 0.420251 -1.6971
272 1 0.18916 8.7598 2.42514 -0.0597699 0.328376 -0.223114
273 1 7.98351 0.521579 2.12585 0.229506 -0.00652464 -0.166167
274 1 6.43477 6.16524 6.72471 0.569829 -0.723351 0.497888
275 1 3.7802 5.4703 2.98339 0.171192 1.59519 0.602298
276 1 8.41507 6.41609 3.51114 -0.980518 -0.220279 0.0738372
277 1 3.93369 1.5031 3.84054 -1.01852 0.0183748 -0.0296385
278 1 1.32932 5.13043 5.70841 -0.585697 -0.194112 1.17574
279 1 2.80855 8.66666 3.05288 0.110857 -0.800111 -0.485827
280 1 4.25033 2.88687 3.4138 0.103957 1.24273 0.977479
281 1 6.35924 7.47244 2.29485 -0.89663 0.403711 0.341187
282 1 8.60758 8.15168 1.97763 0.289806 0.33617 0.224125
283 1 0.646578 7.31078 4.0338 -0.0655554 0.712179 0.636378
284 1 7.64339 6.71944 5.22712 0.124087 -0.746997 -0.532228
285 1 6.98424 7.78386 3.11768 -0.346693 -0.16236 -1.01904
286 1 -0.00540876 1.40566 6.84511 -0.59754 0.988926 -0.237061
287 1 3.70191 9.16286 6.58468 0.913294 -0.200795 -0.681748
288 1 4.73576 9.34567 8.24045 0.133303 -0.289549 0.586734
289 1 6.94188 1.5966 5.54551 0.257747 -0.121135 0.378127
290 1 2.36973 7.32777 7.40235 -0.776884 -0.815326 1.1161
291 1 5.33246 4.45175 9.15694 -0.483778 0.00798491 -0.151587
292 1 9.09802 8.58055 4.92131 -0.167461 -0.19023 -0.103014
293 1 1.65796 2.12797 3.62359 0.0377133 -0.276627 1.34235
294 1 9.05322 5.9537 7.17162 -0.279314 1.45563 -0.352211
295 1 8.34503 5.112 7.48659 -0.757791 -1.38138 0.280751
296 1 7.57988 7.28455 0.280184 0.151761 1.45936 0.682744
297 1 5.77649 3.92558 3.6103 0.598913 0.0232855 0.0437355
298 1 5.6312 7.10534 5.36077 0.379428 0.0127559 -0.162515
299 1 5.7775 5.7603 4.17042 0.517309 -0.502625 -0.0405035
300 1 9.06329 2.55857 1.85563 0.397959 0.27431 0.389114
301 1 3.03999 0.578935 6.58493 0.462516 -1.15804 0.49285
302 1 8.13907 9.0659 6.67251 -0.335971 0.204939 0.948131
303 1 1.35777 0.501668 0.760785 -1.68903 1.15866 0.702239
304 1 8.93716 3.84255 3.81073 0.825012 0.0456102 -1.52852
305 1 2.15471 1.30021 1.21476 0.550382 -0.525447 0.987423
306 1 5.81892 7.58132 3.16371 0.402343 -0.534336 0.101027
307 1 6.0632 8.76797 1.11377 0.162741 0.0566784 0.117458
308 1 0.46063 1.1134 7.76765 -0.26911 -0.238693 0.57565
309 1 0.349934 6.71917 7.4393 -1.49962 0.261435 -1.10011
310 1 5.32502 5.21549 6.92136 0.201781 -0.297096 0.402279
311 1 8.79793 7.60215 0.282927 0.789082 0.0560867 -0.306445
312 1 3.39057 5.21771 1.94423 -0.529291 0.523339 1.77887
313 1 6.34609 0.573545 1.46736 1.25762 -0.700511 -0.455994
314 1 8.15754 4.09478 3.25298 -0.0142134 1.05265 0.977414
315 1 3.83051 6.07126 5.94697 0.380696 0.388974 0.52409
316 1 1.45718 4.17771 4.7666 0.238288 -1.00467 0.555301
317 1 0.658704 2.10037 9.33256 1.73613 0.117447 -0.192068
318 1 0.629416 5.77878 6.75807 -0.549082 -0.343044 -0.20898
319 1 3.1157 1.29751 7.43423 1.91196 0.363558 -0.748414
320 1 5.47403 5.21328 5.21603 -0.596428 -1.19529 0.398818
321 1 9.35507 2.36755 2.84016 0.820851 -0.701611 0.860794
322 1 1.41233 5.91635 3.66284 1.37795 0.179827 0.0319773
323 1 3.64595 6.48688 2.632 0.0651715 -0.333446 -0.134817
324 1 2.19088 4.82606 6.3932 -0.282671 0.226981 -1.79733
325 1 5.05022 4.15323 2.78508 0.438454 0.160602 -0.14911
326 1 6.53601 2.55175 4.99445 -0.43019 -0.594237 -0.343797
327 1 3.98342 0.174428 0.136356 -0.60117 -0.730521 1.34844
328 1 7.29256 4.57427 1.46598 0.832488 -0.814797 0.699872
329 1 8.45637 1.33536 8.72181 -0.214527 1.0798 0.411358
330 1 4.2875 8.40825 8.21334 -0.474664 0.506593 -0.371004
331 1 3.86263 2.6596 4.80846 0.430388 0.978169 0.103867
332 1 3.50098 1.6732 4.76788 0.0388684 0.196282 -0.44722
333 1 9.17164 5.8059 1.84097 0.174101 0.00166137 0.77209
334 1 0.537509 7.64604 6.79245 -0.906511 0.298896 0.0875126
335 1 9.08265 0.929788 2.08661 0.298902 0.147255 1.05417
336 1 9.27012 6.69723 5.25629 -0.247801 -1.10268 -0.875267
337 1 6.87887 4.55599 7.63194 0.131163 1.30341 -0.160677
338 1 1.85328 2.00303 6.89891 1.7436 -0.588337 -0.912921
339 1 2.41537 4.50411 7.37427 -0.829859 -0.943352 0.4741
340 1 2.31938 1.31724 3.24588 -0.0865955 -1.41286 -0.551474
341 1 8.45288 2.24381 8.17996 -0.581273 0.275058 0.514082
342 1 6.80017 5.62066 0.24208 0.00310822 1.11353 0.11202
343 1 4.71802 5.7832 3.29816 0.122688 0.0438263 -0.446668
344 1 0.304296 0.41988 6.3175 0.758536 -1.66699 -0.506081
345 1 7.07377 6.50067 7.51707 -0.580408 0.993153 0.30585
346 1 6.82842 7.65441 0.945663 0.588744 -0.548365 -0.366705
347 1 4.67202 4.45405 5.55801 -0.542641 0.0102775 -0.888867
348 1 7.15524 2.78945 6.94439 -0.508716 1.01792 1.19843
349 1 7.06099 4.08719 0.0725363 -0.811756 -0.378995 -0.629621
350 1 3.29191 3.38733 6.56886 0.193527 0.633779 0.517139
351 1 7.56055 6.2506 2.50013 -0.494274 -0.621591 -0.0126128
352 1 0.643516 8.68031 6.81469 -1.13686 0.337808 0.0112416
353 1 8.04425 1.49179 4.18351 0.554151 0.285856 -0.815302
354 1 8.94116 7.42411 7.08519 -0.380076 0.107285 -1.8302
355 1 0.900869 7.22126 2.70862 -0.361016 -1.03774 0.146543
356 1 4.05681 1.75426 6.19278 -0.699508 -0.225871 -0.328441
357 1 -0.0289812 2.71986 8.77876 -1.64355 -0.726729 0.449868
358 1 3.7245 8.17266 4.96451 -0.187243 -0.232881 -0.18746
359 1 4.38477 7.36436 7.38882 -0.182425 -0.159807 0.644485
360 1 3.01344 2.51994 0.753957 -0.0570185 1.09115 -1.31345
361 1 5.96123 1.9872 5.63791 0.269645 0.6712 -0.618951
362 1 3.31531 0.170326 2.25948 0.0636787 1.42077 0.37366
363 1 7.83854 2.42694 1.73397 0.0412703 -0.212581 -0.0823642
364 1 1.04329 2.062 7.73595 0.549016 0.4563 -0.600836
365 1 0.82428 2.68724 1.95576 -1.24427 -0.434185 0.32098
366 1 5.12531 8.84726 1.59821 0.132486 -0.772713 -0.357837
367 1 2.22763 4.4154 1.40439 -0.140662 0.309456 0.390965
368 1 2.33513 2.57484 5.25901 1.32538 0.960917 -1.46301
369 1 0.921713 6.56582 0.14991 -0.67737 -0.123252 -0.841141
370 1 8.91386 8.18454 8.72158 0.140194 0.350974 1.21351
371 1 2.74254 5.38716 3.83458 -0.233013 0.239672 0.579064
372 1 5.45671 0.511203 7.62264 -0.24293 0.763903 1.04706
373 1 7.19625 5.2604 2.41347 1.12692 -0.176337 -0.641634
374 1 8.88169 8.12179 3.99271 0.307412 -1.08733 0.587711
375 1 5.47186 5.37115 0.532244 -0.152388 0.212907 -0.209704
376 1 3.32551 0.909736 9.03199 -0.220437 0.228278 0.280809
377 1 2.23463 7.06075 6.36756 -0.0516903 0.939055 0.671967
378 1 5.09756 1.97836 1.71636 0.175363 -0.783102 -0.00742884
379 1 6.25992 3.46269 5.66995 0.9604 -0.196962 -0.186892
380 1 8.43156 5.31889 6.36877 -0.240622 0.533896 0.459695
381 1 3.68312 2.092 3.02686 -0.998051 -0.19307 -1.77301
382 1 5.29106 8.1295 4.9144 0.444086 0.207718 0.279612
383 1 9.14523 9.19397 6.96238 -0.598213 -0.608792 -1.36238
384 1 2.66858 0.368827 3.05412 -0.12462 0.616054 0.148262
385 1 4.41372 7.23863 0.929546 0.459533 0.369843 0.683523
386 1 0.410731 3.74872 4.48832 -0.4476 -1.17861 0.870782
387 1 9.15597 0.237233 2.98194 0.482286 0.276874 0.301664
388 1 6.86468 5.93613 8.6867 0.519578 0.138781 0.746832
389 1 5.557 3.38149 4.82493 -0.129351 -0.660792 -0.42501
390 1 1.39254 5.02219 3.02469 0.759518 -0.854816 0.0229819
391 1 6.86956 9.39841 0.760133 1.0439 -0.0228877 0.545815
392 1 4.91103 4.31684 1.75131 1.20242 1.17551 -0.555811
393 1 9.12915 6.41231 9.39664 -0.569142 -0.867076 1.26869
394 1 9.2057 5.72291 2.99846 -0.908614 -0.212887 -1.57862
395 1 1.22516 8.87665 9.43988 0.739695 0.306187 1.01385
396 1 0.913392 2.6244 3.09441 -0.401055 0.470584 -0.298983
397 1 5.56994 3.29448 9.16425 -0.493259 -0.733075 0.309345
398 1 7.68854 2.5972 0.563608 -1.01318 -0.215621 -0.36618
399 1 7.1235 0.776401 2.94198 1.05949 0.917897 0.395202
400 1 2.1923 5.86171 3.04876 1.65713 0.0951399 0.155535
401 1 3.69848 1.9871 9.05402 0.117847 1.00102 0.582975
402 1 1.01661 4.68361 0.0451237 -1.20388 -0.0464278 0.695503
403 1 4.00707 3.99419 2.96517 -0.418227 0.789431 -0.496445
404 1 4.6637 7.21059 8.39651 -0.356926 0.29711 -0.498704
405 1 3.39738 4.1501 7.8473 -0.390787 -0.306289 4.76499e-05
406 1 7.57873 8.5912 0.546948 0.251958 0.67495 -0.73716
407 1 7.33397 0.412173 7.12542 -1.00535 -0.366242 -0.328451
408 1 2.92985 2.90779 8.42652 0.167903 -0.890678 0.543786
409 1 3.26319 3.26495 5.43128 -0.646739 -0.785395 -1.75953
410 1 0.0763676 1.90997 8.24456 0.140785 0.817916 -0.855574
411 1 5.28722 8.36677 3.93033 0.995416 -0.915703 0.238862
412 1 1.4786 8.79657 4.66178 -0.585591 -0.662622 -0.581909
413 1 2.52869 7.93702 1.0628 1.2609 -0.228169 -0.47518
414 1 6.49691 0.836891 8.08287 -0.706104 1.50355 0.835759
415 1 8.25064 0.291941 8.68607 0.653846 -0.174205 0.489712
416 1 1.41082 1.87844 1.49878 -0.18825 0.318342 -0.449565
417 1 5.23468 3.03122 3.29273 0.0336019 -0.913431 -0.385763
418 1 3.22997 2.16691 5.68586 -0.826147 -0.999482 0.348327
419 1 5.62361 1.33727 0.957245 0.977656 0.152893 -0.473125
420 1 2.25416 4.70136 5.30173 0.572226 -0.584272 -0.390096
421 1 5.52329 5.86021 6.03085 0.924212 -0.0802901 0.0356462
422 1 7.88868 3.3383 6.32233 -0.884058 -0.431725 0.859175
423 1 6.97235 1.53034 3.76906 -0.485262 -0.151673 0.470744
424 1 3.14728 7.65834 3.12414 -0.386731 1.06954 -0.921738
425 1 2.70916 2.32318 7.46769 1.29471 -0.0616154 0.0509647
426 1 3.57792 2.42569 6.76614 -1.00039 0.109599 0.361852
427 1 6.73988 4.24975 6.00922 -1.2575 1.70566 0.711868
428 1 3.96423 6.67206 6.76739 1.01217 0.532203 0.535635
429 1 6.61663 8.54338 2.57411 1.0848 -0.268483 0.174398
430 1 7.55876 4.83963 5.75203 -0.629525 -0.808673 1.1619
431 1 8.0121 1.73117 5.17132 -0.863557 -0.619038 0.576714
432 1 4.0445 9.05273 1.51663 0.536322 0.0681838 -1.36505
433 1 0.77614 8.14487 5.18411 0.703526 -0.131238 -0.930751
434 1 8.30612 6.9479 9.02937 -0.565271 -0.111327 -0.305642
435 1 0.0844361 5.43912 9.35856 0.966493 0.934665 -0.596593
436 1 0.518638 6.42914 3.33774 0.805462 -0.334625 1.08189
437 1 7.7357 5.63727 3.2995 -0.909726 0.903644 1.11395
438 1 2.10215 7.73963 3.02452 -0.000120858 0.218558 -0.0579227
439 1 3.22662 8.19382 4.10128 0.356487 -0.34589 0.950068
440 1 6.09121 4.45155 2.78413 0.592479 -0.0604433 -0.52194
441 1 6.53995 1.56664 1.70716 -0.451507 -0.0222347 1.3108
442 1 6.09131 3.07902 4.04619 -0.377971 0.251662 -0.630599
443 1 1.9043 5.38899 2.16689 0.259718 -0.0727335 -0.112274
444 1 8.60288 5.45039 3.96362 0.449157 0.233873 0.811348
445 1 6.08745 1.83837 8.53067 0.906446 0.0780477 -0.627252
446 1 8.61402 0.655802 6.75314 -1.07323 1.1925 0.00334808
447 1 1.20811 4.72407 1.48887 -0.228607 -0.225828 -0.204092
448 1 2.11913 8.4753 9.2529 1.23148 0.245106 -0.735799
449 1 4.65492 5.92277 6.64144 1.05531 0.45195 0.458258
450 1 4.79854 6.61978 5.87509 0.514387 0.323127 0.0821573
451 1 4.55051 6.29236 7.61223 0.666185 0.531413 -0.375921
452 1 5.78441 7.35056 8.83682 0.0276104 -0.461062 -1.12009
453 1 1.16461 1.0987 5.87316 0.796921 -0.560134 0.911054
454 1 2.77632 0.608287 8.24043 0.0719568 0.446839 -1.19091
455 1 9.10788 4.32516 5.28457 0.515724 0.473516 0.272847
456 1 7.84464 2.93703 3.68622 -0.294487 -0.365586 -0.732601
457 1 6.87188 8.58692 8.22087 -0.859282 -1.17511 -0.399574
458 1 2.15729 5.63596 4.60049 0.418778 -1.09315 0.557485
459 1 8.34554 3.29045 8.46325 -0.0942519 -0.3985 0.588999
460 1 6.71704 2.58018 6.01099 -0.599312 0.0935413 -0.144898
461 1 7.94008 3.41216 9.43582 -1.13377 -1.39443 1.22902
462 1 3.10754 8.2155 0.182147 -1.05516 -1.13243 -1.00039
463 1 3.93953 1.24882 0.376849 0.735445 -1.4828 0.373102
464 1 7.83282 3.06333 7.61799 -1.09989 -1.57393 -1.10402
465 1 1.30784 7.12393 7.32125 1.60544 1.03254 -0.248539
466 1 2.6635 1.62238 0.267459 0.213375 -0.511325 -1.60453
467 1 4.37431 0.473295 2.10333 0.680695 -1.16747 -1.02958
468 1 8.9864 7.08328 3.98996 -0.463833 -0.0940687 0.290112
469 1 6.10529 0.936999 5.92418 -0.194559 0.779212 -0.414122
470 1 8.5536 2.08614 7.14781 0.841658 -0.00760616 0.837237
471 1 3.96144 0.0135962 5.56534 1.00627 -0.58813 0.378183
472 1 7.73936 2.3006 2.74999 -0.00101407 0.576896 0.0848896
473 1 5.40628 2.61064 8.30656 0.240755 -0.348681 -1.34589
474 1 8.86963 0.628446 0.164466 0.725428 -1.42353 0.225078
475 1 1.78064 3.45729 8.5823 -0.546963 0.964707 -0.0788911
476 1 1.27733 0.430248 8.94023 0.693787 0.479025 0.321524
477 1 2.35767 2.2842 1.57278 -0.431969 0.910759 1.11681
478 1 4.56285 8.81451 9.12606 -0.168916 0.413361 0.132847
479 1 1.26421 3.48263 2.70344 -0.169701 -0.913195 0.63666
480 1 5.51116 2.26524 0.134264 0.503213 0.586898 -0.149395
481 1 4.24746 4.79505 2.31113 -0.355814 1.31503 -0.821356
482 1 1.04746 3.7323 6.68841 0.651983 -0.13524 0.320207
483 1 2.38955 7.45709 3.9755 -0.640445 -0.972463 0.122288
484 1 4.28678 1.09229 5.32047 0.0390538 -0.38083 0.334887
485 1 6.2 6.60181 8.0476 0.611431 0.421225 -0.813846
486 1 8.02799 0.0986925 3.09183 -0.5635 -0.985591 0.573164
487 1 8.86485 4.76628 3.12771 0.497041 0.281701 0.586275
488 1 7.98445 6.53799 6.20509 0.102306 1.08211 -1.32952
489 1 1.6376 1.37206 0.26386 -0.783039 -0.479084 0.615598
490 1 2.13443 8.45145 3.91718 0.700633 -0.197693 0.735028
491 1 7.24698 8.76595 3.42028 0.685605 0.921945 -0.666269
492 1 8.35311 8.4416 5.67234 -0.315853 0.29567 0.213317
493 1 5.33354 0.817559 8.61127 -0.0461913 0.0144659 0.508562
494 1 6.31845 1.53212 4.70102 0.618684 0.36397 -1.63744
495 1 6.04463 3.4662 2.64925 -0.882622 1.19478 -0.137719
496 1 3.56469 3.14608 7.53531 0.57958 -0.137137 -2.15021
497 1 2.73337 0.430422 1.40232 -0.0636945 0.243837 0.514743
498 1 7.30061 9.15975 9.11712 0.554111 0.410179 0.361215
499 1 4.32151 0.618454 3.09453 0.878756 1.2599 0.733485
500 1 6.1597 5.43813 2.22323 -1.7288 0.556068 -0.124247
501 1 4.18263 8.4282 5.90793 0.113614 -0.203661 -0.0535724
502 1 8.60667 3.4948 1.92086 -0.395354 -0.453165 -0.203854
503 1 6.20999 6.58261 4.62969 -0.412973 0.37295 -0.327707
504 1 6.02184 2.39809 1.62754 -0.602532 -0.452177 0.0037348
505 1 8.14666 6.0692 1.5415 -0.161197 -0.242397 -0.661403
506 1 1.39272 8.67079 5.98125 -0.710175 0.953251 0.554176
507 1 7.27965 0.203939 8.15319 -0.559031 1.77664 0.660915
508 1 5.71311 8.23147 2.19884 0.123799 1.21578 -1.03876
509 1 9.21886 0.297651 7.99295 0.710775 0.210596 0.966851
510 1 8.52041 0.479803 4.74955 -1.28393 -0.111799 0.481681
511 1 7.00797 5.90363 5.15937 -0.123655 -1.19569 -1.42395
512 1 0.484759 5.52073 3.97203 0.762299 -0.460347 -0.149499
513 1 1.87576 6.60919 4.46567 0.972147 -0.350183 -0.655851
514 1 7.81899 7.13735 4.23503 0.875479 1.34701 -0.0748431
515 1 7.64017 5.86356 4.32556 0.0508607 0.61044 -1.42964