ITEM: TIMESTEP
9930000
ITEM: NUMBER OF ATOMS
1000
ITEM: BOX BOUNDS pp pp pp
0.0000000000000000e+00 9.4000000000000004e+00
0.0000000000000000e+00 9.4000000000000004e+00
0.0000000000000000e+00 9.4000000000000004e+00
ITEM: ATOMS id type x y z vx vy vz
1 1 0.584091 2.93883 6.19198 0.255514 0.764767 0.25834
2 1 7.61049 2.3864 8.20926 1.09919 0.0297322 -1.17959
3 1 2.84047 4.75827 2.67558 -1.08823 0.526476 -0.362842
4 1 6.7613 7.48365 1.2786 0.390882 -0.997395 -0.92478
5 1 2.11563 0.235851 4.35617 0.93652 0.997033 0.200691
6 1 6.78651 0.776794 7.15471 0.803157 0.357241 0.0972937
7 1 9.17942 9.04652 0.840743 -0.159472 -0.324699 0.832822
8 1 4.41054 3.13738 5.97059 -0.00891141 -0.69609 0.414707
9 1 2.9764 4.61792 4.65908 0.191956 0.538287 -0.406054
10 1 8.59719 6.25747 8.38917 0.0301765 0.614224 0.61521
11 1 8.57393 0.559781 8.41086 -0.337501 -0.897357 0.442418
12 1 7.13477 1.31474 2.32179 0.374551 -0.756894 -0.572673
13 1 9.22134 3.41604 3.56226 -0.516981 0.721062 1.73722
14 1 3.18689 6.58658 0.305397 -0.24932 -0.289535 0.239564
15 1 0.315691 2.29328 9.29873 0.842926 -1.04029 -0.503007
16 1 3.27565 0.0634653 6.17754 0.220276 -0.419228 -0.624446
17 1 9.22211 2.71335 7.04987 0.148466 -0.51018 0.290115
18 1 0.0631747 6.59783 8.92869 0.464857 -0.424172 -0.801061
19 1 2.61583 2.10431 8.7776 0.441618 0.0589629 0.178239
20 1 6.84535 4.47347 7.75438 0.35477 -0.00452375 0.516513
21 1 1.69821 2.68809 3.36316 -0.970899 0.488188 0.398986
22 1 3.58992 3.13638 6.76603 0.617581 -0.546851 -0.318268
23 1 6.13923 2.76953 8.38298 -0.00637633 -0.503266 0.275747
24 1 3.98911 7.267 7.8615 -0.575429 -0.46041 0.43873
25 1 6.52692 1.70584 6.71323 0.44454 -0.630964 -0.481555
26 1 9.29198 5.57047 3.07299 0.641608 0.201685 -0.270973
27 1 7.45306 8.40621 9.39301 0.308474 0.459784 -0.570365
28 1 3.80883 4.68071 5.34024 -0.630748 -0.459588 0.574448
29 1 0.987096 1.41578 7.52558 0.126487 -0.447448 0.595382
30 1 9.32654 1.30205 2.44814 -0.403296 -2.57484 -0.557197
31 1 2.69179 5.87359 1.69372 -0.0607839 1.13878 0.106458
32 1 4.83765 1.81057 4.68164 1.07793 -0.963517 0.142614
33 1 1.98047 2.56721 0.134828 0.0634542 -0.186445 0.299722
34 1 6.04707 8.24927 2.87222 -0.467288 0.138774 -0.493901
35 1 8.1842 9.38591 2.59817 -0.237851 1.11504 0.470112
36 1 0.0968273 8.00089 0.75 0.527886 0.0560733 0.845718
37 1 7.61887 2.99688 2.24366 -1.69326 0.520179 -1.12728
38 1 0.347565 9.38671 3.89652 -0.151432 0.0411695 -0.741538
39 1 2.8631 8.12757 4.15456 1.87251 0.777232 -1.01017
40 1 1.6872 1.60481 9.12128 -0.272407 1.00863 -1.0787
41 1 6.52344 8.2981 8.82431 -0.24742 -0.220207 -0.505707
42 1 2.2132 8.24895 7.56529 -1.40385 0.0592372 -0.58637
43 1 2.61236 2.55979 2.17719 -0.145061 -0.229118 0.358955
44 1 4.25977 3.71448 5.06709 -0.946206 -0.416499 -0.936419
45 1 5.58104 0.366315 7.66295 -0.790014 -0.531579 0.153171
46 1 1.4866 5.87778 3.023 -0.527656 -0.0165624 0.744884
47 1 3.80656 8.0803 8.64903 0.559019 1.58857 0.644826
48 1 5.16839 4.71401 4.1782 0.0981936 -0.207033 -0.0607205
49 1 3.66724 4.00733 6.19486 1.12279 0.682912 0.325719
50 1 1.01629 1.60218 2.78396 0.878355 -0.0916111 -0.550749
51 1 3.25701 6.04814 3.75191 1.36762 -0.60574 -0.69026
52 1 5.44203 2.12561 0.641182 0.460523 -0.0803997 0.0449847
53 1 5.90586 3.02144 4.77659 -0.720835 0.10267 0.608723
54 1 7.58642 5.96697 8.53271 -1.19205 0.286793 0.380025
55 1 3.21185 3.66077 5.30915 -0.511481 -1.04501 -0.249438
56 1 1.1935 3.07547 5.30456 2.58718 -0.359248 -1.35632
57 1 0.97753 0.513495 6.74002 -1.11884 -0.767694 0.942013
58 1 6.50227 9.12908 0.083471 0.430243 -0.557224 -0.0676969
59 1 8.64778 9.2303 3.83287 -1.11002 0.208572 -0.821485
60 1 1.52505 5.43045 9.30705 0.698991 0.524609 0.103338
61 1 5.44563 4.67755 2.0724 0.00247089 0.886477 -0.178493
62 1 0.974533 0.924495 1.12072 -0.626725 0.530564 -0.861434
63 1 5.12615 5.21518 8.65394 -0.217846 0.398502 0.15438
64 1 4.90419 6.74228 8.15301 0.865475 -0.0866812 0.461102
65 1 3.55981 2.52045 8.63695 -0.0450802 -0.959558 0.0221301
66 1 5.40264 4.17838 7.49146 1.30234 0.513085 -1.06587
67 1 4.08142 7.90079 2.64421 -0.816038 0.790397 0.498288
68 1 3.82095 6.84926 8.79537 -1.00468 -0.0247493 -0.514306
69 1 3.54746 4.59727 9.38653 0.370716 0.297178 -0.0710042
70 1 1.61744 5.3013 4.00123 0.8581 0.0522049 0.597583
71 1 7.83375 5.26778 9.24352 0.0759849 -0.536952 0.0502898
72 1 5.59979 6.98993 8.81932 -1.45232 0.982586 0.462963
73 1 2.1071 8.33909 0.337435 0.360359 0.180728 -0.663937
74 1 6.41445 8.58813 7.79256 -0.0857563 -0.771767 0.349997
75 1 1.88844 2.16397 4.9137 1.42181 -0.688835 -0.690657
76 1 5.77667 1.6624 1.51028 -0.198018 1.51883 -0.567748
77 1 3.37102 2.62735 5.82226 0.600892 0.437176 -0.384374
78 1 1.63796 7.27384 1.9241 0.0107023 -0.170875 0.254489
79 1 5.01094 9.0732 3.01681 -0.0882605 -0.860865 -0.989871
80 1 7.31423 6.36661 5.46401 0.660488 0.394522 0.667956
81 1 3.17943 0.757049 4.34552 -0.254592 0.153771 -0.806317
82 1 5.41909 0.726357 3.0842 0.213369 0.204768 0.0205467
83 1 3.11031 8.52305 5.2986 0.1203 1.12472 -0.296645
84 1 0.984002 7.26999 8.58909 0.503116 -0.0929704 -0.13629
85 1 2.47291 4.80445 1.56764 0.957389 0.675572 -0.467436
86 1 5.71736 5.47464 0.206197 0.16513 -0.0804355 0.449727
87 1 6.80178 3.61512 4.72696 -0.454209 0.0128433 0.496915
88 1 1.00799 7.52198 7.6405 -0.129399 0.115047 -0.00632429
89 1 0.022656 4.76866 2.31802 1.21124 0.227574 -0.0156248
90 1 6.20622 7.98042 4.01388 -1.01862 0.7969 0.548014
91 1 9.26102 5.46141 7.43161 -0.860787 -0.788908 0.152845
92 1 0.0897695 7.18086 7.08755 -0.735129 0.638165 -0.851701
93 1 1.83294 7.57128 0.946724 0.125421 1.741 -0.497566
94 1 8.0203 7.51793 0.358551 -1.35447 -0.197696 0.925986
95 1 4.74105 5.89631 2.96815 -0.0990967 1.20048 0.137834
96 1 4.28419 8.55513 7.80112 0.205991 -0.508794 -0.79583
97 1 4.44699 4.835 1.68103 -0.182037 -1.26499 -0.599803
98 1 7.8813 7.80763 2.05783 -1.38072 -0.817111 -0.555275
99 1 1.3882 2.11667 5.97841 -0.168755 0.592835 -1.5094
100 1 5.13581 1.43509 5.76716 -0.107656 -0.596709 -0.51977
101 1 3.2072 7.64581 2.06801 -0.434166 -0.568994 -0.199554
102 1 7.9982 8.98717 8.78006 0.212257 -0.506302 -1.19046
103 1 2.10888 1.56913 3.08299 0.0432447 -0.310056 -1.73147
104 1 1.48172 9.3076 8.17149 0.0807861 0.119526 -1.27935
105 1 7.09344 9.22856 7.1916 -0.551023 0.383723 -0.847051
106 1 5.52283 3.41663 5.71604 0.895504 1.77961 -0.536888
107 1 9.37466 8.50906 1.69689 0.735593 -0.274204 -0.0668318
108 1 8.00015 9.18004 6.53595 0.658796 -0.501771 0.679196
109 1 5.86716 4.04029 2.88222 -0.184042 0.376474 -0.538884
110 1 0.348289 6.32856 6.62134 0.318939 0.0159488 0.406871
111 1 1.13826 8.50798 7.42867 -0.0252119 -0.737511 -0.357405
112 1 4.21349 3.11971 3.34149 -0.313343 0.205057 0.263158
113 1 1.31982 5.64366 8.31338 -1.01322 0.404084 -1.04302
114 1 3.37584 7.15561 3.73842 0.959897 1.01469 -0.142233
115 1 4.42927 0.855337 5.32959 0.235636 0.857304 -1.12734
116 1 4.37259 6.31464 7.39564 -0.872035 0.217688 0.145008
117 1 6.70617 5.88954 7.92038 -0.126879 1.0969 0.273834
118 1 7.40718 2.22577 0.314613 -1.7924 0.255104 -0.766142
119 1 0.253096 5.67969 1.82912 1.09148 0.987477 -0.246004
120 1 5.55989 8.58457 4.88265 -0.821932 0.0535486 0.0990663
121 1 5.61726 7.90395 6.40435 0.271857 -0.777137 0.82992
122 1 8.84065 1.47247 0.332598 -2.03421 -0.824429 0.509556
123 1 1.79468 3.68841 3.09381 -0.107928 -1.22982 0.035092
124 1 0.770088 7.26581 1.34197 1.08163 0.859887 0.466418
125 1 8.10014 3.68436 3.9805 0.106652 -0.335696 0.366269
126 1 1.12359 3.79948 6.2357 0.967256 -0.412198 0.483638
127 1 1.92266 7.88935 4.92432 2.00201 -0.738419 0.666752
128 1 4.10002 0.960194 8.51278 -0.0254962 0.673572 -0.132867
129 1 3.50738 6.28605 1.22742 0.405487 0.0396712 0.620288
130 1 2.70239 3.49045 7.34879 1.89934 1.18147 0.398549
131 1 8.94603 0.728445 3.28294 0.22452 0.140169 1.17843
132 1 5.91571 5.34461 4.53224 0.417611 0.930792 2.85593
133 1 8.36519 6.55648 0.11922 0.226208 -0.203908 -0.487739
134 1 5.42985 1.9873 6.79304 0.083779 -1.86788 -0.980038
135 1 5.96136 1.3793 7.52679 -0.0530316 -0.0432302 0.539544
136 1 1.26695 0.545435 0.111752 0.136748 -0.0938679 -0.133558
137 1 2.67983 5.42456 7.47026 0.381757 0.39739 -0.8657
138 1 5.29298 2.5531 9.05217 0.112681 0.291899 -0.196974
139 1 9.38076 8.48295 5.13049 0.00334394 0.320711 -0.454921
140 1 1.59929 3.89255 4.46088 -1.22971 1.18086 0.124033
141 1 2.57153 7.15053 7.82116 0.228923 0.852848 -0.337871
142 1 3.57814 2.20677 7.20135 -0.198976 0.280878 0.154165
143 1 3.42252 6.8279 7.02311 0.83355 0.103148 -1.1987
144 1 9.15292 6.09636 5.67627 -0.526122 0.359227 -0.592094
145 1 4.74109 4.89482 7.79545 1.70079 0.669933 0.175942
146 1 6.28597 9.07397 1.78982 0.768199 0.674621 0.489317
147 1 0.785836 7.88705 6.61666 -0.77848 0.0441272 -0.600849
148 1 6.18736 2.55793 7.33416 0.331367 -0.527546 0.273985
149 1 0.432861 8.32588 2.7344 0.376767 -0.159924 0.656298
150 1 5.08144 8.60276 5.79812 -0.380006 0.912443 0.00373366
151 1 9.38232 8.2164 6.16766 -0.644401 -1.12732 0.799356
152 1 5.02102 0.155953 1.04347 -0.145679 0.312931 -0.0265272
153 1 0.610715 5.84989 0.0637546 1.25893 0.577449 0.438382
154 1 6.6574 6.59916 8.77834 -0.260496 -0.586252 -0.186556
155 1 6.49697 8.42079 6.76762 -0.768178 0.161336 0.188485
156 1 3.69263 2.37772 1.06418 0.464944 -0.244849 -0.154539
157 1 7.04496 0.0291972 6.19913 0.259114 -0.244421 0.122783
158 1 4.01561 9.39253 6.907 -0.27017 -0.176065 -0.617418
159 1 6.95484 7.30332 4.8865 0.358523 1.00422 0.53498
160 1 7.99612 1.67732 9.01755 -0.189748 0.975585 -0.202163
161 1 8.67732 3.79182 0.932403 -1.36149 1.30315 -0.207325
162 1 9.25065 3.22481 8.9769 0.683004 0.362317 0.694309
163 1 8.76646 2.43301 8.34593 0.07521 -0.0827103 0.872748
164 1 4.39584 7.8072 5.98081 0.992388 0.4507 0.337497
165 1 0.165893 0.54278 0.369898 0.975526 -1.23043 1.25927
166 1 8.14423 5.92039 5.86147 -0.441889 0.126935 -0.410835
167 1 5.8133 8.75947 0.859379 0.161685 -0.339904 0.687606
168 1 6.01356 3.81407 0.962153 0.768934 -0.411468 0.358784
169 1 3.95709 5.95655 5.44224 0.951876 0.198321 1.19432
170 1 1.59908 8.09278 8.33104 0.565695 -1.13827 -0.627069
171 1 9.02635 4.13881 4.20802 -0.209524 1.32787 1.22437
172 1 5.20582 1.12529 0.745338 0.790519 -1.12014 0.0745166
173 1 6.57681 6.76849 3.05615 0.236209 0.576845 -0.00239423
174 1 2.74774 3.59235 3.48395 0.195791 0.0157713 -0.0359924
175 1 4.50467 9.38231 0.180482 0.822149 -0.832621 0.485919
176 1 0.556232 8.94496 6.61504 -0.292306 -1.00964 0.441266
177 1 2.95394 9.15365 3.87052 -0.990351 -0.73206 -0.367747
178 1 7.08897 7.56204 6.51748 -0.732605 0.27223 -0.952329
179 1 5.07382 6.98182 0.420872 0.59957 -0.423078 1.22485
180 1 2.77765 0.339694 7.18412 0.811555 1.3172 0.296728
181 1 8.71398 5.29108 1.54276 1.65178 0.933548 0.267002
182 1 6.06977 2.93192 2.47857 -0.479874 -1.25698 0.862301
183 1 3.49283 8.18773 0.325791 -0.985324 -0.712638 -0.431166
184 1 2.76325 3.19779 8.5281 -0.704932 0.775287 0.11266
185 1 0.201094 3.67733 5.52194 0.00488442 -0.810275 -0.288272
186 1 7.77085 7.36217 5.69774 -0.246378 -0.242316 0.911767
187 1 5.07702 2.30036 2.21672 -0.439706 -0.503389 0.0556634
188 1 9.3253 6.3111 3.78795 0.485793 -0.770298 0.482208
189 1 2.4217 2.7409 4.17815 -0.0902725 -0.0980105 0.288264
190 1 9.30361 4.83239 5.06485 -0.264251 -0.14645 0.560018
191 1 4.56286 3.76736 7.9727 0.178874 -0.167077 0.90591
192 1 8.48117 4.80925 7.15455 -0.219195 0.481814 -1.12674
193 1 4.19317 8.50535 5.2523 0.240325 1.51711 -1.01189
194 1 3.70294 0.841358 7.58436 -0.330341 -1.3186 -0.817718
195 1 7.7994 9.33348 0.421982 -0.0280082 0.0754963 1.73642
196 1 4.55834 8.26161 4.1829 0.318065 -0.724598 0.0581187
197 1 1.99849 6.37169 3.74058 -1.42051 0.109703 0.656383
198 1 2.69297 3.48889 6.2612 -0.239896 -0.262266 -0.560507
199 1 2.19421 7.55594 3.78079 0.910591 -0.020927 -0.413338
200 1 3.69388 8.73169 4.40376 0.257026 -0.624073 -0.330299
201 1 7.09858 7.41056 9.09014 -0.419283 0.698153 -0.438845
202 1 0.987265 1.82503 5.04543 -0.326327 0.165363 -0.347326
203 1 1.49812 6.56406 6.48851 0.692313 0.349771 -0.712307
204 1 5.6109 4.28003 6.46835 1.19246 0.559125 0.0444389
205 1 0.525995 6.52009 7.86275 -0.536936 -0.540027 -0.810314
206 1 4.04025 1.16982 2.60647 -0.425538 0.345448 -1.2517
207 1 6.62134 0.794506 8.18502 -0.725583 0.13585 -0.921679
208 1 7.53149 4.08778 5.91072 -1.81141 0.7398 -0.109358
209 1 6.1018 0.403094 0.917967 0.624468 -0.546768 -0.248615
210 1 0.653402 4.87473 7.87277 0.29557 -0.200187 0.667139
211 1 3.34395 3.307 2.56683 0.904447 0.628463 -0.562494
212 1 5.86773 7.30075 2.58972 0.156226 -0.264808 -1.13218
213 1 3.45581 9.16622 7.73533 -0.025359 -0.841512 1.62808
214 1 8.56851 4.8186 0.521781 0.00948838 -0.975143 -1.15763
215 1 1.27809 7.44466 5.78846 2.01869 -0.281219 0.201471
216 1 3.61721 3.12181 7.75792 0.866418 0.458217 0.036702
217 1 7.56237 2.45826 1.28627 -0.443125 1.18312 0.595576
218 1 4.68038 2.79961 1.26023 1.08319 1.37648 0.79659
219 1 4.70485 5.11965 0.274661 0.344599 0.296602 -0.942995
220 1 7.95396 3.12368 0.335307 -0.895435 -1.26952 0.184816
221 1 0.612909 0.00379225 7.57113 -0.680215 -1.30625 0.106027
222 1 5.3104 3.63066 1.90382 0.376361 -0.0519284 -0.351503
223 1 1.11575 8.16648 1.92403 0.117951 1.01173 -0.850074
224 1 5.67858 6.24507 0.927132 1.21307 -0.0256232 -0.526343
225 1 2.03666 4.78888 4.9775 -0.520769 0.553882 0.612637
226 1 8.97444 5.74672 9.2273 -0.43034 -0.911127 1.09563
227 1 3.84196 0.300726 0.921565 1.10366 1.34499 -0.138851
228 1 7.3768 4.04126 8.71994 -0.529991 -0.635421 0.539475
229 1 2.60381 0.590907 3.30322 0.945671 0.741674 -0.0162966
230 1 2.03583 0.0185119 0.603278 0.147221 0.0690959 -0.282873
231 1 1.15866 4.63865 6.85713 -0.836117 1.35171 0.164669
232 1 4.26768 5.85268 8.41326 0.379297 -0.923588 -0.591487
233 1 8.70048 6.98889 6.17612 -1.78745 0.642876 -0.0503526
234 1 1.00264 2.84248 0.413247 -0.562106 -1.65181 -0.213931
235 1 7.66811 4.33626 4.8754 0.723757 -0.606231 0.981774
236 1 2.74052 7.50357 0.341857 -1.29025 1.11346 -0.180643
237 1 7.67635 1.51247 6.86443 1.21302 -0.890641 1.12837
238 1 5.6903 7.92974 8.23967 0.505747 0.0144922 0.221566
239 1 2.44154 6.34245 7.15172 0.127086 -0.317354 1.52814
240 1 5.42946 0.231653 5.89746 1.37695 0.00767228 -0.248496
241 1 5.77728 5.59406 2.8269 -0.0188976 0.418091 0.523146
242 1 5.88109 3.3576 6.69158 -0.506641 -0.751295 -0.674518
243 1 4.19406 8.74008 0.94051 -0.868008 -0.257934 0.652992
244 1 6.76032 3.13637 1.59477 0.522079 0.205065 0.533481
245 1 7.82473 2.54389 3.2679 -0.0607365 -0.449015 -0.0267909
246 1 1.07462 5.23885 0.929504 -0.596444 1.10504 1.59198
247 1 8.46535 1.60686 1.28031 -0.995339 -0.404332 -0.384387
248 1 7.70874 6.64278 6.58641 1.27119 -0.332197 0.594985
249 1 9.13518 4.35553 7.91765 0.446817 -2.76218 0.727709
250 1 2.91441 8.74595 2.87048 0.0219797 0.0157565 0.246973
251 1 0.653946 0.7329 3.14682 -0.0610118 -0.568916 -1.56337
252 1 5.05143 4.87928 3.0711 -1.0476 -0.0573498 -0.010424
253 1 1.25448 5.41871 4.9375 -0.0225905 1.76876 0.620297
254 1 7.96009 0.482877 4.58241 -0.26643 -0.0506867 2.01967
255 1 6.3505 6.8812 0.329648 -0.507832 0.598293 0.636251
256 1 0.120481 4.49364 6.95188 -0.72567 -1.06469 -0.332607
257 1 2.71194 8.02112 8.60635 -0.554799 0.549816 -0.352178
258 1 4.70626 1.04721 3.86933 -0.0699785 -0.488231 0.789322
259 1 4.39235 4.79277 6.82436 0.448809 0.864082 -1.33129
260 1 4.53561 0.220701 7.78286 0.219878 -0.102454 -1.07081
261 1 7.23656 5.2721 0.714395 0.574021 -0.383365 -0.314203
262 1 4.15355 1.99586 1.94329 0.421277 0.813488 0.242818
263 1 7.4193 2.95169 5.8982 -0.254462 -1.37646 0.57538
264 1 6.62846 5.66448 5.2077 -0.54192 -0.0849672 -0.27671
265 1 6.08677 4.13982 4.37425 0.307458 -0.615512 -0.307825
266 1 7.58077 5.43535 4.98415 -0.336816 0.071061 0.191021
267 1 2.50265 0.846756 2.23191 0.625197 -0.409299 0.424131
268 1 5.31712 2.19609 7.9711 -0.101246 1.30132 -0.73392
269 1 2.17169 4.08029 7.91254 0.160378 0.137434 -0.550462
270 1 8.16926 9.17274 7.61374 0.367558 0.942356 -0.779961
271 1 1.01631 1.83926 0.665386 0.0355367 0.333281 -0.573763
272 1 6.43943 2.60616 6.33739 -0.11447 0.374569 -0.0248696
273 1 7.99479 4.85396 4.05492 0.669828 -0.535317 0.67131
274 1 5.93142 6.70258 7.85792 -0.0580735 0.0639305 1.29957
275 1 3.43428 6.39717 7.96666 0.437551 0.809481 -0.314303
276 1 9.18042 7.58783 2.1735 -0.491089 -0.42099 0.0850998
277 1 6.90446 4.11673 3.7338 -0.0325283 -0.0807509 0.222899
278 1 2.62718 2.53298 6.7089 0.536339 -0.661134 -0.274388
279 1 0.940161 9.29557 0.86458 -2.24932 0.201816 0.351255
280 1 5.53596 4.30199 9.40256 0.844547 1.43724 0.924801
281 1 5.89611 7.43361 4.83579 -0.234405 -0.17719 -0.691649
282 1 4.4646 9.26805 3.93148 1.15292 0.38119 0.0799868
283 1 8.2572 7.75973 3.42786 1.42959 -0.10342 1.54047
284 1 5.55354 8.5092 7.21904 1.09273 0.584433 0.363722
285 1 4.71348 3.99867 3.62981 -1.18199 -0.987347 -1.38307
286 1 9.01888 9.31024 7.03754 -0.817266 -0.926326 -0.0784684
287 1 3.42503 7.27632 6.10283 -1.02671 -0.516374 0.426283
288 1 1.7608 2.28497 1.35111 0.635529 -0.896068 0.651358
289 1 6.74059 2.41883 3.10073 -0.816526 -0.849035 0.737134
290 1 0.965505 8.37923 5.57072 1.80451 0.00840925 -0.848304
291 1 2.69795 8.74502 6.77047 -0.333464 -0.734473 -0.0607729
292 1 1.0728 4.25619 5.26215 0.137066 0.375917 0.26367
293 1 3.95651 8.99323 2.99914 0.104507 0.0666304 0.0845327
294 1 2.5096 5.89074 9.28781 -0.90965 0.362129 -2.42697
295 1 4.77498 3.64661 6.79002 0.500303 1.09475 1.43373
296 1 5.19454 5.80008 7.81133 0.744758 0.00270107 1.13312
297 1 0.452096 4.00976 8.67375 -0.138672 0.00519324 0.818532
298 1 2.42874 7.03498 6.22838 -1.78976 1.32628 0.487869
299 1 5.26834 6.23384 2.11775 0.485142 0.538824 0.115396
300 1 7.64967 4.24621 3.02294 -1.57796 0.0162121 -0.669771
301 1 8.85686 1.24949 6.33294 -0.140044 0.72007 0.582906
302 1 7.1377 9.15256 4.47888 0.0868569 0.594137 0.990265
303 1 1.81828 7.52304 9.22872 0.829312 0.572191 -0.539295
304 1 6.27853 2.35003 4.11142 0.652323 0.792468 -0.733551
305 1 2.65174 0.567176 1.18696 -0.142668 -1.36076 0.0451385
306 1 9.18054 8.40041 3.4942 -0.997685 0.281913 0.321016
307 1 4.9974 8.67175 1.67708 0.513886 0.197197 -0.894221
308 1 5.42261 0.850236 4.83691 -0.0278575 -0.408185 0.232905
309 1 1.73616 3.56728 7.05444 -0.23407 -0.393229 -1.38803
310 1 1.58206 1.02898 5.84488 -0.35923 -0.522718 0.475239
311 1 7.59044 0.397016 1.38789 -0.40306 0.400106 -0.514978
312 1 0.136504 3.7892 1.66924 -0.980339 0.6399 0.529665
313 1 7.77444 3.55452 1.30035 -0.957806 -0.710847 0.336224
314 1 4.67514 4.23962 8.89772 -0.662557 -0.521865 0.759272
315 1 3.33183 4.9392 6.64708 0.00295624 -0.224086 -0.665606
316 1 2.43741 1.59883 4.0795 0.563563 -0.653598 -0.166066
317 1 1.00323 2.69161 7.63849 -0.709434 -0.613981 0.12254
318 1 0.144487 5.72596 8.35812 -0.5637 0.267882 -0.0789565
319 1 3.94024 7.76543 6.93008 0.471203 0.634049 0.638504
320 1 6.10693 0.277403 3.84665 0.39033 -0.0701243 0.245517
321 1 3.30727 4.92905 3.67675 0.350544 1.70915 -0.386677
322 1 0.624586 8.42241 8.46935 0.1429 -0.240072 -0.543467
323 1 5.24892 7.87688 3.38421 0.119096 -0.256096 0.168741
324 1 6.17727 4.85958 1.1694 -0.260448 0.144267 0.480587
325 1 6.57702 4.75552 2.72758 2.00798 -0.135114 -0.131668
326 1 0.87044 8.93193 4.68073 0.123215 -0.432818 -0.742496
327 1 4.8686 7.91942 0.773547 -0.0952981 -0.547057 -0.305316
328 1 3.29645 3.68271 0.315233 -0.450911 0.2112 1.29444
329 1 0.887128 3.61438 3.58287 -0.975077 -0.56686 0.548274
330 1 3.12653 2.72743 0.104216 0.226068 0.308853 0.573907
331 1 5.02269 1.20545 8.14474 1.17009 -0.052329 -0.534905
332 1 1.80314 2.74336 8.43154 0.368491 -0.910917 0.69282
333 1 6.19427 5.79078 1.65613 -0.095417 -1.29811 0.142184
334 1 4.00075 5.79233 6.52062 -0.288308 -0.354957 0.584014
335 1 5.34785 3.24065 0.354916 -0.953104 -0.510227 -0.0416194
336 1 8.67031 3.86469 5.11867 -0.252173 -0.0851889 -0.137114
337 1 4.99936 7.70199 7.49008 0.167703 -0.632196 0.385455
338 1 8.58097 1.83831 7.14929 0.100676 -0.385363 0.666173
339 1 8.24622 4.84912 5.52317 1.07381 0.582919 0.472283
340 1 7.66162 7.16295 2.81494 -0.722647 -1.90839 -1.54814
341 1 8.33838 8.46771 0.52819 0.120006 -0.530537 -0.876121
342 1 4.95565 6.13029 9.16089 -0.468147 1.27412 0.0141318
343 1 2.33634 4.54883 3.74011 0.611509 0.914577 -0.288439
344 1 4.8283 9.31831 4.8844 -0.565857 -0.558246 -0.39811
345 1 7.2494 6.28234 4.49063 0.438547 -0.758204 -0.957715
346 1 0.156351 4.75575 1.08569 -0.278202 0.42025 1.10715
347 1 3.44677 3.29189 1.49655 -0.645155 -0.296315 0.493771
348 1 7.27913 3.41906 7.84645 -0.350101 -0.272889 -0.85494
349 1 6.58889 4.67698 0.12593 -0.359226 2.02397 0.153779
350 1 4.42928 6.34304 3.86344 -0.241518 -0.500372 0.606761
351 1 6.99726 3.24667 0.65178 0.247039 0.601584 0.804646
352 1 4.77203 7.68245 8.61111 -0.94922 -1.02796 0.093616
353 1 1.21847 1.7868 3.90603 0.195212 0.150515 -1.02537
354 1 0.568773 0.0736774 8.77178 0.280274 0.353586 0.00976255
355 1 0.789757 4.65911 0.0338549 -0.849913 -0.44787 0.327071
356 1 3.04558 4.48499 7.65404 0.376062 -1.11864 -0.700587
357 1 8.22609 8.93334 1.43436 0.783901 0.760781 -0.16286
358 1 5.60607 6.55282 3.21663 0.630624 -0.226648 0.258816
359 1 2.70223 2.43442 7.79693 -0.420115 0.280275 -1.92676
360 1 3.59158 3.4542 4.19752 -0.470176 -0.787415 -1.24929
361 1 1.59061 2.36751 2.39781 -0.0793389 -0.445363 0.631036
362 1 6.17738 3.31518 3.53637 0.0767198 0.490013 0.351175
363 1 8.21089 5.80753 0.689848 -0.81238 0.186133 0.475646
364 1 1.90319 1.76242 8.07388 -0.725555 0.172132 0.0930169
365 1 1.35011 3.76455 9.35514 0.838574 0.670418 1.15437
366 1 6.13178 6.96545 6.50067 0.756689 -0.691963 0.183085
367 1 1.06663 4.50202 1.67632 -0.351708 0.895841 -1.70262
368 1 1.57346 8.12769 2.99704 -0.419818 -1.43129 -0.132786
369 1 6.22114 4.22403 8.57072 -0.221571 0.25392 0.317893
370 1 5.72633 2.7197 1.50772 -1.13534 0.823065 0.0634685
371 1 0.821812 6.59892 3.31377 -0.215325 -0.931683 -0.0247681
372 1 2.36834 4.47795 6.87302 -0.0638114 0.238437 -0.358275
373 1 5.43313 9.01072 9.2796 -0.0307364 0.534391 -0.0779466
374 1 8.17507 6.2991 4.07438 0.336148 1.07079 -0.828731
375 1 5.14043 5.87445 6.48539 -0.16622 0.137687 0.171605
376 1 3.50894 1.51591 9.10407 -0.239461 0.565144 0.731453
377 1 1.61726 6.46966 8.90935 0.439252 0.516539 -0.075061
378 1 5.31307 0.0678224 2.13728 -0.259517 -0.697908 -0.60133
379 1 7.83917 5.51506 6.77484 -1.24032 0.440629 -0.65511
380 1 7.66592 5.12252 2.49093 1.27928 -0.549215 1.05278
381 1 1.93591 1.15873 0.650732 0.348183 -0.799403 -0.051728
382 1 7.34795 6.33356 3.49403 0.264377 -0.923023 0.670497
383 1 8.54013 5.19829 8.21021 0.0331687 0.644479 0.372109
384 1 5.88533 8.06641 1.82649 0.567777 -0.484751 0.447541
385 1 4.01786 9.06545 8.71947 0.237212 0.754739 1.10444
386 1 0.108152 1.61523 3.44079 1.62922 0.479071 -0.00882733
387 1 8.94385 0.730608 4.36166 0.221888 0.626657 0.441395
388 1 8.98666 1.49 8.68848 -0.245418 -0.718783 -0.856963
389 1 6.59723 3.53949 5.85895 1.15081 -0.321461 -0.716687
390 1 3.14282 6.6832 2.15576 -0.713247 1.11552 -1.188
391 1 4.1742 1.83718 7.91417 0.370945 -0.366237 0.0625953
392 1 8.41185 2.60495 5.37209 -0.304908 -0.606659 -1.02791
393 1 1.0737 8.16737 0.531263 0.0981425 -0.600293 -0.195267
394 1 9.34186 4.11116 0.219144 -0.687462 -0.264431 -1.01522
395 1 8.67933 9.19723 4.85251 0.0268653 0.032577 -0.319769
396 1 3.91103 2.71184 4.78564 -0.479284 -0.934354 -1.23381
397 1 4.41309 3.85824 0.397706 0.699867 0.606142 0.78944
398 1 8.55656 5.87334 2.42794 0.000259707 -0.238528 -0.830451
399 1 9.23654 3.79433 2.63426 0.810276 0.55051 -0.70013
400 1 6.80357 7.873 2.21721 -0.204292 -0.462507 0.512606
401 1 3.33683 1.67361 6.24189 -0.583147 0.0342433 -1.95393
402 1 0.483407 1.02552 4.23923 -1.22804 -0.615098 -1.37661
403 1 1.81552 6.40176 1.34557 -0.00799394 1.43246 1.25755
404 1 6.28603 6.57845 5.44173 0.388007 0.926201 1.39874
405 1 2.67021 1.49036 7.08424 -0.182228 0.387267 1.48094
406 1 4.48604 1.9127 0.737926 -0.958075 0.183574 0.10036
407 1 5.14481 1.14736 2.10524 0.204928 -0.494537 0.359767
408 1 0.888296 2.95678 1.41653 0.755561 -0.432439 0.432248
409 1 4.0662 4.44706 4.30964 0.551972 0.393971 -0.17839
410 1 0.34493 2.28501 4.26755 -0.826112 0.627721 0.201575
411 1 5.66774 1.48285 3.95101 -1.66885 1.1634 1.704
412 1 7.5082 1.57197 4.87956 -0.598652 0.345585 -1.06341
413 1 1.32979 8.89349 9.1991 0.040913 0.0685157 -0.617476
414 1 6.68464 1.91987 5.58486 0.159506 0.0407057 0.102199
415 1 1.74889 3.35238 0.914943 -1.07282 -1.27997 -0.0750271
416 1 6.75773 1.27747 1.347 -0.119731 0.503837 -0.139912
417 1 1.01099 6.4499 5.4562 1.17942 -0.00640167 0.423345
418 1 4.41113 1.03082 1.37474 0.932403 -0.764814 -0.596679
419 1 7.26812 3.12393 3.95678 0.205262 -0.532773 0.689512
420 1 1.3301 0.61673 4.82334 1.24634 0.0885907 -0.34273
421 1 6.42874 7.64199 5.69215 0.0802277 -0.960745 -0.224782
422 1 4.8901 2.89603 4.98542 0.329846 -0.78236 -0.915672
423 1 0.411676 3.00229 2.32853 -0.570415 0.453545 -0.0261487
424 1 6.18168 0.100529 5.22091 0.333862 -0.284943 -0.55586
425 1 3.05506 2.10232 4.96729 -0.372063 -1.09022 0.0578685
426 1 7.58855 0.508457 8.9014 -0.770511 -0.503138 -0.61018
427 1 7.61303 5.13623 7.76848 -0.226748 0.121144 -0.238802
428 1 3.27064 8.13871 7.74314 0.0558225 -0.0585266 -0.502719
429 1 5.80441 7.61408 0.943173 -0.0728434 -0.536327 0.300058
430 1 4.86062 7.70665 5.04567 -0.0294581 -1.65982 -0.780915
431 1 7.91324 1.68493 5.7959 0.165613 0.676392 -0.39997
432 1 4.02384 0.920991 6.35172 0.388076 0.381303 -0.0415859
433 1 4.6516 8.53973 6.73788 0.410861 -0.0550845 -0.118167
434 1 6.10405 6.79166 1.68237 -0.199342 -0.786003 -0.0962216
435 1 0.584948 2.59865 3.25652 0.677884 -0.0784172 -0.385175
436 1 9.3713 1.10686 1.41156 0.00350871 -0.769617 2.11221
437 1 8.32527 6.85337 2.01471 -0.18844 2.00598 -1.03267
438 1 8.82676 9.40016 9.28229 -0.473542 0.757331 0.152613
439 1 4.73026 6.40844 1.32204 0.0411265 0.417256 -0.190227
440 1 8.65528 4.59726 3.22218 0.237417 0.698726 0.460778
441 1 5.89409 1.69196 2.569 0.974873 -0.803804 0.201868
442 1 5.36783 3.0695 7.56552 -0.0851249 0.360785 0.866476
443 1 4.17939 6.42823 0.418128 0.79842 -0.42534 -0.284121
444 1 9.01815 5.27904 6.34372 0.243948 0.189772 0.0456606
445 1 4.38125 1.00249 0.115255 0.291359 0.210272 0.0553636
446 1 6.9543 3.46351 6.84777 -1.11441 1.08831 0.319561
447 1 3.17804 5.78584 2.6815 0.285877 0.0584472 0.750959
448 1 6.67037 7.49916 8.14775 0.195849 -0.221931 -0.471233
449 1 0.420984 8.82271 0.111276 0.497732 -0.225441 0.410969
450 1 2.73878 4.20193 8.79413 0.12857 -0.246704 1.07546
451 1 7.11176 9.24912 8.28293 0.2642 0.640098 0.202052
452 1 6.12799 7.62968 7.38196 -0.759047 -0.393493 0.73355
453 1 4.2502 8.00461 1.66411 0.656603 0.183297 -0.447394
454 1 5.26241 6.84165 7.03131 0.822737 1.17518 0.456209
455 1 7.3058 5.11899 6.02402 -0.204828 1.02139 0.164701
456 1 8.25384 6.65149 5.16998 0.513942 -0.0772906 0.578789
457 1 4.31107 0.150618 1.99345 -0.347108 0.522693 0.73016
458 1 0.987511 6.44555 2.06844 -0.802649 0.216596 -0.684461
459 1 9.26322 6.6625 1.55924 1.651 -1.53802 -2.07023
460 1 6.95392 1.49567 9.1331 -0.626908 -0.689858 0.125084
461 1 0.237601 4.48811 3.42088 0.501579 0.38927 -0.496853
462 1 2.62103 9.07532 1.85598 -0.390577 -0.0531357 0.987421
463 1 1.64948 1.38643 2.00166 -1.09161 -0.459891 0.359081
464 1 9.00676 3.1749 6.19042 -0.233451 0.237113 -0.704113
465 1 8.67926 7.72376 6.90031 -0.379983 1.0016 0.119343
466 1 7.12107 0.220145 2.46473 -0.620357 0.72622 0.674365
467 1 6.22921 3.33822 9.30153 -1.54854 -0.188168 -0.405927
468 1 7.1854 0.787043 4.03177 0.555058 -0.449602 0.499067
469 1 0.0170978 2.63926 5.1762 0.178613 -0.653799 -0.510401
470 1 1.3162 0.844185 8.52795 0.848677 -0.0828261 0.432063
471 1 3.62847 8.44821 6.19199 1.06151 -1.1774 1.42718
472 1 4.65729 5.32655 5.72444 0.580478 0.139872 -0.534367
473 1 8.54886 4.19055 8.80916 0.233581 0.0177425 0.86531
474 1 4.48501 8.41065 9.28581 -1.52742 0.485288 -0.0705931
475 1 3.09392 0.500275 8.44349 0.520069 0.767777 -0.0904164
476 1 0.265135 0.89242 8.12925 0.226848 1.15841 0.137229
477 1 7.40773 8.2466 8.22 -0.402856 -0.0180927 0.528447
478 1 0.274074 0.250436 5.01448 -0.307243 0.0662898 0.108347
479 1 1.64916 4.38485 0.790201 -1.26784 0.53083 -0.309352
480 1 6.03456 6.00529 7.06804 0.760451 -0.171123 -0.166997
481 1 3.56613 7.40103 1.15673 0.336612 -0.0341487 0.274794
482 1 5.3395 5.71115 3.74719 0.156804 0.738704 -1.41137
483 1 5.11864 5.48609 1.37448 -0.262183 1.35589 0.585113
484 1 7.776 4.06624 0.250903 -0.67697 -0.918219 -1.69045
485 1 7.36624 6.48221 0.20448 0.921899 0.242265 0.873449
486 1 1.28252 4.51015 3.5916 1.13495 -1.18148 0.137683
487 1 0.227941 5.77568 4.68365 -0.61413 -0.154488 0.44631
488 1 6.87288 4.90046 4.38948 -0.0312313 0.725896 -0.140117
489 1 8.95501 0.15577 1.77988 -0.12429 -0.0501149 -0.646613
490 1 8.14332 5.56738 3.35419 -0.408025 0.494287 1.15752
491 1 6.55783 7.01172 4.04247 -0.228091 -0.72388 -0.984754
492 1 0.064626 6.95042 0.517699 0.231688 0.00615064 -0.262607
493 1 6.9162 6.28868 1.10386 0.501819 -0.706868 -1.02172
494 1 5.23637 3.83951 4.83408 -0.189594 0.0394221 -0.314999
495 1 3.51678 4.16988 2.0855 -0.892712 -0.186746 -0.516926
496 1 4.0645 5.04656 2.72246 -0.145862 -0.0839977 -0.537432
497 1 8.69564 7.4736 8.84505 -0.154502 0.266402 -0.970972
498 1 8.1131 1.47027 7.9974 0.282389 -0.355778 0.0182887
499 1 4.52333 2.28044 3.77195 0.825328 1.03765 -1.08759
500 1 6.68626 5.7287 9.3283 -0.0224414 0.749793 -0.592132
501 1 6.82751 6.11067 6.27706 -1.11989 0.516627 0.437895
502 1 8.29714 4.21971 2.20843 -0.631596 -0.911601 1.5409
503 1 4.2173 6.98775 5.4201 -0.896644 0.472533 0.793186
504 1 4.76925 7.05774 2.76449 0.58441 -0.664423 -1.11896
505 1 8.20903 3.25777 8.71983 -0.590461 0.142427 -1.39716
506 1 1.94235 5.79336 5.63808 0.845153 -0.875196 1.06679
507 1 7.60503 8.29926 7.08085 0.0472482 -0.964131 0.198227
508 1 4.20404 5.88165 2.07359 -1.78376 0.975805 0.357742
509 1 4.41149 2.03378 8.96529 0.62773 0.762575 -2.05783
510 1 6.22879 4.01245 1.88691 -1.95064 -0.509615 -0.177757
511 1 4.76138 1.11399 7.11949 -0.0698553 -0.21703 -0.885271
512 1 9.27402 5.82862 0.814169 1.04882 -0.435321 0.170821
513 1 1.00435 9.1193 3.07298 -0.0843866 1.10306 0.647108
514 1 0.640548 5.59557 3.72951 0.622948 1.06615 -0.152842