ITEM: TIMESTEP
27140000
ITEM: NUMBER OF ATOMS
1000
ITEM: BOX BOUNDS pp pp pp
0.0000000000000000e+00 9.4000000000000004e+00
0.0000000000000000e+00 9.4000000000000004e+00
0.0000000000000000e+00 9.4000000000000004e+00
ITEM: ATOMS id type x y z vx vy vz
1 1 1.03399 4.4786 8.80827 -0.14145 0.445177 -0.733143
2 1 7.36094 5.70317 1.09905 0.984003 0.569445 0.694882
3 1 3.13522 4.631 2.65325 -0.248616 -0.952261 0.0322882
4 1 7.81324 7.96365 8.02549 -0.159531 -1.48862 -0.0455117
5 1 3.22064 0.327065 4.13236 -1.17425 1.01306 -0.294513
6 1 6.52802 8.57913 7.70502 -0.294598 -0.698214 -0.281777
7 1 0.329109 7.41275 0.221801 -0.515048 -0.759076 1.33789
8 1 4.98548 0.577108 4.5775 -0.469764 -0.0765056 0.678751
9 1 3.28483 4.47371 5.83183 -0.00335528 0.646412 0.150238
10 1 8.74042 7.45052 7.83578 -0.890663 1.04746 0.00561012
11 1 7.17563 0.148629 6.25355 0.630126 -0.335295 -0.271182
12 1 9.30976 0.840453 0.593574 0.309995 -0.700514 0.326874
13 1 0.760191 3.50019 0.748441 -0.287626 1.30183 -0.554723
14 1 3.87094 5.29394 2.35023 -0.108424 -0.581154 0.89901
15 1 6.73794 2.75178 0.240435 -0.0377791 0.212801 0.711294
16 1 1.09461 0.444739 5.52092 -0.783391 -0.843622 0.542685
17 1 8.31036 2.48521 1.63915 0.79886 0.134101 -1.34122
18 1 7.0994 6.6419 0.0682662 -0.536469 -0.604032 0.615638
19 1 2.72302 3.26324 8.48827 0.185359 0.10307 -0.761785
20 1 6.83548 4.89688 6.30405 0.313255 -0.502912 0.61037
21 1 9.16209 3.09525 3.15223 -0.0123226 0.602937 -0.0779321
22 1 3.5385 2.72214 6.86071 0.0172495 0.107214 0.162153
23 1 6.26807 1.73506 9.14582 -0.779208 0.267752 -0.157424
24 1 2.71585 2.62738 6.08568 -0.072191 0.344557 0.554198
25 1 7.6667 0.547731 7.89815 -0.627612 0.902286 0.343149
26 1 0.887025 4.31819 2.79294 -0.000744969 -0.78676 -1.14192
27 1 9.04006 7.37944 2.20704 0.701064 -0.293598 0.824757
28 1 4.66915 3.84439 4.46325 0.219166 -0.633937 -0.479891
29 1 1.76781 3.16832 6.01598 0.810878 -0.058941 -0.0180805
30 1 0.909949 2.52119 5.48031 0.907882 0.411324 -0.628742
31 1 2.91408 4.40353 1.33814 -0.233756 -0.582314 0.634282
32 1 5.55002 7.31371 5.43448 -0.768455 -0.543996 0.593644
33 1 2.01504 0.732474 8.05723 -0.0872107 -0.578082 0.341604
34 1 6.54575 9.00411 2.86927 0.015214 -0.129488 0.240704
35 1 7.65423 1.7052 3.56089 0.656913 -1.03789 0.712667
36 1 1.95661 8.8102 1.87494 -0.179407 0.0459805 0.0256744
37 1 5.7395 2.00776 1.45322 -0.185304 0.216415 0.261895
38 1 1.76764 6.42891 4.73289 -1.14464 0.243381 0.218489
39 1 1.7651 0.0422291 6.15259 -0.220957 1.12653 -0.517187
40 1 8.40369 2.70089 9.0457 0.603753 -0.560426 -0.425763
41 1 8.64727 7.17093 6.70447 1.00834 0.313894 -0.358457
42 1 2.3275 8.43469 4.42764 0.434722 -0.104913 0.132046
43 1 0.886768 1.97731 9.08349 -0.864242 -0.577808 -0.0193337
44 1 4.83018 2.89813 4.76697 0.808843 0.411529 0.0631471
45 1 5.25415 1.94166 6.39671 0.844977 0.414775 0.471594
46 1 2.66931 5.16518 4.33756 -0.248672 1.02305 -0.616049
47 1 1.44893 5.91813 7.93511 -0.349218 1.17024 1.26324
48 1 4.89203 4.94287 2.57364 0.0247488 0.0306746 -0.266358
49 1 3.83301 3.79684 7.16179 -0.120191 0.214672 1.34804
50 1 1.66012 9.24117 3.99168 0.377597 0.406236 -0.660884
51 1 2.423 6.05205 3.99881 1.22438 0.798712 1.12069
52 1 4.04766 1.69309 1.30034 0.562543 0.206109 1.09241
53 1 4.4192 1.61738 3.11952 -0.368136 -1.47143 -0.474723
54 1 7.72941 7.49129 0.288692 -0.592852 0.247699 1.80947
55 1 1.04827 3.70411 5.31516 -0.984248 -0.211814 -0.607503
56 1 0.861626 5.48899 8.86127 0.157242 0.202984 -0.256889
57 1 1.02281 0.452961 8.30939 -1.07834 1.14815 -0.366406
58 1 8.67013 7.93376 0.564222 -1.02927 0.320185 -0.685652
59 1 8.51462 8.56516 5.1188 -0.573413 -0.222991 -0.751831
60 1 1.83303 7.81678 0.462435 0.108598 0.39135 1.25769
61 1 4.93585 4.45584 1.6205 1.15435 0.186447 0.615782
62 1 0.34913 0.38088 9.0598 -0.223279 0.117153 0.454692
63 1 7.08129 7.50943 8.71516 0.501548 0.797522 -0.84457
64 1 8.05904 7.21029 8.68539 0.236676 -0.328105 0.350921
65 1 7.70738 2.09872 6.61338 0.155796 0.889111 0.390962
66 1 3.07576 4.62718 6.98203 0.673485 0.153992 -0.439583
67 1 1.96889 8.9853 2.99025 -0.33359 -0.14531 0.917991
68 1 4.66518 6.17042 0.176783 0.677183 0.278175 0.486242
69 1 5.80709 5.15178 1.89785 -0.866151 0.368337 -0.766557
70 1 0.480499 3.75828 3.58204 -0.314159 -1.08771 0.848006
71 1 8.30972 4.26658 0.609519 0.689178 0.317844 -0.0165981
72 1 6.2278 7.5042 6.19936 0.132539 -0.6566 -0.275753
73 1 3.55686 7.08492 6.59675 -0.0977616 -1.22509 -0.195253
74 1 6.53262 7.87627 5.26425 0.102775 -0.213937 -0.297322
75 1 8.61595 0.569179 7.47804 0.586003 -0.426726 0.176034
76 1 5.76203 2.4531 0.455417 -0.947722 -0.239832 -0.233934
77 1 2.83546 2.90621 4.57318 0.2652 -0.285721 0.527575
78 1 1.66923 7.09309 1.16693 0.55594 -0.876849 -0.297894
79 1 5.69755 1.36103 0.637132 1.03108 -0.101427 -0.614878
80 1 1.17026 4.56264 6.00604 0.706858 -0.635448 0.126664
81 1 3.72074 9.16689 3.19472 -0.323409 -0.521212 0.76095
82 1 6.69668 2.22569 4.73597 0.0678568 1.05423 -0.524357
83 1 3.75766 7.15042 4.81989 0.882225 -0.31774 -0.918373
84 1 0.800024 7.50162 7.4222 -1.97585 -0.485831 0.282831
85 1 2.0272 3.36937 0.720412 -0.855669 -0.776898 0.361808
86 1 4.3982 5.38341 0.75422 -0.221044 0.685309 1.52312
87 1 6.64816 3.30632 4.63308 0.228254 0.583716 0.0585005
88 1 8.94213 9.2431 6.56721 0.483987 0.135346 0.285621
89 1 0.905551 2.7365 3.57661 -0.500339 -0.727412 0.740458
90 1 5.60192 4.84022 3.3221 -0.874376 -0.259167 0.523891
91 1 1.15677 5.75922 5.2546 1.2268 -0.264692 -0.688057
92 1 8.35209 6.42248 7.62648 0.825701 0.252184 -0.369245
93 1 2.87051 8.80185 3.61284 -0.153917 -1.0706 0.571347
94 1 8.95361 7.51593 3.37646 -0.161608 -0.50299 -0.844641
95 1 3.13224 5.98962 1.85794 0.417212 -0.672933 1.5365
96 1 2.40488 0.44851 9.0732 0.645935 0.495399 -0.560992
97 1 3.01792 2.60115 2.48772 -0.00839202 -0.409897 0.725808
98 1 6.03065 1.57592 2.39523 -0.579229 1.14398 0.19658
99 1 4.29985 9.16822 4.12953 1.13767 0.329401 -0.713792
100 1 5.2457 8.51171 4.11259 0.396491 -0.442644 1.3208
101 1 3.32835 7.05513 1.83028 0.823832 -0.51467 0.365746
102 1 6.5824 1.46967 3.33017 -1.68371 -0.064124 -0.274357
103 1 0.172432 8.00479 1.08285 -0.0219584 1.18302 1.12458
104 1 3.97483 8.67145 8.95046 -0.691894 -0.213225 -0.0939646
105 1 7.01993 7.50167 6.93499 -0.394229 0.312622 0.241966
106 1 6.97564 2.85692 6.39346 0.578801 -0.32171 -0.639003
107 1 6.39008 7.34778 1.69015 -0.414409 -0.0892899 0.0600765
108 1 7.59258 3.87414 6.35119 1.18764 -0.134039 -0.356871
109 1 7.26499 5.0616 2.84266 -0.433677 0.0217822 -2.01526
110 1 8.57347 4.32388 6.26059 0.287956 1.29888 0.0712693
111 1 3.55419 7.60785 7.50343 0.709723 -0.325109 -0.267196
112 1 4.94944 0.104793 1.61087 -1.07031 -0.695853 -0.254368
113 1 2.09308 4.46368 8.75815 -0.974836 0.395353 -0.306711
114 1 2.86056 6.50812 4.80839 0.423313 -0.755167 -0.105962
115 1 5.40198 1.39849 5.47905 0.0607081 -0.839044 0.541749
116 1 5.84891 4.96233 8.5564 1.0992 -1.29615 -0.367363
117 1 7.03518 5.69947 9.22953 0.0489319 -1.61878 -1.67197
118 1 7.81351 1.63226 7.74591 -0.640001 -1.37488 1.13816
119 1 9.14872 6.51311 3.01074 -0.231063 -0.324916 -1.03252
120 1 3.56588 6.92134 2.78889 0.955725 0.421517 -1.16527
121 1 5.94658 8.05648 7.05639 0.33881 -0.00611264 0.226593
122 1 9.37714 0.360785 8.11835 -0.370236 -0.510641 -0.258774
123 1 2.546 1.57819 5.60904 -0.683327 0.634127 0.181269
124 1 4.53573 8.5345 3.25934 -0.0142935 0.568731 0.40895
125 1 7.24805 4.46348 4.34445 -1.00444 0.717588 0.26859
126 1 0.0343239 5.59936 0.195676 1.26822 -0.751547 -0.875193
127 1 1.7913 8.1484 5.34261 -0.491838 -0.88957 -0.27546
128 1 4.38758 0.403174 8.60483 0.959949 0.478145 0.614927
129 1 3.04608 3.31691 1.26574 1.44646 0.0583582 -0.394664
130 1 2.57654 7.23806 6.98119 1.39418 0.470441 -0.150275
131 1 1.72689 1.30694 3.78031 0.973863 -0.49738 -0.356826
132 1 6.27139 5.94754 3.85087 0.736873 0.125834 -0.283698
133 1 6.58285 6.60964 1.00499 1.1674 0.809507 0.401222
134 1 4.42983 1.15783 6.09131 -0.207814 -0.374128 0.647667
135 1 4.9967 1.86469 4.56662 -0.840989 -0.375375 -0.143613
136 1 1.612 1.18181 8.92881 -1.00781 0.0859288 0.184588
137 1 2.21636 5.53636 8.51684 0.394899 -0.255613 -0.859227
138 1 5.3061 5.60093 7.81947 -0.659355 -0.286609 -0.152688
139 1 0.508446 7.75202 4.18819 -0.783025 -0.647859 -0.162332
140 1 3.88409 4.08905 5.05171 1.6262 1.07333 0.238975
141 1 4.98839 8.80392 5.04383 -0.726518 0.75467 -0.788926
142 1 1.58989 3.40282 8.89675 0.40659 -0.437496 -0.0934428
143 1 5.31578 7.52405 7.88715 0.0251874 0.167751 0.525243
144 1 1.09581 3.18567 7.31765 1.62653 -0.182091 0.430741
145 1 5.62387 4.40578 7.73915 -0.391824 -0.869509 0.487569
146 1 7.58714 0.0691952 2.89346 0.183433 -1.22302 -0.56017
147 1 4.51461 7.517 5.52827 -0.396255 -0.595972 -0.339297
148 1 4.65719 3.89926 7.66438 0.405891 -1.0229 0.328754
149 1 0.076436 6.4525 2.01372 0.0924584 2.06695 -0.133345
150 1 4.87958 0.362542 7.6668 0.680723 -0.930668 -0.270708
151 1 0.973901 6.43912 6.19934 0.675291 -0.757335 0.559795
152 1 4.87962 7.14867 8.97247 -0.581324 -0.264969 0.00666191
153 1 0.394068 6.43735 9.19644 -0.00829648 0.902157 -1.03264
154 1 6.38133 3.88833 8.24099 -0.501698 0.379312 1.54701
155 1 6.76817 6.04605 2.09875 -0.445345 0.239974 -0.538412
156 1 5.2428 0.935215 2.72524 1.0814 -0.304784 0.517336
157 1 7.05066 1.23865 6.20281 1.37547 -0.261383 -0.210847
158 1 3.57602 1.53993 8.69321 -1.19594 -1.26853 2.2066
159 1 1.22427 8.51729 4.47842 0.859985 0.258276 0.0197553
160 1 6.85825 8.33659 6.30625 0.560213 -0.0997955 0.635418
161 1 9.14363 3.77349 0.908044 -0.0358471 -0.56758 -0.714096
162 1 0.611733 9.37746 0.701854 0.988603 -0.14354 -0.886955
163 1 9.23636 2.9338 5.77468 0.855951 0.76607 0.451346
164 1 4.99805 6.61294 3.38677 0.464481 -0.69947 -1.28659
165 1 6.16941 9.36978 1.54619 0.682104 0.105241 -0.557078
166 1 0.327603 4.91603 5.45036 -0.858049 -0.1864 -0.37006
167 1 4.54472 7.66097 2.61756 -0.0290292 0.208027 0.793687
168 1 7.42343 4.77541 0.218917 0.105372 1.11208 0.906047
169 1 3.46115 5.59845 7.15593 0.036625 -0.864294 -0.647397
170 1 2.72042 1.84582 6.75765 0.44035 0.271952 0.0334304
171 1 1.47229 3.63984 3.597 -0.671996 0.0812935 -0.236168
172 1 3.8607 3.09984 1.97037 -1.16608 -0.424261 0.688565
173 1 7.99811 8.43579 8.88802 0.790059 0.62092 -1.39966
174 1 2.04527 3.56168 5.01005 1.96273 -0.841075 0.328229
175 1 5.56361 8.60093 3.08903 0.769295 -0.553584 0.143614
176 1 1.61229 1.38794 5.16931 -0.688653 0.0814141 -0.305909
177 1 2.17741 7.75211 1.71631 0.0183989 0.0392326 -0.129281
178 1 8.44954 8.28035 7.20794 -0.910805 0.0247814 -1.01961
179 1 5.72346 7.56952 2.62826 -0.204303 -1.55852 -0.892212
180 1 2.01987 9.21368 5.10711 0.156459 0.112397 -0.282414
181 1 7.33065 7.25526 1.29044 -0.426106 0.047149 -1.46111
182 1 4.68816 2.54922 1.5622 -1.41509 0.25262 -0.247322
183 1 3.33978 8.19978 8.29727 -0.66807 -1.18448 0.286897
184 1 1.80063 2.23868 8.79356 -0.398247 -0.0861382 0.318385
185 1 0.773163 6.01434 7.16753 -0.0676205 1.08747 0.798435
186 1 0.528279 5.30926 4.50818 0.567183 0.224167 0.314289
187 1 1.3379 2.72749 0.298125 -0.2697 -1.01378 -0.20187
188 1 2.65956 6.24828 0.967643 0.889676 1.35512 -0.0389353
189 1 1.24896 1.995 4.4061 -0.349873 0.237374 0.020078
190 1 7.68278 4.19259 3.40298 -0.110401 -0.598532 0.175387
191 1 4.43224 4.16794 8.82378 0.933353 0.985629 0.176668
192 1 9.1695 5.76209 7.39777 0.296121 -0.725088 -0.754038
193 1 3.47644 7.66202 5.74547 -0.153406 0.0109106 -0.0543237
194 1 3.15612 3.15678 0.216478 -0.420947 -0.0100077 0.398949
195 1 0.440905 7.71214 2.92257 -0.145792 -0.206062 0.282385
196 1 2.12527 0.693147 4.50966 -0.35961 0.12861 0.0968025
197 1 2.10103 5.08467 5.13526 0.114775 0.167266 -1.07971
198 1 2.55366 4.12859 0.42624 -0.0286867 0.805373 1.36611
199 1 2.84173 6.31767 6.73128 -0.208235 0.0486851 1.87013
200 1 4.3126 0.0950153 6.47652 0.331335 -0.692063 -0.0277272
201 1 8.77862 6.95914 9.39177 0.136769 0.50209 -0.804038
202 1 0.099786 3.03096 4.21686 -1.19498 0.0579248 -0.905777
203 1 4.92594 6.375 6.99778 -0.911033 -1.85742 1.14987
204 1 4.3932 2.94006 7.36865 -0.600366 -1.22644 -0.112467
205 1 7.89744 7.85048 6.4466 -1.55126 0.298714 0.28715
206 1 9.16141 2.28609 4.93645 -0.98317 -0.119796 -0.781216
207 1 6.88845 2.23461 7.47066 -0.854306 0.382169 -0.684577
208 1 7.0348 4.43088 5.39098 0.319984 0.424059 -0.380117
209 1 4.12836 1.2721 7.76313 -0.203736 -0.897915 -0.442393
210 1 1.87986 2.88417 8.00628 -0.507754 -0.169566 0.15921
211 1 2.19576 1.89733 2.35422 0.192207 -1.55776 0.471455
212 1 6.39062 8.11006 3.44255 -0.28963 0.0474297 -0.383696
213 1 3.0078 1.21802 4.65101 0.723875 0.365378 -0.168234
214 1 7.07021 3.39683 8.76961 1.85565 -0.33186 -0.272189
215 1 1.99974 4.34374 4.2369 -0.434206 -0.468782 1.34151
216 1 4.74647 3.66057 6.62478 -0.228885 0.210939 0.114956
217 1 8.92527 8.90952 8.61414 0.561834 0.644844 0.934275
218 1 4.31135 3.65813 1.26974 -0.451016 -1.07488 0.303678
219 1 5.57167 7.89622 0.4318 0.543673 -0.883971 -0.362857
220 1 9.18974 2.65441 2.24099 0.0200072 0.137018 -0.0608966
221 1 9.02758 9.00181 7.55196 0.404177 0.00345581 0.506447
222 1 4.73219 4.30039 0.453744 -0.235122 0.566284 -0.0142466
223 1 3.39231 8.56011 0.576355 0.513862 0.247624 0.84458
224 1 6.88851 6.23558 3.09523 0.592467 -0.367546 0.306475
225 1 4.12548 4.53547 6.52612 0.671458 -0.54342 -0.311813
226 1 9.00786 7.16886 1.17183 -0.519256 -1.25992 0.0902813
227 1 5.42432 8.66687 1.18476 -0.491351 -0.297192 -1.12332
228 1 5.99193 3.1198 8.9724 1.55556 -0.608329 0.225116
229 1 0.248418 0.48516 7.16252 -0.0771751 -2.32379 -0.193813
230 1 3.79287 0.278087 1.85928 -0.69736 1.28477 -0.461198
231 1 8.78732 4.8655 7.04893 0.156036 1.08787 -1.26863
232 1 6.04324 5.85639 8.91797 -0.187966 0.372089 1.10365
233 1 0.122929 8.16554 7.9627 -0.141409 -0.77975 1.05065
234 1 1.79326 0.760133 1.04704 -0.607057 1.49229 0.800099
235 1 7.77582 4.74016 7.00069 0.0434728 -1.09817 -0.476249
236 1 2.39112 0.392675 6.93796 -0.465125 -0.295522 0.225633
237 1 7.45628 1.81211 1.49024 -0.17588 -0.695615 -0.60134
238 1 6.60951 0.301739 8.28509 -0.754806 0.722295 -0.409422
239 1 1.27948 7.45573 6.30148 0.808757 -0.779501 0.0521942
240 1 4.97705 0.3047 5.6963 -0.485088 -0.515938 -0.172839
241 1 2.72622 7.52742 2.5297 1.41562 -1.49562 -0.141755
242 1 7.66414 2.0154 4.51146 -1.13857 -0.406963 -0.00763279
243 1 2.08125 8.8594 0.115896 -1.85684 1.0511 -0.633989
244 1 7.01229 1.10877 9.36325 -0.237158 0.0874531 0.472235
245 1 5.62698 4.26656 2.42229 -0.372178 -0.18563 -0.15894
246 1 1.57381 6.05065 0.959173 0.540139 -0.466648 0.251206
247 1 5.58654 3.63107 3.97079 0.355395 -0.306437 0.391622
248 1 6.91843 0.44191 3.50914 -0.488455 -0.379733 -0.309401
249 1 0.495882 4.93417 7.90793 -0.236649 -0.506972 -1.69074
250 1 3.26129 7.8291 4.0523 -0.0132671 -0.97732 0.0195633
251 1 9.30728 4.02054 5.59853 1.1159 0.554108 -0.146164
252 1 4.81187 4.06578 3.26171 -0.650962 -0.74488 0.599265
253 1 0.751165 5.441 6.36453 -0.0389456 0.852166 0.00682047
254 1 6.27999 2.83723 1.2245 -1.00409 0.514886 0.697646
255 1 5.65349 8.37888 8.26653 0.560467 -0.690273 -0.519597
256 1 9.23895 4.26402 8.50968 0.246891 0.787071 0.665003
257 1 2.87402 7.9063 0.0237704 -0.575799 -0.581545 -0.592007
258 1 2.58541 1.12665 2.9157 0.974146 0.531103 -0.789319
259 1 3.7257 5.50297 8.48591 -0.232794 -0.538521 -0.871718
260 1 5.21787 2.29488 7.54265 0.680603 0.714098 -0.0122475
261 1 6.75269 4.07609 0.252172 0.035943 0.401895 -0.531173
262 1 3.92104 8.53796 2.30109 0.688273 -0.273217 -0.391762
263 1 8.88915 3.40649 4.90908 -0.611745 -0.361203 0.68757
264 1 7.24176 6.10261 5.03339 0.487019 0.0486466 -0.227426
265 1 6.16129 4.34304 4.50289 0.738296 -0.272091 0.66555
266 1 7.91479 7.19149 4.16332 -0.310032 -0.804776 1.12699
267 1 3.96841 2.78632 0.841122 -0.354139 -0.624885 0.336836
268 1 5.21979 1.19942 8.20643 0.0939143 -0.168185 0.177407
269 1 3.09591 6.80178 0.174739 -0.936332 -0.0174778 -0.0576654
270 1 7.66379 9.11537 5.00515 0.206557 0.0629358 0.0707537
271 1 9.18659 9.001 1.26597 -0.708732 0.058519 -0.452418
272 1 7.07161 1.16147 4.31802 -0.806733 0.307352 -0.244092
273 1 8.0634 3.18542 3.29247 -0.175562 -0.404782 0.493065
274 1 6.59088 6.31295 7.52983 -0.541916 -1.24929 -0.036124
275 1 4.30496 8.11911 4.33859 -0.3342 -0.018794 -1.61315
276 1 8.26039 4.85636 2.61746 -0.321654 0.389462 -1.05676
277 1 5.7861 2.71621 4.56843 0.101308 1.29962 0.282852
278 1 2.21001 4.1837 5.90143 0.053246 -0.363945 -0.847246
279 1 3.12007 1.47446 2.12485 -0.357095 0.286437 -1.48581
280 1 4.06256 4.2243 2.2863 0.911056 0.0876381 -0.88791
281 1 5.81913 7.63059 4.44028 -0.898509 0.163213 -0.729071
282 1 8.9498 0.115838 3.51267 2.05224 0.197725 0.294789
283 1 7.82166 8.24657 4.28432 -0.273289 -0.61398 0.292383
284 1 8.01865 6.96031 5.82842 0.0257435 -1.03718 0.492342
285 1 4.11039 6.33554 2.06757 1.0841 0.860459 0.380201
286 1 9.39407 1.35322 7.89818 0.657153 -1.2182 0.504076
287 1 4.67338 8.91634 8.18598 0.585488 0.382371 0.671056
288 1 2.50414 1.14059 0.451862 0.559595 -0.105528 -0.365517
289 1 6.35783 1.19814 5.0554 1.34113 0.348038 -0.68276
290 1 0.72681 9.08066 7.61146 0.297548 0.577752 0.134218
291 1 5.34081 0.355738 6.73811 0.159727 -0.484203 -0.534097
292 1 1.75592 5.93979 6.70642 0.208694 -1.07753 0.00489833
293 1 1.57971 7.40472 4.53102 0.0988901 -0.683774 0.0282639
294 1 8.60601 3.49257 8.13434 -0.942265 0.157031 0.640512
295 1 7.46871 5.87144 6.0837 -1.27147 0.770779 0.452569
296 1 5.67512 6.94746 0.725709 -1.25693 -0.542271 -0.85502
297 1 2.46504 2.41531 0.623347 -0.0409637 0.00257786 0.189237
298 1 3.61143 6.09286 6.15809 -0.0479026 1.13236 -0.0477374
299 1 6.04922 6.56716 2.53703 0.0165009 -0.183882 0.2135
300 1 6.6092 4.31336 2.72148 -0.789747 0.47904 0.293377
301 1 8.69477 1.70081 7.23234 -0.410474 0.980631 1.59944
302 1 1.12563 0.81517 4.42748 -0.483516 -0.0839431 -0.254943
303 1 0.629109 8.82645 8.76791 0.371489 -0.506035 0.870273
304 1 6.83012 3.62259 1.83431 0.117853 -0.365135 -0.771848
305 1 5.03749 2.75825 9.185 -0.0897497 -0.802076 0.790648
306 1 0.109215 8.76916 4.34401 -0.355225 -0.959022 -0.125809
307 1 5.51877 0.236721 0.724271 -0.53284 -0.162897 -0.101416
308 1 6.10586 0.584848 5.95701 -0.42445 -0.260691 0.292051
309 1 9.2563 4.10356 7.46432 -0.375278 -0.990817 -0.467888
310 1 2.89022 3.56261 6.59311 0.83867 0.917529 -0.0494357
311 1 8.59458 8.11787 1.69354 0.910804 -0.967358 -0.0110898
312 1 2.25671 6.70824 1.91524 0.357927 -0.205982 0.960235
313 1 5.54719 1.01186 1.6787 0.355176 1.01606 -0.748
314 1 5.76637 6.2402 1.56578 0.59388 1.00466 0.673971
315 1 5.89775 4.48328 6.67349 -0.23776 -0.565689 0.306063
316 1 2.28864 4.99611 3.45925 -0.0958108 -0.379147 -1.1207
317 1 0.171325 1.92657 5.83464 -0.602365 -1.72488 0.0899132
318 1 8.47424 5.97629 9.37141 0.303142 -0.541677 0.170503
319 1 3.30267 9.28055 6.81525 0.860175 -0.775046 0.0278413
320 1 5.20287 7.64742 3.50687 0.751516 -0.318127 -1.13692
321 1 3.74149 4.80292 4.36446 -0.960315 -0.108694 0.3511
322 1 9.39608 6.86451 7.42215 -0.800312 -0.803146 -0.155564
323 1 5.6404 0.0536033 2.4842 -0.204692 -0.0245513 0.478169
324 1 3.24372 4.09226 9.06538 -0.867967 0.500467 0.916965
325 1 3.32387 5.42456 0.91883 1.16895 -0.895898 0.967046
326 1 0.269979 0.213061 4.93676 0.453204 0.139952 -0.445745
327 1 4.92316 0.540773 9.38975 -1.78238 -0.78977 -0.625995
328 1 4.01662 2.38245 9.17626 0.687763 -1.28703 -0.125098
329 1 7.53957 3.37596 0.379225 -0.7267 -0.628477 0.138591
330 1 3.74045 0.0576713 0.1627 -0.905319 -0.501633 -0.259554
331 1 3.66434 1.92797 6.15491 0.440776 -1.23576 -0.603687
332 1 2.11052 1.82794 7.72566 -0.779547 -0.654283 -0.549949
333 1 6.9285 4.92038 1.81799 -0.584752 -0.208508 -0.794962
334 1 2.33653 7.69861 6.12707 -0.34331 -0.0561483 -0.392784
335 1 6.40244 3.28623 2.72405 0.346281 -0.878465 -0.656666
336 1 0.412137 4.01559 4.64204 -0.203856 1.48729 0.0458174
337 1 5.69475 6.62971 8.24299 -0.801632 -0.174368 -1.09834
338 1 8.88793 2.34858 8.16402 -0.510637 0.601702 0.874603
339 1 0.967303 4.34883 7.09053 0.92906 -0.502835 1.12447
340 1 1.22013 8.38313 2.397 0.62318 -0.0377298 -1.4398
341 1 8.45282 1.08227 8.34839 0.501866 -1.13985 0.187939
342 1 5.31868 5.79505 2.57944 0.347737 0.0985391 0.364955
343 1 3.17894 5.54725 3.36201 0.490247 1.04968 0.96319
344 1 2.87004 8.40402 5.44269 0.0072049 -0.00833172 0.572963
345 1 4.48271 6.68465 6.14088 0.118622 1.03758 -0.877045
346 1 7.31721 4.15224 1.10294 0.344074 -0.485131 0.684749
347 1 2.95726 2.30914 9.1511 -0.239633 1.13306 -0.160014
348 1 7.29849 5.6465 7.09349 0.764919 -1.67578 -1.49162
349 1 6.08546 2.85886 7.98786 1.00698 0.100071 1.06333
350 1 4.61881 5.46327 4.70226 -0.0222152 0.24217 1.20101
351 1 8.82179 5.55877 1.90314 -0.411666 1.20219 0.0311168
352 1 1.28358 8.47253 6.34048 -0.125459 -0.0201747 -0.279015
353 1 1.45388 2.02799 3.15646 -0.713715 1.35348 0.904827
354 1 2.18409 7.16638 9.02531 -0.744724 0.102885 -0.188038
355 1 9.05364 6.15444 0.902595 -0.723317 1.05549 0.781683
356 1 6.51372 3.38418 7.21982 -0.597538 -0.496328 -0.578308
357 1 8.7021 0.482373 9.16992 -0.621963 -0.230711 -0.331872
358 1 6.92689 6.72713 5.93415 -0.597182 0.297711 -0.35561
359 1 3.95034 4.7762 7.55829 -1.46157 -0.067476 0.0054623
360 1 2.83219 4.27915 4.96818 1.4442 -0.18755 0.87482
361 1 3.78243 3.21112 4.15418 -0.734818 0.116636 0.551954
362 1 4.86721 3.56014 2.28677 1.21756 0.904111 0.93794
363 1 7.89221 5.9052 2.16078 -0.348555 0.149593 -0.650135
364 1 1.93014 3.75243 6.90345 0.492032 -0.735043 -1.4016
365 1 0.388305 1.78305 0.528822 0.255701 0.248049 0.746793
366 1 6.09686 6.95294 3.54003 0.396984 0.0584281 -0.351615
367 1 0.794928 4.45412 1.12962 0.871258 0.301396 -0.543886
368 1 2.92854 0.252606 5.19963 0.195725 0.583086 -0.106947
369 1 8.28899 3.84348 7.08392 -0.711625 1.02618 1.12763
370 1 5.51919 0.153032 8.42217 -0.080217 0.130872 -0.430705
371 1 2.11008 6.07201 5.69089 -0.640833 -0.786126 -0.346665
372 1 1.72794 3.86822 7.91053 0.666517 -0.573243 -0.468541
373 1 7.21757 8.39223 0.235712 -0.132483 0.592778 1.11056
374 1 7.81818 4.94793 5.91316 0.0142153 0.772957 1.16893
375 1 5.75752 6.52298 6.08358 -0.482359 0.151086 0.512338
376 1 2.89233 1.02541 7.57695 -1.03683 -0.263299 0.275735
377 1 2.34343 8.16171 8.4514 -0.524336 0.0531026 0.115736
378 1 6.6504 1.17788 1.66105 -1.69619 -1.57827 0.565273
379 1 6.66863 5.24679 4.68992 -0.475241 0.185192 -0.204349
380 1 6.00184 4.55165 5.56232 -0.990672 -1.49139 -0.540575
381 1 3.07645 9.05137 1.59311 0.119555 -0.507755 1.13632
382 1 6.98045 6.67182 4.09753 -0.12706 0.304742 0.958759
383 1 0.641507 9.24091 6.42534 0.507829 -0.251191 -1.44639
384 1 2.40653 0.385969 3.54599 -0.655845 0.338837 0.3146
385 1 4.95086 8.16948 9.08544 0.192311 1.09716 -0.299681
386 1 1.14786 3.10881 4.52544 -0.888406 1.21354 -0.0406735
387 1 8.94496 1.18781 5.22185 -0.551779 -0.189819 0.568275
388 1 7.73299 2.1114 0.489214 0.123111 0.593946 1.35523
389 1 5.61535 3.61307 5.0556 -0.541217 0.722407 -0.490269
390 1 2.52372 5.47723 2.53893 -0.436834 0.713307 -0.465828
391 1 5.90148 0.672471 9.23337 -0.385719 -1.00606 0.00765914
392 1 4.49601 1.06043 2.00284 1.43204 -0.418932 0.728357
393 1 1.24871 6.58855 8.643 -1.70522 -0.0186609 1.05461
394 1 8.06504 3.57225 1.43828 -1.48992 -0.326394 -0.037073
395 1 0.644443 0.110803 3.8147 -1.29626 -0.444716 -0.458788
396 1 3.75591 2.37816 3.2278 0.856612 0.44355 0.596671
397 1 6.30208 4.46892 1.0823 0.223609 -0.212192 0.931881
398 1 6.53964 4.91007 3.71054 -0.392475 0.0125547 0.115182
399 1 7.79955 1.89845 2.4677 0.141489 -0.498758 0.133687
400 1 0.757581 6.74603 2.8631 0.552297 -0.918637 0.114696
401 1 3.40229 1.91017 7.52408 1.03037 0.608048 -0.380283
402 1 0.563702 6.71939 1.03212 -0.183097 -0.490695 1.04143
403 1 2.20721 5.1157 0.359171 -0.686857 0.00835079 -0.136125
404 1 6.38343 5.80677 5.50748 0.153781 0.0365485 0.654532
405 1 4.45561 2.72187 6.18184 -0.423438 -0.0517819 0.708823
406 1 6.71955 9.3499 9.38733 -0.815174 -0.133734 -0.546789
407 1 6.92887 0.0290471 7.24861 1.32317 -0.225169 0.382484
408 1 0.279676 3.77936 1.92206 0.204863 -1.17903 -0.320717
409 1 4.76908 3.51023 5.56632 -0.92823 1.01304 -1.42433
410 1 1.09536 1.36726 5.9923 0.0718108 -1.38527 0.476976
411 1 6.78116 0.205608 4.67094 0.366679 1.32504 -0.208361
412 1 0.0328933 0.821986 4.15163 0.0649148 0.896651 0.0759467
413 1 0.568255 7.40912 1.8419 0.655419 -0.740137 -1.00749
414 1 8.07906 1.20247 0.0228365 -0.953961 -1.30156 -0.716126
415 1 9.05787 0.772646 1.61946 -1.46008 0.910487 -1.79239
416 1 8.7469 1.64133 2.11846 0.467415 0.2798 -1.5788
417 1 8.95285 5.4328 4.92327 0.756722 0.813535 -1.38716
418 1 4.06717 1.10969 4.50651 -0.646874 -0.425317 -0.156168
419 1 5.71708 2.71817 2.09339 -0.914593 0.583728 -1.63538
420 1 8.59576 2.12092 5.94481 0.866321 0.369754 1.00919
421 1 4.95246 6.49723 5.24928 0.670963 -0.657518 1.44329
422 1 0.191356 0.668781 5.93148 0.720548 0.342395 0.157465
423 1 1.66228 3.63679 2.49709 -0.0171093 -0.300134 0.889877
424 1 4.20065 7.44062 3.6549 -0.791715 0.0330282 1.00542
425 1 1.97572 2.53775 5.17635 -0.311104 0.451537 0.240837
426 1 6.13596 1.34595 6.7332 0.340842 0.758189 -0.376184
427 1 9.07067 3.49745 6.59934 -0.958288 0.91721 -0.0166853
428 1 1.85393 7.9023 7.11096 -0.775388 0.430292 -0.478609
429 1 6.83338 8.40534 1.41074 0.942733 -0.591994 -0.817371
430 1 5.12774 8.82547 6.41543 -1.5235 0.769188 -1.04514
431 1 8.4089 2.67163 7.23629 -0.811852 -0.126408 -0.108788
432 1 5.73892 7.00968 7.03333 -0.345335 0.0791257 0.27562
433 1 1.70914 7.05848 5.52768 0.453366 1.08534 0.27817
434 1 7.59843 8.68944 2.07904 -0.960067 -0.543242 -0.432701
435 1 1.3326 2.50756 2.27913 -0.0955721 0.526518 0.783018
436 1 9.30514 8.66535 0.171429 0.0843939 -0.0759419 0.306674
437 1 7.72661 8.22141 1.05544 1.38752 -0.0985636 -1.9768
438 1 9.04364 7.7716 8.81337 0.395717 -0.473784 0.635093
439 1 3.51936 7.97951 3.13326 0.393141 0.218032 0.0567925
440 1 8.10338 5.80916 3.13883 -0.148884 0.348626 1.14023
441 1 6.21165 2.74385 3.61034 0.388695 0.82856 -0.675952
442 1 5.28472 2.47215 5.54511 -1.00353 0.0790115 0.0863339
443 1 3.81726 7.52232 9.11162 -0.524674 -0.234923 0.157475
444 1 0.693805 6.84558 4.78613 0.829467 -1.58112 -0.425987
445 1 4.39551 2.11254 8.21973 0.287251 0.00281111 -0.440221
446 1 7.53559 3.20847 7.25522 -1.13986 -1.21984 -0.107541
447 1 2.12803 4.52416 2.33364 -0.640048 0.233199 -0.19194
448 1 7.01277 5.48117 8.0936 0.744911 -0.368292 0.172086
449 1 3.61661 0.774635 0.894473 0.00484758 0.938991 0.828542
450 1 3.69559 5.82127 0.0682033 0.743037 0.808145 -0.0907532
451 1 4.8783 8.20149 7.22483 0.746617 0.757715 -1.3091
452 1 4.49186 7.24414 7.03857 -0.898818 0.196047 0.591679
453 1 4.08901 8.41253 5.29185 -0.107715 0.463389 0.0739042
454 1 3.34382 8.79525 4.59383 -0.185423 -0.773221 0.856278
455 1 0.185751 6.08402 5.45291 0.455079 1.01688 -1.5205
456 1 8.25777 5.76555 6.70149 0.8839 -0.731886 -0.264815
457 1 4.63988 8.93478 0.323495 0.334132 0.739371 0.709025
458 1 3.46365 6.79775 3.85894 1.22389 -0.37911 -0.431041
459 1 8.77217 4.38364 1.78981 -1.01057 0.393464 0.392538
460 1 5.4452 3.37394 7.29279 -0.963181 0.714628 0.351772
461 1 9.22476 4.15297 2.79691 -0.312099 -0.99074 -0.491493
462 1 1.28824 8.12886 1.30692 0.0385195 1.14996 0.261832
463 1 4.11092 1.08514 0.0874067 0.235704 -0.109036 0.730171
464 1 0.0833795 3.1028 7.57266 -0.422306 1.45129 -1.32225
465 1 2.4214 8.6922 6.46999 -0.0951829 -0.579518 0.0101792
466 1 4.79654 0.999032 0.866288 1.66009 0.444581 -0.462389
467 1 4.70738 2.0336 0.584385 -0.938552 0.631551 1.20681
468 1 7.06963 8.83762 4.0142 -1.1815 -0.0570319 -0.000783921
469 1 7.8203 3.56318 4.44916 1.07881 -0.660527 0.26906
470 1 0.825494 2.78031 8.26358 0.266563 -1.00621 0.628875
471 1 4.1657 8.46943 6.44998 -0.158696 -0.00237126 -1.17429
472 1 8.05331 4.07191 5.33211 0.370535 -0.684995 -0.198096
473 1 6.80492 2.3943 8.56787 -0.326747 -0.198048 1.87691
474 1 1.28377 7.49807 3.52957 0.578639 1.19403 1.04434
475 1 3.4496 2.61472 8.30688 -0.221313 0.0605332 -1.20603
476 1 0.991465 0.97211 0.241919 0.592103 0.765869 -0.233261
477 1 1.26376 8.19708 8.03738 -1.35383 0.0244144 -0.629939
478 1 1.49882 0.947935 2.83531 0.235974 1.49566 -0.370794
479 1 1.22269 3.37127 1.64905 0.0924476 -0.0210965 1.20622
480 1 8.1158 8.91982 7.93979 1.83147 0.235516 -0.465873
481 1 2.65051 7.33157 0.938996 0.299267 -0.791613 1.63247
482 1 3.47432 5.77057 4.34516 0.300607 -0.206943 -0.129189
483 1 5.03933 6.8347 2.15541 0.450745 0.330694 -0.103498
484 1 6.83164 1.3828 8.27274 -0.0711772 0.992361 0.631808
485 1 6.26506 5.10155 0.187085 -0.674677 -0.548693 -0.122297
486 1 0.281767 2.12806 2.87652 0.38599 -0.194533 -0.848902
487 1 1.08139 4.65393 3.74888 0.399272 0.322118 1.19094
488 1 8.25 6.02693 4.33457 0.095744 -1.2322 0.162346
489 1 2.79979 0.688161 1.53724 0.381536 0.00136807 -0.600382
490 1 4.84745 7.31052 4.48747 -0.460168 -0.700409 -0.74316
491 1 6.88081 8.02036 2.42992 0.373678 0.695821 -1.29821
492 1 0.935262 8.36346 0.357272 -1.68916 -0.370511 -0.279961
493 1 7.00278 8.66124 8.65155 0.920501 -0.0707343 0.314312
494 1 7.24261 2.82248 3.84614 0.143596 0.972573 0.402256
495 1 3.17831 2.30259 1.521 0.285883 -0.322827 0.891833
496 1 2.3234 1.91812 4.42844 1.9154 -1.20465 -0.0338693
497 1 1.75605 9.15439 8.42448 -0.0610577 0.195733 -0.419689
498 1 8.41446 1.58519 1.12466 -0.384677 -0.386853 -0.146362
499 1 4.57902 2.95981 3.66267 1.29547 1.10243 -0.580041
500 1 4.7935 6.37609 1.16542 -0.121341 0.0240769 -0.821276
501 1 4.35637 5.56932 6.60682 -0.616361 1.83904 0.953153
502 1 0.682327 3.26091 2.69724 -1.16971 0.022043 0.418397
503 1 3.99426 6.11987 5.1859 0.00323392 1.05396 -0.448458
504 1 5.40035 7.546 1.48979 -0.00801775 -0.214094 -0.677409
505 1 6.97822 4.65826 8.71941 0.126258 0.180916 -1.10828
506 1 2.70576 5.35234 6.18282 -0.404169 0.404097 -0.151698
507 1 7.747 6.23956 8.57744 -0.315359 0.143247 0.389355
508 1 3.71767 7.47762 0.864036 -0.451959 0.0384712 0.346152
509 1 8.81526 2.06898 0.366743 0.276211 -0.893985 0.546801
510 1 3.70331 0.873555 2.72742 0.901817 0.402464 -0.226273
511 1 5.55749 3.20121 6.25084 -0.62261 0.403487 0.0940547
512 1 8.11778 6.85014 3.0749 0.936073 0.262176 -0.465406
513 1 2.22422 8.06586 3.36565 -0.134341 0.877565 -1.25924