ITEM: TIMESTEP
39350000
ITEM: NUMBER OF ATOMS
1000
ITEM: BOX BOUNDS pp pp pp
0.0000000000000000e+00 9.4000000000000004e+00
0.0000000000000000e+00 9.4000000000000004e+00
0.0000000000000000e+00 9.4000000000000004e+00
ITEM: ATOMS id type x y z vx vy vz
1 1 1.12713 5.18509 9.17139 1.47487 -0.142196 -0.0347246
2 1 6.83692 6.93319 0.344703 0.498709 0.905444 -1.11732
3 1 3.28222 2.64824 3.08689 -0.202146 -1.71733 -0.181665
4 1 6.37339 7.81423 8.37082 0.327666 -0.164021 0.970337
5 1 1.62287 8.5192 3.94744 1.68376 0.230273 -0.486255
6 1 7.0862 7.73911 7.36777 0.292754 0.158333 -0.404311
7 1 2.20451 0.689289 1.56803 1.0206 -2.14701 0.67935
8 1 4.70637 0.198869 7.13815 0.299079 0.960883 0.203867
9 1 2.22333 5.36322 5.85679 0.599971 1.34517 0.824244
10 1 1.20853 6.24458 9.0927 -0.769991 -0.261492 0.617183
11 1 7.53534 9.20365 5.03069 -0.457396 1.52681 -0.308186
12 1 8.93984 0.40878 0.33345 1.47398 -0.391094 -0.49606
13 1 1.67574 3.01758 1.20262 -1.02287 -0.999692 0.731419
14 1 3.75243 3.99201 3.95039 -0.949854 -0.473807 0.0910501
15 1 6.69012 2.44267 0.521306 0.761513 0.0652777 -0.221158
16 1 1.0652 1.22758 6.02951 -0.176448 0.872336 -0.290053
17 1 8.57446 3.10305 1.29904 -0.570701 -0.33846 -0.418455
18 1 5.57731 6.71773 8.17575 0.633953 0.7901 0.00229957
19 1 4.25608 4.56896 9.35685 -1.07376 0.371911 0.150742
20 1 7.74544 5.96855 6.69236 0.404749 -0.945389 -1.21645
21 1 8.25255 0.41909 2.9563 -0.252267 -0.230776 0.417844
22 1 2.60074 3.01957 7.73985 -0.295768 -0.293549 0.00424999
23 1 5.19579 1.84379 8.96273 -1.37918 -0.61268 -1.42929
24 1 2.98165 4.73527 6.24902 0.271426 0.52432 0.0965183
25 1 7.06273 1.46159 0.72061 0.241362 -0.493402 -0.867824
26 1 0.810494 3.99394 4.0739 0.915741 0.853942 1.90073
27 1 0.615865 7.31239 0.955784 0.776669 0.804381 0.0310487
28 1 3.83628 2.01915 2.23512 -0.853116 0.708991 0.203512
29 1 0.62637 5.29298 6.5493 0.107562 -0.712411 0.505293
30 1 0.0268839 3.6378 6.31428 0.552137 -0.470498 0.419511
31 1 2.77822 2.20073 2.21756 2.6418 -0.649914 0.312712
32 1 7.55349 6.1279 5.70622 -0.482715 -0.17672 -0.884842
33 1 2.22774 8.2806 8.55506 -0.810492 -0.524821 -0.287469
34 1 5.17708 0.338538 3.16938 -0.358856 0.847934 -0.160521
35 1 0.0451555 1.52882 1.71397 0.642462 0.0222295 1.71101
36 1 3.49437 9.32079 2.24909 -0.264526 0.162636 0.0901811
37 1 5.92064 9.03538 9.34827 0.773304 -0.699876 1.18505
38 1 1.04362 7.39779 2.63188 -0.0864893 -0.690101 0.761297
39 1 1.1705 7.94859 8.37761 0.117266 0.476305 -0.274106
40 1 7.65587 2.20581 0.0117203 0.440733 -1.02309 -0.751359
41 1 7.24505 7.0996 5.14284 -1.57535 -0.0659011 -0.651691
42 1 1.59226 1.64453 5.20684 -0.928012 0.0502164 -0.198116
43 1 1.3973 8.95449 8.38321 -0.335351 1.96278 0.041734
44 1 1.56343 3.37085 5.63511 -0.0387285 -0.171665 0.569502
45 1 5.69989 2.99885 4.27037 0.436373 -0.262474 -0.202427
46 1 2.72985 2.86246 4.03467 -0.0540919 -0.806887 -0.333913
47 1 1.98493 6.03316 0.344953 -0.124224 0.820241 -0.037971
48 1 6.04327 5.55865 2.55933 0.881825 -0.766185 0.457555
49 1 3.69155 4.44892 4.93665 0.277948 0.474885 0.15576
50 1 0.675579 7.70628 3.57058 -1.6714 -0.435506 -0.442591
51 1 1.00855 5.69918 2.79884 -0.683365 -2.04223 0.162353
52 1 3.14578 1.16061 1.92332 -0.316306 -0.850221 1.31608
53 1 3.28589 1.22394 3.84467 -1.28188 -0.436161 -0.54968
54 1 6.48122 6.90956 8.78954 0.49236 -1.02335 1.48364
55 1 1.2996 5.12439 7.50941 1.11437 1.38833 1.43698
56 1 1.71976 4.62938 8.39398 1.10382 0.8569 -0.25544
57 1 8.08831 6.84831 6.28281 -0.654525 0.587498 0.404845
58 1 7.89822 8.29628 9.37396 -0.0111259 0.481383 -0.746435
59 1 7.98242 8.5625 7.43792 1.01047 0.909959 -1.58156
60 1 2.88014 7.54096 3.55513 0.26307 -0.0798036 -1.81567
61 1 3.15907 1.58678 2.91903 -0.677049 0.275361 0.154879
62 1 0.510122 0.842449 0.938536 0.828739 -0.830675 1.551
63 1 6.85843 0.265235 7.00332 -0.144522 -0.423617 0.443515
64 1 7.84163 7.26552 0.277007 0.352331 0.846447 0.202577
65 1 0.752581 1.70625 4.58253 0.355738 -0.582676 0.431126
66 1 2.619 6.28503 5.25952 0.491234 0.294212 1.05966
67 1 2.40635 8.96387 2.26323 0.00791605 0.0682656 0.23064
68 1 4.93363 6.39919 0.40493 0.174291 0.152617 1.03223
69 1 5.56231 3.96457 3.11592 -0.492726 1.00881 -0.789823
70 1 7.16002 3.10576 3.11859 0.41143 0.18193 1.02993
71 1 7.95065 3.84528 0.610382 0.783383 -0.829541 -0.138741
72 1 5.967 8.50208 4.85323 -0.427196 0.0828943 -0.587182
73 1 2.49262 6.22979 6.32388 0.013548 -0.729682 -0.961914
74 1 6.27822 7.80987 4.09722 -0.0480458 -0.044272 0.0264649
75 1 6.87239 1.93549 7.96019 0.949662 -0.0583913 0.040011
76 1 6.95011 3.38422 0.891085 -0.182847 -0.228652 0.0669382
77 1 1.74753 3.1439 3.69805 1.06272 -0.0742298 1.34349
78 1 3.68941 7.4619 1.77546 0.509843 -0.579559 0.0493252
79 1 7.53927 0.890635 7.69559 1.11547 0.0267984 -1.86802
80 1 8.46345 7.52795 8.86606 -0.318151 -0.277083 -0.468768
81 1 3.70474 6.50113 5.65552 0.977224 0.161278 0.132381
82 1 5.63502 0.782474 4.10586 -1.07574 -0.531775 0.727438
83 1 3.94308 5.41294 5.1752 1.74707 0.245436 -0.094644
84 1 9.37675 7.0371 6.6642 -0.890236 0.45128 2.22597
85 1 2.05543 2.2585 0.46422 0.610567 0.402454 -0.367444
86 1 3.42407 4.06863 0.508319 0.459582 1.53126 -0.360693
87 1 6.52839 1.37729 4.62198 0.417645 -0.50387 0.0369806
88 1 9.33942 2.34603 8.11521 1.60685 -0.293097 -0.0620185
89 1 1.49746 4.07158 3.21119 -0.989758 0.842164 0.184871
90 1 7.84457 3.87299 2.19207 0.0671957 -1.47621 0.753618
91 1 8.45629 5.86631 5.21046 1.2192 -1.12713 -0.0470948
92 1 6.46001 6.05354 8.25429 -1.26678 -0.549222 -0.636595
93 1 3.19859 8.99864 5.33879 0.780422 -0.0461573 -0.750871
94 1 1.39904 8.79928 2.0245 0.418204 0.436657 -0.78398
95 1 2.03712 3.97177 2.29845 -0.511574 1.13764 -0.0901216
96 1 3.02761 0.17626 0.165987 -0.815731 -0.101203 -0.448877
97 1 2.06321 1.41229 2.39628 0.279525 0.116505 1.68889
98 1 5.50018 1.27492 3.20451 0.619286 0.167785 -1.12141
99 1 1.98075 9.23794 3.21854 -1.20188 0.150203 0.308279
100 1 6.54273 6.98937 3.34284 -0.170982 0.896117 -0.343118
101 1 4.20405 5.50935 3.10583 1.22183 1.09137 -1.07018
102 1 6.60125 0.367073 4.23574 -0.940143 -0.728965 0.326322
103 1 0.417825 9.23008 0.42216 -0.330565 -0.94665 0.348747
104 1 3.88981 9.0845 9.04971 -0.809041 0.268347 0.0874662
105 1 7.52798 8.38877 5.72046 -0.407549 1.26694 -0.268961
106 1 7.8388 1.87361 7.55297 0.776229 0.943579 -0.612185
107 1 8.00132 8.30623 1.67957 0.0301794 0.98772 -0.205881
108 1 0.00920356 1.11546 6.58481 -1.04628 -0.544215 0.452803
109 1 6.47369 4.01414 3.60408 -0.953496 2.27079 0.0352241
110 1 9.10892 6.0063 7.96227 -0.117075 1.19214 1.06825
111 1 4.10405 7.09532 9.31381 0.871357 0.505083 0.920947
112 1 5.86549 0.589597 8.76739 0.253319 -0.399238 -0.142853
113 1 3.83439 4.56985 7.85802 -0.431727 -0.161607 0.369384
114 1 2.6369 0.460426 2.64043 -0.703141 -1.48628 0.175903
115 1 4.88408 8.81452 5.11107 0.780733 0.447401 -0.391036
116 1 5.32952 3.9603 8.09605 -0.686337 0.171187 0.317095
117 1 8.95792 5.8008 0.551121 -0.391931 -0.543607 0.0113702
118 1 8.16673 2.87668 7.38483 -0.322014 -0.295536 0.596668
119 1 6.09523 7.42376 5.05379 -0.51142 -0.495044 0.0523394
120 1 3.41357 5.4316 2.22911 0.153913 0.181055 -1.08844
121 1 5.41994 7.21175 7.17639 -0.0672073 0.431034 -0.236867
122 1 1.60777 8.13964 9.37539 0.192451 0.590801 -0.384594
123 1 0.683647 8.55337 7.60693 0.447962 0.523479 -0.578759
124 1 5.8732 0.126137 4.92192 0.252228 0.506301 0.581655
125 1 5.82587 4.8753 6.09513 0.70691 0.579218 -0.630765
126 1 0.172885 5.09185 2.12798 0.469967 0.528201 0.0177014
127 1 2.22501 8.5235 4.86804 -0.533333 1.59102 -0.0489472
128 1 4.42157 7.6795 7.3175 0.562359 1.08597 -1.0666
129 1 3.7663 3.13216 0.99367 -0.378225 -0.618417 -0.0973781
130 1 4.15416 7.18879 6.42857 -0.0658901 0.140539 0.120944
131 1 9.23572 2.19752 4.58355 -0.398174 0.495978 -0.649092
132 1 7.5315 3.69265 4.11284 -0.334125 0.271072 0.777389
133 1 5.8289 7.70739 2.29741 1.38795 0.357103 0.191114
134 1 3.6708 7.77695 5.60989 -0.562165 -0.419561 -0.955446
135 1 4.81571 0.170687 4.40022 0.243611 0.898435 0.916992
136 1 1.44325 1.53011 7.39777 0.0555033 0.427004 0.319091
137 1 3.3116 5.00882 0.139019 -0.270706 0.606441 0.570723
138 1 6.58696 4.01851 7.73534 -0.536449 -0.100599 0.182393
139 1 9.26435 5.6014 4.47316 0.889182 0.939525 0.771612
140 1 2.83405 5.30003 4.91593 0.0938696 -0.310144 0.441737
141 1 4.17252 8.70044 6.98947 1.27695 -0.540345 -0.893684
142 1 1.04739 2.55449 0.438036 -0.714484 -0.504796 0.193958
143 1 3.88994 6.2208 0.421987 -0.132428 1.48246 2.00601
144 1 2.05867 4.37599 5.79217 0.710578 0.297668 0.0475633
145 1 6.10521 4.5178 8.51473 -0.747503 -0.151657 -0.377575
146 1 7.89309 1.66691 2.48 0.551562 1.70826 0.759633
147 1 3.40503 8.67043 6.24716 -1.5284 -0.34988 0.339901
148 1 4.50289 3.908 7.3283 0.444239 0.40205 0.379793
149 1 8.2191 6.39379 3.24712 0.357727 -0.370155 -0.295331
150 1 5.27133 9.25622 1.16119 -0.740562 -0.158808 -0.0588258
151 1 1.55019 7.74101 4.57264 -1.15726 0.35982 -0.292333
152 1 5.11077 7.04464 9.05472 2.36743 0.644378 -0.704201
153 1 0.67472 5.62581 0.657517 -0.613773 0.839571 -0.523915
154 1 6.75792 4.88175 9.29879 -0.681275 1.10897 -0.457122
155 1 6.88455 6.14108 1.9935 -0.273089 -1.31615 0.393674
156 1 4.50593 9.00297 2.65835 0.853691 -0.0166747 0.995152
157 1 5.64295 3.81076 6.03941 0.323277 -1.01394 -1.36737
158 1 4.58521 5.49142 9.37987 -0.902476 -0.423148 -0.137723
159 1 0.677533 7.05528 4.42726 -0.77143 -0.0832179 0.470519
160 1 6.33775 8.44817 6.54005 0.388861 1.15721 0.993351
161 1 0.536532 4.33947 0.033461 -0.239766 0.773022 -0.948555
162 1 0.340773 1.05981 9.2795 0.44326 -0.0284022 -0.329184
163 1 0.162048 4.68431 5.8191 -0.487327 0.16143 0.584922
164 1 5.3041 8.40383 2.99853 -0.286641 -0.141764 -0.0814535
165 1 8.10541 0.120781 1.67589 -0.0997189 -0.499017 0.809898
166 1 6.07652 6.77828 4.2879 -1.2468 0.574276 -0.617631
167 1 4.93781 7.50693 1.57692 0.644544 0.271604 0.531828
168 1 6.68199 5.08491 7.84245 -0.325226 0.862727 0.0845182
169 1 2.88474 5.11568 8.39948 -0.162323 -1.069 -0.423048
170 1 2.07626 1.32029 6.09316 -0.0125371 0.234952 -1.03433
171 1 9.29619 3.84488 3.56027 -0.489098 0.386289 -1.43797
172 1 2.51048 4.08624 9.00343 1.18288 0.828 -0.983505
173 1 7.63588 6.36156 9.24619 -0.323361 0.380821 -0.814738
174 1 9.00798 3.86054 5.32397 1.50292 0.528083 0.278391
175 1 6.52492 9.31687 2.06655 0.354029 0.0991485 0.0869004
176 1 1.3902 2.14232 6.54337 0.42875 0.258879 0.499409
177 1 4.9503 9.32894 8.65906 -0.350318 -0.559804 0.389394
178 1 8.33384 4.72891 5.46546 0.693597 -0.280632 -0.257789
179 1 5.18625 8.14219 4.21479 -0.471305 -1.31736 1.22016
180 1 0.0437287 0.152994 4.33378 0.132087 -0.380132 1.09221
181 1 6.2376 7.68425 0.841796 0.366641 -0.973515 -0.489121
182 1 3.82144 2.07119 5.50454 0.203327 0.447924 0.489938
183 1 1.82536 7.22235 6.62368 -0.344223 -1.18334 -0.460865
184 1 2.82872 1.73918 9.11651 -0.603105 -0.559074 -1.16679
185 1 2.98086 6.15033 8.07171 -0.195988 0.218801 -0.918538
186 1 2.7809 4.22432 5.08934 0.550334 0.088031 0.267793
187 1 3.40047 2.5074 8.36109 0.935369 -0.156859 -0.790388
188 1 3.73806 5.92232 1.39875 -0.0361896 0.630183 -0.499095
189 1 2.17791 4.02915 4.20625 0.413801 0.175182 1.27053
190 1 7.53812 5.45221 1.39183 0.981929 0.210479 0.513174
191 1 4.84889 5.86281 8.41636 -0.894579 -0.957935 0.694742
192 1 0.2751 5.28848 7.56724 0.276458 -0.344581 0.859234
193 1 2.95033 4.94774 7.36769 0.354846 0.141224 -0.629743
194 1 3.2907 3.36213 9.1105 0.952482 -0.561907 1.10599
195 1 8.69338 9.11603 3.77332 0.101883 -0.806903 -0.0707329
196 1 3.01356 0.908926 0.887284 0.12506 0.230749 -0.190213
197 1 1.32283 7.18702 5.68313 1.47342 -0.543447 0.000824161
198 1 2.34631 4.39145 0.652943 -0.153995 0.681133 -1.02656
199 1 0.723761 6.33562 6.32899 0.0572929 0.0329219 -0.0222592
200 1 3.12981 8.75818 7.40047 0.739506 0.00980114 0.247012
201 1 1.60891 7.06368 0.216828 0.186303 0.128457 0.745157
202 1 8.42594 1.74935 3.79465 1.21569 1.0356 -0.444506
203 1 4.11183 6.02632 7.68416 -1.77415 0.95223 0.0944036
204 1 3.67637 2.9608 6.46992 -0.214072 0.248394 1.03558
205 1 6.76484 7.65221 5.94011 -0.139549 0.103572 -0.247714
206 1 0.911141 2.46407 5.67107 -1.36413 -1.12735 0.972761
207 1 7.66197 2.66927 1.01036 -0.467189 -0.776962 1.67091
208 1 8.01489 3.78321 5.81055 -0.256963 1.01866 -0.994548
209 1 5.23639 1.98776 7.93646 -0.0890361 -0.759424 -0.00801295
210 1 1.61637 1.96146 9.03494 0.336508 0.66721 0.594527
211 1 0.0948437 2.89104 3.05542 0.627209 0.03713 -0.49236
212 1 4.98942 7.17008 2.61306 -0.807091 0.675416 0.610921
213 1 2.38245 1.68046 4.2966 0.438519 0.764883 0.723373
214 1 8.39301 2.95505 0.224563 1.31259 0.422268 0.00624522
215 1 2.66215 7.04639 4.45386 -0.127956 1.10914 0.0600824
216 1 4.82388 5.43028 6.55369 -1.97489 0.709136 -1.46359
217 1 7.3336 0.434632 0.729203 -0.00815877 0.0956093 -0.101797
218 1 5.63527 4.74937 1.73452 0.559392 -0.612771 -0.310065
219 1 6.20886 5.34102 0.632217 0.988614 0.191619 -0.394722
220 1 8.82166 1.16474 1.04178 0.769506 0.44085 -0.868927
221 1 8.49907 0.229061 4.81458 -0.483566 -0.273116 -0.49882
222 1 6.25177 4.56411 2.65105 -0.0225866 -0.845737 -0.265872
223 1 3.02409 9.33733 1.30778 0.526896 1.29214 -0.629374
224 1 7.55217 7.90605 2.75216 -0.137097 1.12936 0.379025
225 1 5.58003 5.84542 5.97517 0.979281 0.121544 -1.6102
226 1 0.24833 7.20592 1.94773 0.814316 -0.0729361 0.715428
227 1 5.22765 7.3397 0.664341 -0.164765 -0.222289 -0.152308
228 1 6.01308 3.56591 8.80634 -1.23908 -0.0747152 0.883068
229 1 0.791123 7.34993 9.11589 -0.433932 -0.388807 -1.53346
230 1 4.28192 2.27036 1.32187 -1.03531 -0.919085 0.981206
231 1 0.505689 6.61047 7.46789 -0.816012 -0.409322 0.877924
232 1 5.50948 5.00382 9.19661 -1.24026 -0.516689 1.20163
233 1 7.50964 6.79673 7.72133 0.547041 0.710937 -0.0495847
234 1 3.80407 8.07824 9.28315 -0.0734376 0.881539 1.00064
235 1 7.086 6.89571 6.66891 -0.629356 0.535684 0.0394568
236 1 9.3523 8.87919 8.33206 0.236436 0.47869 1.29109
237 1 7.73566 1.07211 1.49587 0.851915 0.0589019 0.279015
238 1 8.35148 8.51149 8.43794 -0.59921 -0.174625 -0.709005
239 1 4.52867 7.08139 5.49367 -1.13696 -0.776579 0.249813
240 1 4.65076 1.43106 5.41624 -0.121104 -0.665825 0.606402
241 1 2.51595 5.70712 2.48257 -0.535163 0.694989 -1.22726
242 1 8.44208 3.01491 4.97806 -0.187205 0.803617 0.0186101
243 1 2.18041 8.60954 1.27555 -0.101047 0.671976 -1.08082
244 1 5.8554 8.74901 8.25179 -0.519472 -0.00804865 -0.711736
245 1 6.34518 4.00158 1.78276 1.07894 0.0433887 0.464502
246 1 1.3117 6.54451 1.03906 -0.635259 0.0413495 0.192244
247 1 6.1281 2.88828 3.29719 -0.796287 -1.0637 0.267898
248 1 5.3176 7.94637 5.44268 -0.892588 0.681994 0.414633
249 1 3.44385 4.31571 8.76246 -0.500669 0.971063 -1.62212
250 1 5.0282 6.69174 6.40282 0.882558 1.17299 -0.046182
251 1 7.24716 1.36789 6.70368 -0.304435 -0.337896 0.070089
252 1 1.53149 2.55504 4.74789 -0.457228 -0.0591835 -1.69123
253 1 0.257157 5.78184 5.54945 -0.603988 0.988037 0.411746
254 1 7.23557 1.89281 1.67879 -0.0844715 -0.17595 -0.126376
255 1 5.26813 2.93559 9.1434 0.539593 -0.13534 -1.08159
256 1 1.89264 3.50618 8.35164 -0.749899 -0.627346 -1.40968
257 1 5.33014 0.342507 0.31939 0.579043 0.881824 -0.48714
258 1 2.19224 0.926471 3.37856 0.298316 -0.167272 -0.160122
259 1 2.9375 5.8434 9.12372 -0.0578485 -0.185709 0.120424
260 1 3.35791 2.48794 7.33467 0.595202 -0.0910855 0.431203
261 1 6.90869 3.86931 9.34563 -0.154241 -0.871341 1.11999
262 1 5.15511 8.43476 1.87931 0.250173 -0.721078 1.32162
263 1 4.61124 4.57052 3.51228 0.240087 -0.444527 -0.544102
264 1 6.3147 5.37774 5.20616 0.309411 -1.02076 1.55132
265 1 5.43431 4.04979 4.14374 -0.550428 -0.11046 -0.00462523
266 1 6.79047 7.33215 2.39263 0.52989 0.422374 1.72125
267 1 4.76947 1.57649 2.35219 0.111928 -0.566692 -0.0674964
268 1 6.00343 0.494689 5.947 0.669723 -0.761269 -0.432598
269 1 4.67383 4.48322 1.6575 -0.280864 0.276632 -0.0648658
270 1 7.62887 8.81397 3.41013 0.631206 0.659505 0.396897
271 1 6.65387 5.91822 9.25937 0.559521 -0.0108743 -0.991212
272 1 8.73516 0.724775 3.90595 -0.926671 0.400105 0.784041
273 1 8.98749 1.92283 2.8632 -0.213216 -0.18362 -0.587218
274 1 6.50553 7.00291 7.71516 0.67681 -0.36986 0.745069
275 1 3.59856 7.05948 4.76714 0.932834 0.991783 -0.72347
276 1 9.13402 6.08815 3.52643 -0.72723 -0.576995 0.490419
277 1 3.61011 0.592428 2.96493 -0.228036 0.43409 0.599966
278 1 2.23126 5.73414 7.42497 -0.245969 1.01451 -0.51637
279 1 2.69411 8.63923 3.84443 1.25437 -0.94198 -0.175678
280 1 3.93364 1.94081 3.61774 -0.242633 0.60562 -0.0384104
281 1 6.48945 8.05338 3.10975 0.904006 0.180737 -0.0859433
282 1 8.45134 8.43593 2.85924 0.427679 0.785524 -1.13988
283 1 0.0537403 8.18465 2.69337 0.979854 -0.825524 0.542094
284 1 7.36277 7.78405 3.76114 -0.20663 0.799536 0.10582
285 1 6.0992 9.02488 3.03062 0.390213 -0.175282 0.916109
286 1 0.75364 1.69816 8.49651 -0.123299 0.636257 -0.842111
287 1 3.48039 7.84695 6.83227 0.743388 -0.743216 1.05419
288 1 3.76665 0.599556 8.72608 -0.361919 -0.488725 -0.324663
289 1 7.71972 1.33362 5.80894 -1.57655 -0.78157 0.789907
290 1 2.14632 7.30503 8.14389 -1.39626 1.36286 -0.923472
291 1 4.45595 3.98779 0.792999 1.5608 -0.140897 1.26402
292 1 0.296024 8.1576 5.5277 -0.85499 0.345326 1.3514
293 1 2.14891 0.0377485 4.38371 -0.25131 0.401014 0.245585
294 1 8.51822 5.39798 7.17121 2.20662 0.682915 -0.0103991
295 1 7.71261 4.75028 7.55198 0.816524 0.00322344 0.786099
296 1 5.94656 6.35481 0.607755 0.556469 -1.35657 1.31252
297 1 4.68998 3.7594 2.40353 -0.06368 -0.0862245 0.0252187
298 1 4.11196 6.18423 6.6586 -0.332145 0.799465 0.959889
299 1 5.6369 7.49126 3.37575 -0.445241 0.31033 -0.304436
300 1 7.91497 2.73872 2.19876 -1.57094 -1.09925 0.0457105
301 1 0.891445 0.718068 6.904 -1.67364 -0.264629 0.257235
302 1 8.11332 0.00753483 5.88919 -0.572024 -0.463369 0.855065
303 1 1.31978 8.66685 0.791499 -0.0169129 0.435086 0.667485
304 1 7.14883 5.10855 2.49551 0.543712 0.626628 1.13625
305 1 4.76995 1.22191 0.563092 0.670409 0.474635 0.996042
306 1 6.77188 8.79474 3.96887 -1.30636 0.436605 -0.990162
307 1 7.02668 8.95116 0.128883 -0.341765 -0.0805895 -0.355485
308 1 7.85855 0.168944 7.03282 1.25948 -0.0744566 0.240971
309 1 0.20469 5.63665 9.07311 0.115273 0.774542 -0.429396
310 1 4.81666 4.34131 6.40646 1.29372 -0.633115 0.650166
311 1 8.06661 7.20131 1.33857 0.0667494 -0.882173 2.19521
312 1 3.14571 4.89842 1.1493 -0.296392 1.22126 -0.560852
313 1 6.67982 0.98794 1.59002 1.22718 -0.18958 0.469373
314 1 7.24416 4.20448 3.02302 -0.34225 -0.73531 0.281594
315 1 3.26597 5.62241 6.03439 -0.28464 0.59987 0.23471
316 1 1.7953 5.25787 4.91444 0.229875 0.329919 0.248479
317 1 8.81573 2.07548 7.14994 0.0319715 -0.820858 0.176306
318 1 8.50245 6.56114 7.21292 -0.490139 -0.762576 -1.36033
319 1 5.57937 8.84297 5.94108 -1.03323 -0.383879 0.098158
320 1 5.56902 4.44313 5.11027 -1.30395 0.0700277 -1.08126
321 1 0.570628 2.12641 2.41182 -1.0969 1.40645 0.0105028
322 1 1.40732 6.5463 3.83561 -0.510387 -0.532223 -0.631347
323 1 3.73114 7.97392 3.89499 -0.452638 -0.674463 -0.229935
324 1 3.24159 3.78669 5.92727 0.0928455 2.10022 -0.276338
325 1 4.06027 4.63081 2.52376 -0.44087 -0.537284 0.690391
326 1 8.69726 1.97541 5.51872 0.113203 0.998808 -0.194475
327 1 4.01636 1.66455 8.79683 0.186468 0.435315 0.648908
328 1 6.82887 2.86197 8.99154 0.694636 -0.146156 -2.25092
329 1 8.52609 2.12416 8.8531 -0.522074 -0.0107844 0.831033
330 1 4.04085 9.1531 7.9637 0.882996 -0.246894 0.126253
331 1 4.01429 1.37775 4.61149 0.593944 -0.325467 0.146747
332 1 3.4945 1.1693 5.74524 -0.621642 -0.48273 0.604736
333 1 8.11958 4.88224 1.98521 -0.854156 -1.05473 -0.261771
334 1 0.782126 7.81908 6.43559 -0.162395 0.697072 -0.598836
335 1 7.53507 1.1591 3.3193 1.32939 -0.753369 0.758326
336 1 0.961002 5.94026 4.73918 0.627987 0.384097 0.892332
337 1 5.95121 5.34491 7.03062 0.669686 -1.24143 0.275833
338 1 9.36109 0.636846 8.30794 0.264699 -0.0305916 2.09918
339 1 9.1103 4.6598 6.80876 -0.198188 0.275549 -1.09428
340 1 2.87737 0.216822 3.68707 0.469318 -0.658276 0.423627
341 1 9.04752 8.67194 7.27462 -0.695263 -0.584778 0.170519
342 1 7.87646 5.93052 2.28482 0.0374535 1.04617 0.453924
343 1 4.49075 5.53597 2.02102 0.0950805 -1.56528 0.999332
344 1 0.503399 0.331533 6.01533 0.480166 0.148442 0.0241991
345 1 5.82944 7.39033 6.21518 0.626243 0.538412 0.524796
346 1 7.51934 5.40929 0.26314 0.0381792 -0.248832 -0.911749
347 1 5.7167 3.44724 7.00615 -0.0594684 -0.224162 0.142719
348 1 7.33517 4.03356 6.88636 1.1257 -0.317254 -1.19467
349 1 7.82176 3.49128 8.84618 0.718537 -0.908866 0.282231
350 1 3.02181 2.73708 5.63823 0.508022 1.12053 0.591759
351 1 7.72063 6.92921 2.34013 0.0588465 1.32506 0.259183
352 1 0.19313 8.76029 6.35891 0.478425 -0.742783 -0.442971
353 1 9.3691 2.83936 5.49135 0.138242 0.11284 -0.252322
354 1 1.19769 7.54056 7.42416 -0.343758 -0.911805 -0.907591
355 1 1.10206 5.48511 1.71352 -0.890763 -0.503946 -0.768692
356 1 4.30118 0.920332 6.37753 0.448996 -0.346079 -0.5008
357 1 0.725644 2.86562 8.70489 1.1672 0.821308 1.28433
358 1 5.09632 7.03368 4.58499 -1.72706 -0.668579 -0.707237
359 1 3.66175 6.91674 7.3296 0.705981 0.151765 -0.527592
360 1 3.76273 3.95378 1.67597 -0.298859 -0.266434 1.11118
361 1 4.95694 1.65484 4.34098 1.05423 0.982257 0.0378885
362 1 4.07198 1.13415 1.47807 0.0435153 -0.978737 -1.25423
363 1 7.37233 4.31255 1.30822 0.499108 0.12407 -0.25711
364 1 2.64641 4.1584 7.95444 0.609469 -0.783245 -0.209045
365 1 0.626519 2.49185 1.45934 2.32595 0.785292 -0.21319
366 1 6.16507 8.5355 1.44768 0.311256 0.656527 0.315851
367 1 1.64092 4.04163 1.3214 -0.512976 0.0704697 0.31252
368 1 2.80939 1.72239 5.36003 0.132502 0.778231 -0.277184
369 1 8.65985 6.61466 9.39787 -0.577287 0.519082 0.0346706
370 1 8.52474 0.0508461 8.80355 -0.139886 0.607608 -0.36928
371 1 3.09651 5.67193 3.46455 0.508941 -0.0552499 -0.203451
372 1 4.43173 2.6073 8.63972 0.0173071 -0.297883 0.705952
373 1 5.89748 7.0576 1.5391 0.413394 -0.519369 -1.27791
374 1 8.86153 7.53715 5.96213 -0.412467 0.791804 0.160385
375 1 4.68722 5.16879 7.56355 1.25999 0.639048 -0.418229
376 1 2.4435 9.24771 8.12177 -0.136049 -0.00974513 0.851623
377 1 2.58404 8.1583 6.70116 0.804712 -0.31446 -0.780441
378 1 5.84203 1.00926 0.833819 -0.546844 2.05211 0.35197
379 1 6.58912 2.34109 5.11004 0.0559718 -0.126077 -0.140154
380 1 5.47052 4.47097 7.18428 0.886891 0.410325 -0.218576
381 1 4.21397 0.0491011 1.41468 -0.724127 -0.745134 0.337888
382 1 5.338 5.74305 4.95183 -0.317001 -0.0687189 -0.0698082
383 1 0.175861 7.72456 7.42171 -0.754442 -0.284916 -0.626361
384 1 3.72234 8.99286 3.40635 -0.0843135 -0.391201 0.360639
385 1 4.77627 8.01375 9.34775 0.173568 -0.332076 -0.482184
386 1 8.74521 5.39049 6.08424 0.124627 1.12949 0.813746
387 1 0.378474 1.94738 3.47282 -1.49619 -0.372339 -1.34027
388 1 6.56555 0.748517 0.0865293 0.62666 -0.310184 -0.677746
389 1 6.95591 2.43468 6.04668 -0.28642 0.405525 0.342328
390 1 2.46828 5.04259 4.00472 1.37035 -0.175207 -0.856716
391 1 6.82552 1.08171 8.48647 -0.651799 -0.511223 -1.10594
392 1 3.35665 2.45163 0.233564 0.179864 -0.00785993 -1.13651
393 1 2.3196 4.90507 1.83962 -0.149414 0.0190938 -1.47486
394 1 8.68407 5.61662 1.55313 0.101251 -1.02529 0.352028
395 1 0.661985 0.201475 8.84391 -0.0719498 -0.147493 -0.168991
396 1 2.26948 1.99759 3.24398 -0.208831 1.08943 -0.0466725
397 1 6.4193 4.32354 0.809196 0.511723 0.296499 0.158867
398 1 8.98777 4.47087 2.68651 -0.627379 -0.586111 -0.339106
399 1 6.94399 2.17501 3.41064 -0.663958 0.87821 0.707846
400 1 3.77518 7.33135 2.91932 -1.17042 -0.98127 0.259021
401 1 4.11325 1.95231 7.79182 -1.1713 -0.998357 0.123416
402 1 1.4946 4.96377 0.889319 0.984009 -0.0368878 -0.575477
403 1 3.73308 3.74165 2.92067 -0.37374 -0.724059 -0.663848
404 1 0.865948 5.85011 8.20194 0.636178 0.210446 -0.522976
405 1 4.69246 4.00451 5.4885 -0.506588 -0.567214 0.780231
406 1 8.0793 9.25822 0.29805 -0.0448582 0.571057 0.926247
407 1 5.70571 9.15028 6.97271 0.00415546 -0.0627141 1.11909
408 1 1.63174 3.21487 9.2415 -0.452039 0.208526 0.512621
409 1 3.36366 2.29024 4.64793 0.549398 -0.588788 0.932382
410 1 0.653999 2.26278 7.28733 -0.00892835 0.155992 -0.0755141
411 1 4.60305 7.68636 3.54419 0.551206 -0.401128 -2.15814
412 1 1.08097 0.0129148 4.10319 -1.21318 0.337926 -1.00119
413 1 1.92562 6.84585 1.93874 1.01502 1.24389 -0.876079
414 1 6.34681 1.81201 9.13835 -0.122245 0.516565 0.112878
415 1 8.60639 1.06077 8.96864 1.44493 -0.0608573 -1.20532
416 1 0.255353 1.85688 0.75006 1.3627 -0.0387355 0.367332
417 1 9.26233 4.4179 4.45007 1.43953 -0.490692 -1.33094
418 1 3.13462 1.94295 6.35389 -0.208656 0.793327 -0.282007
419 1 7.02734 3.30817 2.07431 0.634483 -0.650001 0.481163
420 1 0.601011 4.96039 4.90966 0.22965 -0.418064 -0.0329002
421 1 6.071 5.76551 4.14369 0.630339 0.0994224 -0.738658
422 1 8.73418 2.88362 6.36624 1.2384 -0.616813 1.03069
423 1 9.30883 3.32484 4.45517 -0.0923647 0.179979 -1.0875
424 1 4.40396 8.02857 2.37351 -0.491959 1.26408 -1.48812
425 1 1.67598 3.84898 6.52274 -0.836025 0.048423 -1.38235
426 1 4.73642 1.3971 7.15434 1.26364 -0.982539 0.282814
427 1 8.34528 3.87194 6.96511 -1.21253 0.582211 0.480633
428 1 2.8374 7.26877 6.25509 0.29919 1.01052 -0.464582
429 1 5.46812 9.38479 2.20027 0.405091 0.265399 0.329599
430 1 6.33324 4.66389 4.42172 -0.368528 -0.163506 0.127507
431 1 8.01351 2.06498 6.43108 0.680384 -1.66816 0.611037
432 1 5.20164 0.787922 7.98402 0.586594 -0.253433 0.627589
433 1 3.09334 8.03805 4.83984 -0.462238 -0.146783 0.17131
434 1 7.4133 7.30684 8.62629 0.715244 -0.290881 0.400595
435 1 1.54167 4.27739 0.0132588 0.573326 0.581917 0.345549
436 1 0.355823 6.30575 1.38254 1.40579 0.16446 -0.47757
437 1 7.01503 6.94772 1.41882 0.69134 -1.12938 1.09658
438 1 1.56536 7.67949 1.06073 0.495121 0.747251 0.0112824
439 1 2.25219 8.27101 3.04535 0.899742 -0.650347 0.577589
440 1 5.92909 6.62309 2.46559 0.224028 0.415023 1.01293
441 1 5.4733 2.25629 2.76051 -0.104677 0.211239 -0.0452915
442 1 6.35128 3.6458 4.7771 0.0765357 -0.0116841 0.676048
443 1 2.04114 5.88356 1.49681 -0.526861 -0.853073 -0.160667
444 1 8.47307 6.46043 4.21926 0.141564 -0.301724 -0.805024
445 1 5.68166 2.08857 0.479997 0.0725935 -0.313828 0.016319
446 1 8.72509 0.917505 5.72823 -0.560192 0.291921 -0.0313502
447 1 1.32321 4.7889 2.44919 -0.501131 -0.844649 0.671053
448 1 0.61446 8.4947 9.20423 -0.539941 -0.917342 -1.43845
449 1 2.64971 3.91769 6.97527 0.382495 0.0216731 0.198611
450 1 3.82376 5.23523 6.8646 0.640235 -0.62786 -0.0105864
451 1 5.24335 7.74626 8.11122 -1.32022 0.652336 -1.13292
452 1 4.43162 8.39153 8.47297 0.0913427 0.0886584 -0.839925
453 1 2.66135 0.945791 6.81271 -0.497903 -0.095143 0.357704
454 1 3.21673 8.47691 8.37943 0.448833 -0.948654 -0.268361
455 1 8.31029 5.01169 4.42829 0.157335 0.126126 0.821446
456 1 8.29971 4.01902 4.67082 0.559085 0.674376 1.11775
457 1 6.69874 9.32346 8.55363 -1.22761 1.49299 1.07153
458 1 2.5234 6.54695 3.4579 -1.18884 0.0657321 -0.845217
459 1 9.05247 3.93729 0.58835 -1.02897 0.648733 -0.38405
460 1 7.15012 2.36253 7.02479 0.737743 -0.173229 0.67227
461 1 8.65439 4.17701 1.46796 0.291843 0.797527 -0.45172
462 1 3.47268 7.53432 0.746668 -1.24124 1.25358 -0.813019
463 1 4.5386 2.21083 0.240469 -1.0061 -0.354521 -1.03307
464 1 9.39127 4.14135 7.69478 0.226121 -0.95497 -1.23238
465 1 1.93946 8.36305 7.57075 -2.33565 -1.75627 0.0907409
466 1 3.26145 1.4173 8.15348 -0.0412904 -0.856526 0.807039
467 1 6.45643 1.18636 3.52262 -1.07454 -0.394641 -0.544453
468 1 9.22102 7.55996 4.89529 -0.52603 0.518883 0.00874871
469 1 7.3393 0.868139 4.87374 -0.372161 0.998627 0.897195
470 1 9.34613 3.04638 7.22669 0.0838811 0.149043 1.04815
471 1 4.50275 8.22965 5.97301 -0.0343595 -0.280368 -0.498202
472 1 7.83055 2.7046 4.22246 -0.246988 0.238441 0.543949
473 1 5.00285 2.90788 0.83665 0.494086 0.819281 -0.756717
474 1 8.68255 1.01262 2.19417 -0.00108002 0.145382 -0.823577
475 1 2.34199 1.93812 8.10946 -1.24934 -0.311107 -0.159106
476 1 0.21886 1.33658 7.53131 -0.261305 -0.823158 0.170034
477 1 3.35016 1.94008 1.30636 -1.23231 -0.83454 0.549218
478 1 3.67966 8.79864 0.612449 -0.29147 0.666581 -0.694502
479 1 1.15673 2.71538 3.03321 0.0814235 0.496041 -0.104342
480 1 6.81632 2.99036 7.9131 0.385881 0.426876 0.284622
481 1 2.93565 6.49415 1.79578 0.397319 -0.622982 -1.21397
482 1 1.43402 6.12074 5.60862 -0.068178 -1.46095 -0.428118
483 1 4.30329 6.30776 4.64163 0.420426 -0.918729 0.308437
484 1 4.97692 0.333671 5.52282 0.177486 -1.09805 1.03649
485 1 4.77954 4.81977 8.46718 1.45501 0.174022 0.0451302
486 1 8.76844 2.72273 3.74769 0.809715 1.28406 0.254838
487 1 8.75968 5.52621 2.6656 -1.04865 0.465637 0.24449
488 1 7.42277 6.75264 4.0222 0.71302 0.179808 0.394292
489 1 1.22736 1.49827 0.604308 0.335915 0.520912 1.55989
490 1 4.26182 7.86253 4.77603 0.732699 -1.53463 0.445891
491 1 7.6964 0.286002 4.03929 -1.32174 -0.452952 0.278246
492 1 8.93976 6.34776 5.95167 0.73304 -0.612292 -0.158725
493 1 5.99397 1.35824 7.87309 0.209362 -0.017589 0.405278
494 1 7.40674 1.78363 4.21532 -0.694117 -0.256721 -1.6918
495 1 4.62607 3.46939 3.44534 -1.42192 0.103123 -0.123077
496 1 2.33075 1.99032 7.03386 -0.249411 -0.11704 0.266922
497 1 1.28561 0.49695 0.2623 -0.053818 -0.140689 -0.181173
498 1 8.78144 8.9263 0.889667 0.973557 0.799331 0.58302
499 1 3.81516 2.94682 3.96113 -0.426442 -0.571314 1.08638
500 1 5.66978 6.05841 9.03352 0.481465 0.655092 -0.444688
501 1 5.29726 8.12249 6.7116 -0.374425 0.137435 -0.749537
502 1 0.444647 3.84683 2.61738 -0.499491 -0.0348348 0.668604
503 1 4.60019 6.067 5.66709 -0.116687 -0.251268 -0.503453
504 1 5.1361 0.82724 1.61401 -0.306321 -0.716169 0.435768
505 1 7.27264 5.50866 8.63169 -0.205726 -0.68013 0.684168
506 1 2.26629 7.66166 5.41265 -0.455553 0.338048 0.316039
507 1 7.5481 0.521488 9.03003 0.880292 -0.136715 1.07875
508 1 2.68384 7.66777 1.37579 -0.38451 0.260711 0.747883
509 1 8.53827 1.24853 7.91712 -0.556806 0.674277 0.49962
510 1 0.84499 0.799408 5.04475 0.101975 0.249493 0.238697
511 1 7.41141 5.27674 5.02173 0.0908301 0.198493 -0.165591
512 1 9.12481 7.11627 2.88452 1.66358 -0.54529 -0.996777
513 1 1.78956 7.45253 3.61778 0.330246 0.0254194 0.869674
514 1 8.32745 6.89942 5.2587 0.378117 -0.38074 1.3221