ITEM: TIMESTEP
35280000
ITEM: NUMBER OF ATOMS
1000
ITEM: BOX BOUNDS pp pp pp
0.0000000000000000e+00 9.4000000000000004e+00
0.0000000000000000e+00 9.4000000000000004e+00
0.0000000000000000e+00 9.4000000000000004e+00
ITEM: ATOMS id type x y z vx vy vz
1 1 0.660384 4.53989 9.34494 0.245484 1.40243 0.440862
2 1 7.58763 6.69336 0.779246 -0.701462 0.0705868 -0.000834993
3 1 3.44767 3.03274 2.69357 0.426206 -0.976533 -1.40733
4 1 7.95315 8.49807 7.97503 0.767584 0.338606 -1.35229
5 1 1.38472 9.39342 3.2731 -0.897492 0.104233 -0.167495
6 1 6.31478 7.83643 8.62249 0.279774 0.301949 0.314362
7 1 1.42969 8.10959 0.61114 -1.46331 0.048814 0.0379758
8 1 4.14158 0.879612 7.03232 0.826932 0.9997 -0.115001
9 1 2.45296 5.74846 6.0896 -0.352053 -0.970112 0.329839
10 1 0.811338 7.15308 9.1152 -1.12364 1.36831 -0.460064
11 1 7.22045 1.06309 4.37638 -0.387476 0.702582 0.139738
12 1 0.821299 1.40007 1.8974 0.0291565 -0.343883 -0.107538
13 1 1.73483 1.79803 0.989486 -0.0208139 -0.984915 1.19659
14 1 3.41192 5.73795 3.21231 -0.336665 0.00835152 1.0138
15 1 5.73632 3.43455 0.738424 -0.0929546 0.515292 -0.522188
16 1 0.814157 1.58333 5.69021 -0.150664 -0.481434 0.758197
17 1 8.45138 2.72849 1.25176 -0.174595 0.0667738 0.805091
18 1 6.59476 6.76882 8.83881 0.940119 -0.939433 -1.40757
19 1 4.31348 3.65991 8.6318 0.185834 -0.182327 -0.545237
20 1 6.31171 4.7012 6.9238 -0.0341282 -0.610729 1.20766
21 1 8.24465 1.37111 4.27988 -0.378318 0.427675 -0.882098
22 1 2.67739 2.25958 5.31988 1.35851 -0.469286 0.865344
23 1 4.77158 1.5974 8.3826 0.561282 -0.0840989 0.487152
24 1 2.58256 3.52174 7.37382 0.154118 -0.180196 0.764357
25 1 7.20372 0.610694 8.15092 1.03619 -0.942697 0.745458
26 1 0.490001 4.31244 2.63243 -0.136517 -0.247539 0.0209618
27 1 0.0972973 7.87964 2.38251 0.45814 0.0205891 1.30127
28 1 4.44332 3.33242 2.45127 -0.51588 0.40077 -0.216368
29 1 1.18704 4.61254 5.99887 -0.938622 -0.222391 -0.11236
30 1 9.36856 2.99909 6.75833 0.279822 -0.597301 -0.697069
31 1 2.79923 3.29576 1.52992 -0.812224 0.178827 -1.13692
32 1 7.5059 5.69402 6.06687 -0.508976 1.52941 -1.07168
33 1 2.03918 9.28069 8.85377 -0.762878 1.46826 0.475293
34 1 6.56864 0.728412 3.5695 -0.595032 0.444839 -0.703044
35 1 0.327121 0.646832 3.21726 -0.538442 1.6281 -0.87165
36 1 4.27006 7.39568 3.45534 -0.00482965 0.594551 0.135388
37 1 6.20774 8.39247 1.13462 0.248892 0.901081 0.260739
38 1 1.32021 6.69607 3.31629 0.237016 -0.106001 -1.2539
39 1 1.02196 9.17746 8.23644 -0.118085 0.171468 0.813583
40 1 6.81206 1.75496 0.331798 -0.669217 0.0349789 0.849759
41 1 7.69772 6.73441 5.71899 0.359914 0.760645 -0.340834
42 1 0.91937 0.559165 4.12263 -0.813515 -0.631282 0.670897
43 1 1.01811 0.808488 8.62047 0.657452 -0.885357 -0.311554
44 1 1.96824 2.99073 5.32592 -0.465049 -0.171053 -0.336678
45 1 4.40136 2.51513 4.15201 0.432612 0.633042 0.040566
46 1 3.07359 3.56421 3.64113 -0.0209766 0.95725 1.10093
47 1 1.64528 6.43693 8.96803 1.18766 0.444351 -0.394136
48 1 6.20635 5.18468 3.5901 0.21318 0.491025 0.348388
49 1 3.88442 4.3432 5.99568 0.191932 0.411141 -0.785158
50 1 1.78982 8.46959 2.50843 -0.152608 0.918659 -0.197048
51 1 0.612726 5.44171 3.83649 0.63325 -1.4412 -1.45068
52 1 3.71189 1.3125 1.67506 -0.554525 -0.493686 0.167434
53 1 3.4357 1.02856 4.46181 1.35409 -0.0912392 -0.390554
54 1 7.26758 7.46583 8.32871 0.555373 -0.673618 0.918377
55 1 0.583677 5.54718 7.15057 -1.1102 -0.365091 -0.540967
56 1 1.98463 4.32038 0.0164297 -0.0702487 1.03359 -0.776532
57 1 8.30305 7.76074 7.06367 -0.404826 -0.804391 0.0953926
58 1 9.10219 7.33742 8.99751 -0.358048 0.272059 -0.927391
59 1 7.77912 8.60875 6.52911 0.1157 0.568991 0.727901
60 1 1.23177 7.79171 3.06331 -0.23464 -0.471312 0.804586
61 1 3.5505 1.96686 2.52397 -0.971854 1.24653 0.0413451
62 1 0.736172 8.89839 0.667883 0.0579656 0.417526 -0.495006
63 1 6.46208 9.36632 7.64512 -0.147095 -0.76404 -0.362183
64 1 8.3677 7.2397 0.227421 -0.0570655 -0.530516 0.37071
65 1 7.86922 0.819714 5.10412 -0.106458 2.08335 0.0196644
66 1 2.60582 6.30988 7.12521 0.107483 0.812305 -0.117679
67 1 3.58348 8.36229 1.94871 -0.142984 -0.795861 -0.160994
68 1 4.78185 5.94583 0.660155 0.403764 0.755479 -0.393247
69 1 5.82565 4.04511 3.59479 0.160605 0.442308 0.115227
70 1 7.4332 3.57227 3.75462 -1.08965 -0.36676 0.159444
71 1 7.78974 3.41709 0.682614 -1.4646 0.103768 -0.457737
72 1 7.06303 0.228678 5.28331 -0.460392 0.59779 0.841776
73 1 3.38984 6.79812 6.83683 -0.688417 0.612147 -0.40835
74 1 7.18888 0.0645663 4.17733 -0.345755 0.305919 -0.85035
75 1 6.83891 1.46008 7.59432 -0.459304 0.0403247 -0.143755
76 1 6.73104 3.18221 1.05967 0.455594 1.02382 -1.44031
77 1 2.22228 2.82466 3.60128 -0.368807 0.661722 0.657491
78 1 3.74908 5.97393 1.24773 -0.0644824 -0.414188 0.131499
79 1 5.38977 9.30226 8.98792 -0.181477 -0.619439 -0.252138
80 1 9.38158 5.94254 7.97176 0.819953 -0.317139 -1.30714
81 1 3.96101 8.01621 5.13219 -0.388595 0.236903 1.74312
82 1 5.52426 1.23558 4.12445 0.251476 -0.352327 0.169362
83 1 4.66238 7.55346 4.52622 -0.131991 0.461578 0.56549
84 1 1.15271 7.26321 7.52491 0.615401 0.99442 0.0225119
85 1 2.75057 1.61767 1.06518 0.911783 -0.273399 0.110872
86 1 3.79187 4.82752 0.512798 -0.304526 -0.092018 -0.300033
87 1 5.76331 2.5498 4.29799 0.0551527 0.946656 1.55397
88 1 8.88149 2.11783 7.93463 -0.620369 -0.199624 1.43449
89 1 0.645359 3.23133 2.54156 -0.659087 -0.417805 -0.68777
90 1 7.52611 3.67283 2.63831 0.648723 -0.60889 -0.185528
91 1 9.07059 6.09402 6.62917 1.20301 0.848197 0.321414
92 1 7.26339 5.82499 7.61828 -0.0387054 0.380193 0.978193
93 1 2.63672 7.90749 4.302 -0.588556 -0.314185 -0.460613
94 1 0.54208 6.82661 1.53491 0.210908 -0.356476 0.860173
95 1 2.00513 4.96385 2.46441 0.719041 0.790982 -1.50922
96 1 2.7774 1.63812 8.44775 -0.781901 2.06371 -0.394349
97 1 2.22339 2.46689 1.65243 0.0843109 1.08299 0.543971
98 1 4.53362 1.54443 2.74677 -0.00512466 -0.450729 -1.2113
99 1 2.74378 0.470923 3.81221 -0.269314 -0.228393 0.39224
100 1 6.45028 7.75144 4.10954 0.29235 -0.364834 -0.669566
101 1 4.00224 5.71815 2.33486 -0.524174 -0.844988 -1.26889
102 1 6.48279 1.71598 4.21579 0.251759 -0.0979168 0.377269
103 1 0.537966 8.79341 1.6418 0.045469 -1.19626 -0.843289
104 1 3.73489 0.231856 0.26596 0.69799 -0.668508 0.787211
105 1 6.61539 6.88312 5.66398 -0.238556 1.32716 0.799038
106 1 8.7899 1.17671 6.75178 -0.583548 1.15015 -0.0346829
107 1 8.39953 7.76798 2.40179 -0.925292 0.492126 0.240817
108 1 0.248222 0.801992 7.08582 -0.238425 0.0490099 -0.924451
109 1 6.60376 4.11298 4.23007 -0.325971 -0.605523 0.517786
110 1 7.97514 4.91351 6.6566 1.55886 0.306902 1.34767
111 1 3.29567 6.74124 0.646719 0.217217 1.53863 -0.00582979
112 1 4.30595 9.19611 8.81252 -0.148172 -1.28525 0.485776
113 1 3.17074 3.53418 8.28182 0.196779 0.98764 1.07275
114 1 3.4222 7.30472 4.67702 -0.0112843 -0.153572 0.0300721
115 1 3.44605 0.194758 5.36676 0.970111 0.0341776 -0.689819
116 1 4.60524 4.6373 7.22381 0.798483 0.0561791 0.30468
117 1 8.48694 5.5862 1.04088 -1.19336 -0.233054 -0.0678863
118 1 7.78397 1.88893 7.43578 -0.189318 0.200363 0.291
119 1 8.53721 6.75283 4.74007 -0.924649 -0.976912 -1.2895
120 1 3.13162 6.21676 2.28154 0.490879 -0.0306951 0.334369
121 1 5.56748 8.5447 7.13754 0.977387 0.844108 -0.316704
122 1 9.03902 8.47448 8.99947 -1.09311 0.658953 -0.785331
123 1 1.74128 9.01906 6.82139 -0.374494 -0.12609 -0.409969
124 1 5.94673 8.40921 6.0695 -0.0356128 0.415452 -0.0623647
125 1 6.02582 4.60771 5.96311 0.0882218 0.180667 -0.551184
126 1 0.10208 5.11515 1.94858 0.261442 1.50232 0.626353
127 1 1.82143 8.47583 5.139 1.27235 0.153872 -0.795037
128 1 5.36342 7.78345 8.05139 -0.158318 -0.36282 -0.177184
129 1 3.2085 4.15098 0.982739 0.298119 -0.449862 0.547813
130 1 3.71182 7.20771 7.93527 0.440757 0.118979 0.210135
131 1 9.33897 1.9127 4.07852 -0.742556 -0.262353 -0.50779
132 1 7.72984 4.6377 3.73569 -0.470886 -0.697407 -0.118005
133 1 5.46708 7.47725 2.67399 -0.188355 0.446534 2.39081
134 1 4.36183 0.861984 5.87744 -0.710424 -0.466873 0.290792
135 1 4.51977 0.868965 4.29969 -1.93849 0.173176 0.278519
136 1 1.79635 1.35379 8.01279 1.09319 0.479692 0.859617
137 1 2.88001 4.56163 8.24837 -1.59536 -0.0199508 -0.249551
138 1 5.90186 2.93197 7.61474 0.391398 0.136513 -0.170821
139 1 0.132574 6.28389 4.51064 0.132608 -0.550718 1.8043
140 1 3.6361 4.9699 4.71357 1.19384 -0.0376777 -0.0104215
141 1 4.55844 7.9728 7.42282 0.363024 0.1309 -0.458073
142 1 1.00339 2.54376 9.3092 -0.273508 1.61778 -0.186174
143 1 3.52212 6.8695 8.96431 -0.976402 -0.457752 0.921863
144 1 1.45314 4.02232 6.86358 -0.74232 0.637253 -0.519318
145 1 5.91904 4.35089 8.43856 0.0514839 -0.353904 -0.138206
146 1 7.77774 1.00244 2.19549 -0.121202 0.368128 0.0149262
147 1 4.41498 8.92751 6.95103 -0.370705 -0.441809 -0.315259
148 1 3.90023 4.12953 7.71012 -0.00652699 0.137704 -0.980259
149 1 8.56875 6.06579 3.14201 -0.516384 0.236192 -0.535332
150 1 5.99506 -0.00945069 0.512959 0.140088 -0.984669 1.21062
151 1 0.195197 7.12516 5.08667 1.18987 -0.818605 0.502696
152 1 4.53472 6.65239 9.369 0.784305 -0.392176 0.67883
153 1 9.2861 5.28949 9.36303 0.634948 0.0832824 0.82157
154 1 6.46789 4.69038 9.24147 -0.273726 -0.00229296 -0.194924
155 1 7.0382 6.36182 2.26515 0.449281 -0.644693 -1.03549
156 1 4.30418 0.657253 3.23916 -0.828208 0.0243694 -0.860265
157 1 5.58766 2.97368 5.62925 -0.162623 -0.843373 0.392464
158 1 4.64012 4.43558 0.0255526 0.298847 0.00497218 -0.192181
159 1 0.803532 7.3353 3.87714 0.947135 0.145758 -0.282358
160 1 6.53886 7.25712 6.69927 -0.179426 0.746943 -0.564943
161 1 0.429731 3.91199 0.871831 -0.712197 -0.931151 0.345505
162 1 0.285188 1.02509 9.29256 -0.954413 0.735979 -0.719491
163 1 9.00097 3.53667 5.92062 -0.649282 0.374462 1.25163
164 1 5.24495 7.76552 3.69626 -0.166497 1.64113 0.764177
165 1 7.06436 0.0449268 2.10132 -1.33763 -0.0313111 -0.949262
166 1 7.97332 5.86341 5.11359 1.51259 -0.802389 1.2429
167 1 5.27686 7.11044 1.60466 0.0738348 0.0482939 0.435043
168 1 6.55221 5.14992 8.09343 1.19117 0.0394861 0.227846
169 1 2.71743 5.39803 7.6854 -1.02803 -0.270949 0.585927
170 1 1.28815 1.26524 6.57985 0.587803 -0.318979 -1.01096
171 1 0.0420247 3.82791 3.38204 -0.558509 0.692577 -1.55324
172 1 2.79608 3.69167 9.3071 -0.844051 -0.164085 -0.641155
173 1 7.81936 6.54121 8.90692 -0.148102 -0.302037 -0.63419
174 1 0.308922 3.13502 5.11849 0.0914399 0.327407 0.588176
175 1 6.36567 8.78684 2.44149 0.135413 -0.242863 -0.259438
176 1 1.17792 2.88924 6.88807 -0.179376 0.319239 -1.33359
177 1 4.27292 8.62952 1.00182 0.0346009 -0.436628 0.234288
178 1 8.58841 5.32865 5.94603 -0.300887 0.789711 -1.18259
179 1 6.05671 8.13949 3.20714 -0.0351823 0.243818 0.013
180 1 0.353567 1.02716 4.87996 -0.426209 0.648978 -1.01346
181 1 6.75905 7.46561 1.21272 1.04443 0.0298654 -0.428519
182 1 2.9207 1.47236 3.58295 -0.1997 -0.311106 -0.0126131
183 1 1.95612 7.18405 6.88623 0.883018 -0.394906 0.326232
184 1 2.79457 2.50026 6.66749 -0.881947 -0.0327932 -0.363104
185 1 2.50134 7.16649 8.62249 -0.673017 -0.261496 -1.16326
186 1 1.63588 5.35264 5.37807 0.211743 0.238088 0.918181
187 1 3.08371 2.22905 7.66038 -0.251811 -1.57787 -0.702495
188 1 2.50151 5.64405 1.65759 -0.698674 0.519884 -1.32586
189 1 2.00445 3.93633 3.74098 -0.475642 0.457564 0.403353
190 1 7.85247 6.1493 1.67024 0.908559 0.850562 0.172937
191 1 5.6778 5.4017 8.64686 0.5533 -0.268518 0.0963202
192 1 0.388085 5.10729 8.49177 0.937409 0.566967 0.27356
193 1 2.53854 6.78081 6.11215 -0.890967 -0.578193 0.315759
194 1 3.93624 2.86418 9.2408 -0.881293 0.0533596 0.792921
195 1 0.0965297 8.06373 3.37023 0.169461 -0.381075 0.41653
196 1 2.9377 0.457327 1.94294 0.597621 -1.52449 0.496694
197 1 3.35281 5.65063 6.77182 0.526881 -0.412095 0.0941191
198 1 2.91705 4.7132 9.38572 0.450375 -0.988436 -0.248343
199 1 1.31397 5.64405 6.33123 -0.0115945 -0.150609 0.857258
200 1 2.8068 9.10235 6.70657 0.0496532 -0.327148 0.229279
201 1 0.503705 7.90008 1.16886 -0.781162 0.628791 0.101088
202 1 8.43736 2.18662 3.70342 -0.928635 0.597166 0.442691
203 1 2.82088 7.32946 7.49526 -0.499571 -0.586369 -0.984506
204 1 3.91483 2.83392 5.02106 0.256711 -1.05102 0.177255
205 1 7.40138 7.72576 6.14267 0.0250132 0.472192 0.851254
206 1 1.13861 2.48841 5.1385 -0.559113 0.56066 1.27283
207 1 7.36979 2.42355 9.12555 -0.405091 0.127313 -0.380998
208 1 7.83704 3.70721 5.71328 -0.20125 -0.583579 1.26085
209 1 5.04519 1.26813 7.46821 0.83558 0.274134 0.061003
210 1 2.47695 1.74679 0.0992056 -0.0142632 -0.695069 -0.146582
211 1 0.198639 2.19767 2.31504 -0.588494 0.0731256 -1.25459
212 1 5.85883 6.97338 3.64953 -0.734676 -0.0653571 -0.0142046
213 1 2.02123 1.15419 4.29505 -0.42372 -0.272519 0.113698
214 1 8.32817 2.58716 0.258323 0.380819 -0.216039 0.502163
215 1 2.44826 6.91386 5.10021 1.08564 0.326332 0.239296
216 1 4.03746 6.32972 6.21048 -0.38604 -0.843796 -0.819248
217 1 7.31987 9.38857 0.042364 0.0793312 1.59735 -0.4877
218 1 4.72451 4.59423 2.24488 0.651118 1.68497 -1.5424
219 1 6.50455 6.64188 0.633921 -0.169224 0.654889 -0.477535
220 1 9.18542 2.03573 1.29171 -0.977622 -0.658817 -0.133
221 1 8.79761 8.81953 6.25931 -0.801117 -0.0149925 -0.0359786
222 1 5.38866 5.17963 1.31887 -0.0561302 0.0466066 0.656057
223 1 3.44922 7.90582 1.00065 1.21546 -0.751147 0.465949
224 1 7.56107 7.54757 3.2069 -0.136523 -0.554946 -1.56886
225 1 4.28579 5.28019 6.3423 -0.509611 0.360072 1.20977
226 1 1.05124 7.89792 2.05499 -1.20191 -0.078171 0.273213
227 1 5.15366 7.91216 0.805899 -0.616308 0.825255 -2.07693
228 1 6.36722 3.49336 9.08869 -0.181289 0.713032 -0.142912
229 1 0.590726 8.02072 8.43444 1.05598 -0.577761 -0.512015
230 1 4.23985 2.18871 1.00031 0.161611 0.102553 1.09268
231 1 0.290683 7.0386 8.11415 -0.196597 0.832776 1.10595
232 1 6.62784 5.66576 0.238605 -0.190117 0.820628 -1.49935
233 1 8.20135 7.79153 8.79015 -0.346108 -0.273407 -0.576957
234 1 3.46126 8.53633 9.38578 0.786426 -0.63265 2.02962
235 1 6.96085 6.36382 6.85465 0.308918 -0.437521 -0.801784
236 1 0.0639492 8.8288 8.12396 0.356955 -0.0634166 -0.719622
237 1 6.9438 9.22128 1.05628 -1.18022 0.0857956 -0.797576
238 1 7.25567 8.35021 8.99741 0.358767 -0.207962 -0.148925
239 1 2.89707 7.67498 6.45769 0.777009 0.140874 -0.180607
240 1 5.38451 0.853119 5.23133 0.222555 0.31587 -0.400598
241 1 2.13016 7.28796 2.93828 -0.117169 -0.300459 0.550374
242 1 9.13564 3.11146 4.23942 -0.844207 -0.193964 -1.27849
243 1 2.26939 8.28792 9.16548 -0.666491 0.467443 -0.584607
244 1 6.35458 8.50924 0.113096 0.970901 -0.530159 -0.06732
245 1 6.57658 3.37644 3.11627 -0.242927 -1.05372 0.713628
246 1 1.4079 6.31036 1.54347 0.268756 0.378315 1.75679
247 1 5.16496 3.06788 3.60557 -0.0808943 -0.24679 -0.50933
248 1 6.28386 0.559211 4.59853 -0.217474 0.264475 -0.623218
249 1 2.07542 3.85561 8.52036 1.41325 0.212524 -0.622411
250 1 4.5953 7.19856 5.76069 0.0619633 -0.212626 -0.449134
251 1 7.53388 2.21899 6.44739 0.996572 0.00824047 -0.0404238
252 1 1.9889 2.2944 4.46847 1.00646 0.917932 0.481169
253 1 0.315441 5.24559 6.09226 0.476585 -0.544313 0.112364
254 1 7.46734 2.45349 0.885237 0.460226 0.0339821 0.133421
255 1 4.81609 3.34258 7.6363 -0.723829 1.80694 -2.09323
256 1 1.11905 3.79709 8.66838 -1.2547 0.407665 -0.591075
257 1 4.70455 0.0261742 0.300443 -0.88456 0.171445 -0.939614
258 1 2.26681 0.881846 2.90228 0.433789 1.98675 0.718164
259 1 3.72241 5.84918 0.0486101 0.251984 0.460762 -0.218251
260 1 3.58144 2.81034 6.09768 0.56422 0.581274 -1.16189
261 1 7.00791 3.99879 0.42672 -0.363842 0.296855 0.111949
262 1 5.17055 0.841307 2.44756 -1.47508 -0.622258 -0.246297
263 1 5.13998 4.86254 3.65744 -0.381776 0.38542 -0.658358
264 1 6.92723 6.01221 5.22254 0.971711 1.07631 0.151403
265 1 4.97694 3.85837 4.24696 0.151298 -1.13838 0.31509
266 1 7.67602 7.70091 4.3032 0.443832 -1.0055 -1.40725
267 1 4.36702 2.38949 1.98451 0.761303 -0.595527 -0.113263
268 1 5.85264 8.63613 8.29591 -0.0577911 -1.01625 -0.0850375
269 1 2.94807 5.64359 0.615793 0.0744207 -0.540833 -0.682303
270 1 8.46798 7.93405 3.63467 -0.653968 -0.248536 0.276802
271 1 7.28253 7.35745 0.0531272 0.983458 -0.677562 -0.214768
272 1 8.67178 0.546691 2.91118 0.21766 -0.162444 1.28931
273 1 9.27666 1.53903 3.04266 -0.00714366 0.928068 0.977869
274 1 5.89964 6.3749 6.47785 -0.224484 0.585426 1.1742
275 1 4.49682 8.70469 5.75517 0.527428 0.250493 -0.245629
276 1 9.36086 5.49965 2.97644 0.499052 -0.464366 0.142504
277 1 3.39391 2.51695 3.54191 0.857463 -1.29441 -0.680914
278 1 1.81045 5.63887 7.28896 -0.917625 1.20142 -0.781374
279 1 2.42501 9.17693 2.98853 1.21082 -1.0353 0.709678
280 1 5.5647 3.41769 2.75213 0.275828 0.872485 0.187142
281 1 6.19344 9.04629 3.86134 0.441071 1.63072 0.446449
282 1 9.38028 9.38549 2.35708 0.152616 0.244046 0.214014
283 1 8.58886 7.83347 4.73877 -0.437065 0.100836 0.478604
284 1 7.98735 8.29073 5.52555 -0.116502 -0.6657 0.397311
285 1 5.19132 8.85576 3.52453 -0.941111 -0.264552 -0.622346
286 1 0.79778 1.88421 8.54492 -0.356539 0.804547 -0.830148
287 1 2.97322 8.98476 7.70431 -0.107165 -0.099996 1.87266
288 1 3.19373 1.03425 9.22085 0.0556852 -1.40516 -0.0257932
289 1 7.12687 1.83707 5.64184 -0.753193 -1.14505 -0.573883
290 1 1.51583 7.63039 8.53972 0.503677 0.0270212 -0.22722
291 1 4.86747 2.66163 8.84026 -0.542612 -0.154655 -0.743795
292 1 0.641743 7.72297 5.84322 0.66132 -0.0157975 -1.04089
293 1 0.70412 8.71057 5.36505 -0.248585 -0.261235 0.411555
294 1 8.29569 4.59037 7.67095 -0.196486 -0.262249 1.34312
295 1 7.19999 4.70028 7.38466 -0.963829 -0.833985 -0.927228
296 1 5.33771 6.88234 0.529888 0.754576 0.0606392 -0.521068
297 1 4.64327 3.19969 1.24457 0.548655 -0.18388 -0.087189
298 1 4.20197 6.6319 4.87123 0.336893 -0.0183124 1.19068
299 1 6.46153 7.14286 2.90201 0.219459 0.426846 0.321292
300 1 7.90844 2.74586 2.15454 -0.352267 -1.37598 0.642995
301 1 0.34194 1.8725 6.60296 -0.720321 0.514087 -1.10946
302 1 8.02974 9.4085 5.77144 0.827888 0.30957 -0.367003
303 1 1.11735 8.5837 9.10667 -0.378283 -0.361722 1.40758
304 1 6.90913 5.30308 2.54662 -0.262577 0.0215217 0.0427825
305 1 4.93241 0.931287 9.26928 0.865344 -0.391576 -0.301002
306 1 7.97925 9.24231 3.37829 0.599014 0.589016 -0.156757
307 1 7.06349 8.36815 1.70527 -0.093897 0.426331 -0.9244
308 1 7.4729 0.939734 6.06343 -0.741413 1.00025 -0.258069
309 1 8.73154 5.27871 8.48291 -0.671538 0.0330716 -0.207429
310 1 2.96616 4.79705 6.28674 -1.10882 -0.82627 0.485089
311 1 8.8137 8.54447 1.84423 -0.321699 0.282442 -0.0381328
312 1 2.40023 6.85556 1.91839 -0.346415 1.01042 -0.585786
313 1 6.80993 1.02499 1.80998 -2.24586 -0.266335 0.838144
314 1 6.82595 4.37932 3.13774 -1.09099 -0.27367 -0.718297
315 1 3.11846 4.3589 5.39394 -0.486059 -0.388909 -0.483769
316 1 1.80202 5.04977 4.31237 -0.129473 -0.186654 0.618867
317 1 8.6226 2.15602 6.72975 -0.410227 -0.425899 0.718484
318 1 8.41014 6.888 6.61077 -0.0834622 0.423554 -0.572268
319 1 5.16432 0.223538 7.24038 -0.578825 -0.362365 -1.41475
320 1 5.24156 5.10063 5.41636 -0.387618 0.759582 -1.0438
321 1 1.92261 1.81885 3.46928 0.418987 0.280774 -0.515881
322 1 1.07845 7.81531 4.81589 0.052277 -0.406124 0.316818
323 1 3.70093 8.14831 4.14017 0.567912 0.902861 -0.778073
324 1 3.86073 5.1888 7.72942 -1.14705 -0.81425 -0.0187366
325 1 4.19983 5.01835 3.08931 0.584989 -1.11373 -0.62999
326 1 8.52166 2.17225 4.74838 -0.715185 -0.765809 0.459125
327 1 4.0949 0.790799 8.79104 1.82488 -0.40279 -1.23254
328 1 5.92194 2.67629 8.65575 0.0137734 0.613842 -1.08998
329 1 7.64888 1.5164 8.43978 0.976228 0.472296 0.729722
330 1 3.86457 8.51667 8.02143 -0.922417 0.770885 -1.42131
331 1 4.25458 1.70382 4.96659 -0.827005 -1.05067 -1.04107
332 1 3.1455 1.55028 6.82366 1.04942 0.443796 1.59301
333 1 7.50532 5.11059 1.7092 0.727562 -0.137668 -0.688839
334 1 1.31953 8.02177 6.71669 0.110562 0.564074 -1.03046
335 1 8.03967 1.80415 2.89172 0.39231 -0.0301485 -0.311313
336 1 0.73605 4.75055 4.62753 1.51038 1.04167 -0.22854
337 1 5.00406 7.97306 6.42105 0.46944 -0.465763 0.37833
338 1 9.01117 0.276522 7.65838 0.380173 -0.598266 0.416488
339 1 9.35043 4.43121 7.78591 1.79715 0.174815 1.79263
340 1 1.85706 0.156952 2.23419 0.212902 0.772026 0.208276
341 1 8.7363 8.64758 7.2629 0.39965 0.332357 0.845486
342 1 7.78985 5.82132 2.64384 -0.00436667 -0.193769 0.45326
343 1 4.32859 5.16001 1.44681 0.119429 -0.0193359 -0.370794
344 1 0.882902 0.244787 6.55017 1.27249 -1.11578 -0.0873171
345 1 3.98054 7.83427 6.30888 1.55994 -0.830049 0.101921
346 1 6.95349 4.89922 0.930446 0.118381 -0.113493 -0.792443
347 1 4.40091 2.76673 6.76684 0.426604 1.73573 -0.449291
348 1 7.66703 3.92454 6.88046 -0.17859 1.33049 -0.377762
349 1 7.52101 3.42765 8.99733 -0.427276 0.567187 -0.0218982
350 1 4.08359 3.37542 3.61334 0.41333 1.91381 0.0291454
351 1 9.00455 6.85545 2.04902 0.205374 0.711561 0.62673
352 1 0.417696 8.68526 6.39988 -0.129375 0.110209 -0.703876
353 1 0.730058 2.67645 4.13434 1.48009 -1.28531 -0.493707
354 1 1.92528 6.70465 7.9803 0.0510534 0.132315 -0.863991
355 1 1.04926 6.44203 0.524391 0.18674 -0.671175 -0.94588
356 1 4.12396 3.79753 6.74282 0.792798 -1.0456 -0.800758
357 1 9.2417 2.39819 8.85621 -0.0736079 -0.428472 0.752215
358 1 6.29947 6.8904 4.57761 0.668248 0.026587 0.186864
359 1 4.08495 6.20238 7.44785 -0.180059 0.642084 0.064621
360 1 2.58358 4.20648 1.96434 0.118802 1.54773 1.0038
361 1 5.13036 2.06875 3.52639 0.746379 1.50576 0.0539249
362 1 4.69819 1.29283 1.63507 0.706304 -0.59918 -1.04726
363 1 7.19806 4.05192 1.54859 0.968002 0.340195 -0.22268
364 1 1.54817 3.42705 7.74944 -0.245943 0.149484 -0.0166059
365 1 0.632425 2.03003 0.728701 0.099677 -1.59032 0.42717
366 1 6.24677 7.7725 2.04097 1.43511 0.444053 0.49056
367 1 1.29807 4.42199 0.885683 0.0800868 0.944555 -0.390124
368 1 3.14377 8.79053 4.77254 0.229462 0.0562085 0.255448
369 1 8.61542 6.27444 0.117107 -0.362587 -0.952217 0.897721
370 1 6.27309 0.769868 8.36068 -0.343862 -1.0192 1.11724
371 1 3.21173 6.23775 4.97544 -0.220146 0.0307875 1.38806
372 1 3.72016 1.76976 8.60294 0.375466 0.786137 -0.203894
373 1 6.25437 6.79931 1.77467 -0.27153 1.36461 0.839542
374 1 0.122075 6.9217 6.21276 -0.289377 -0.0242577 1.19759
375 1 5.07865 6.25379 7.16828 0.141232 -0.727917 -0.541331
376 1 3.14054 0.59504 7.14846 0.382823 0.237964 0.831936
377 1 1.32605 8.24211 7.72058 -0.00789487 -0.362567 -0.833627
378 1 5.32216 0.759537 0.819469 0.447083 -0.23591 -0.225667
379 1 6.13515 3.39471 4.70368 -0.795955 0.0476674 -0.388188
380 1 5.48339 5.24305 6.64658 0.852222 -0.866627 0.545135
381 1 4.46222 8.94328 2.04683 0.498681 0.117211 -0.208919
382 1 5.27557 5.7209 4.51724 -1.43856 -0.712584 -0.580942
383 1 0.320635 8.09371 7.30266 0.015997 -1.18701 0.261456
384 1 3.24437 8.94299 3.70456 0.374649 -0.840761 -0.261277
385 1 4.0315 7.50924 0.20834 0.0155799 -0.710363 -0.408226
386 1 0.56007 4.55268 6.818 0.0694886 0.00801231 0.594052
387 1 9.14756 0.892376 4.0578 -1.02844 -0.280858 0.585824
388 1 7.4495 1.41554 1.12891 -0.382177 0.261839 0.763186
389 1 6.37159 2.45646 5.2015 1.08598 -0.430648 -0.85196
390 1 2.45512 5.22168 3.38829 -0.653317 1.30973 0.930362
391 1 6.9726 0.894631 9.13977 0.966441 -0.0214289 0.510693
392 1 3.46864 2.02931 0.354277 -0.60843 -0.134367 0.707061
393 1 1.72093 5.50673 0.94967 -0.596799 0.475128 1.21994
394 1 8.52383 4.79933 1.82689 -0.657959 0.179189 1.07983
395 1 0.375166 9.30103 9.00517 0.430721 -0.935676 -0.00330914
396 1 2.59477 2.35907 2.70618 1.21453 -0.26217 -1.1642
397 1 5.99364 4.45606 0.804324 -0.412732 -0.965792 -0.338941
398 1 8.6847 4.06132 2.56559 -0.483695 0.518559 0.826557
399 1 6.14761 2.40659 3.35755 -0.521873 0.172005 0.00866342
400 1 2.94621 7.67313 2.45782 0.720527 0.720516 0.838857
401 1 3.95507 1.81489 6.16855 0.290042 0.119019 -0.391382
402 1 0.585805 5.28167 0.785827 -0.079679 0.131869 0.301661
403 1 3.28845 5.03387 1.42801 0.412785 -0.281996 0.275436
404 1 8.91082 5.33166 7.30484 0.0729334 1.08368 0.121315
405 1 4.29508 3.97901 5.08088 1.78658 -0.0656542 -0.641019
406 1 8.27115 0.266825 0.530177 0.364034 -0.362933 0.13406
407 1 6.90271 8.47871 8.03914 -0.871774 -0.847046 -0.612291
408 1 1.99653 3.04396 9.21592 -0.0130888 -1.21618 0.397223
409 1 3.46217 3.72352 4.55807 0.44951 -0.740549 0.478683
410 1 0.324899 2.41415 7.51619 -0.590133 -1.51193 -1.39417
411 1 6.88897 8.56134 4.69656 -0.0389799 -0.166587 -0.787965
412 1 1.0666 8.82337 4.35187 0.904828 0.79495 -0.235165
413 1 1.33029 6.97845 2.26047 -0.554614 -0.302206 -0.138958
414 1 5.57035 1.79058 9.0867 -0.137842 -0.794761 0.510405
415 1 9.38118 0.244352 0.51511 1.07775 1.02373 0.0893051
416 1 8.97498 1.78877 0.31862 0.503644 -1.475 0.707972
417 1 9.3699 5.33475 4.97426 -0.520395 -0.0577484 -0.197914
418 1 3.42751 2.07481 4.49468 -0.220106 -0.431343 -0.649905
419 1 6.8975 2.92124 2.17642 0.101064 -0.526176 0.563322
420 1 0.571478 3.72255 4.3176 0.279424 0.160553 1.16372
421 1 5.85322 6.11452 5.38937 0.700901 -0.420202 -0.0363155
422 1 8.95691 2.46938 5.85353 -0.281788 -0.304766 -0.502061
423 1 9.20098 4.44622 4.42313 0.813174 -0.509074 -1.69301
424 1 4.60637 8.083 2.73869 1.94693 0.326351 -0.522351
425 1 2.06519 3.20674 6.48567 1.07663 -0.680385 0.6404
426 1 4.98328 0.551456 8.26766 0.790133 -0.726764 -0.0859689
427 1 7.73825 2.96724 7.41676 -0.335251 -0.930097 -0.828597
428 1 2.3337 8.21536 7.16664 1.46886 -0.568487 0.775169
429 1 6.18785 0.511859 2.57243 -0.197905 -0.170021 -0.374069
430 1 5.7374 4.61323 4.5833 -0.693496 0.481922 0.027349
431 1 8.17115 3.08932 6.47002 0.194541 -0.785545 -0.514884
432 1 4.94951 8.90649 7.98307 -0.41996 0.288265 0.570264
433 1 2.73169 7.98385 5.36618 0.0250919 0.654807 -0.890037
434 1 8.24308 8.28293 0.260937 0.0579178 -0.659484 1.13463
435 1 1.26964 3.57353 0.272895 -0.300895 -1.04694 -0.802113
436 1 0.0760337 7.02154 0.594211 0.81785 -0.2691 -1.36431
437 1 7.29177 7.48258 2.15516 0.299975 -0.148345 -0.333478
438 1 1.9412 7.27051 0.200055 -0.341482 0.0917995 -0.76669
439 1 3.1238 7.3617 3.59155 -0.0752436 -1.77731 0.803523
440 1 7.3389 6.49622 3.32781 0.052586 -0.679697 -0.0269927
441 1 5.33574 2.43743 2.59209 -1.16477 0.432641 -0.121005
442 1 5.294 3.89709 5.24259 -0.016322 -0.0990872 0.0708554
443 1 2.13974 6.45778 0.799249 0.959555 -0.0301297 -0.228024
444 1 0.255221 6.3884 3.50748 0.407119 0.045473 0.492842
445 1 6.26047 2.62257 0.197105 1.2896 -2.45037 0.37768
446 1 7.88058 2.67127 5.51481 0.493545 0.0744008 0.174179
447 1 0.970876 5.16993 2.82792 -0.790222 0.346358 -0.737709
448 1 8.13131 9.04692 8.9845 -0.100415 0.162802 0.319155
449 1 2.94852 2.66379 8.99295 0.571396 -0.325675 -1.18279
450 1 4.01555 6.00914 8.53516 -0.594478 -0.748301 0.624801
451 1 4.47801 8.36711 0.000313218 -0.383437 -0.381649 -0.350856
452 1 3.34321 7.92157 8.61763 -0.676229 0.101176 -1.12792
453 1 3.82621 0.0691432 6.30288 0.158383 -0.415279 -0.658451
454 1 4.09962 0.186241 7.82446 1.27125 -0.417633 -0.209431
455 1 8.28193 5.01424 4.55314 0.505694 0.580992 -0.477667
456 1 8.61164 4.38144 5.34975 -0.856632 -0.0409488 -0.46801
457 1 5.44294 8.04368 9.07452 -0.577403 -0.50769 -0.0935322
458 1 2.52143 6.28351 3.28306 0.387216 -0.519691 0.00890429
459 1 8.82598 3.67549 0.800844 0.367833 0.96798 0.276779
460 1 7.17933 3.14394 6.47886 1.14252 -0.21396 -0.0092613
461 1 8.17827 3.6753 1.73538 -1.03029 -1.68687 -0.355093
462 1 4.39131 7.67518 1.64303 0.213761 0.523245 -0.479139
463 1 4.44384 1.8764 0.042664 -0.991163 1.5996 0.420937
464 1 9.14009 3.20724 8.15177 0.228743 0.714538 -0.392993
465 1 1.9168 9.1244 7.84481 0.67748 0.380619 0.238193
466 1 3.47398 1.01354 7.97242 0.0256235 0.499643 0.55647
467 1 5.87147 1.45492 3.04234 -0.525997 -0.754704 0.205582
468 1 8.61469 8.95568 5.01867 0.380262 -0.220181 0.820045
469 1 7.46682 1.99964 4.75592 -1.0572 -0.0556391 -1.15725
470 1 8.55553 3.58514 7.3341 0.618299 0.657751 -0.3126
471 1 5.33192 9.29574 5.93001 0.364021 -1.06795 -0.291684
472 1 7.94607 2.8841 4.25319 0.225784 0.765693 -0.346009
473 1 5.12363 2.53131 0.499073 0.217533 0.562525 -1.05257
474 1 8.89989 8.80124 4.00767 -0.0737956 1.12662 -1.89955
475 1 2.32595 1.53311 6.13802 1.30741 -0.685031 0.618466
476 1 0.0618827 1.14729 8.24532 1.21512 -0.509862 1.12869
477 1 3.14015 0.642589 0.909629 -1.00183 -0.818723 -0.150267
478 1 3.24571 8.95513 1.10577 0.620063 -0.711451 -0.375026
479 1 1.53522 2.78975 2.6994 -0.150394 0.498779 -0.608876
480 1 6.8361 2.46399 7.26828 0.0548914 1.06696 1.06042
481 1 3.47201 7.03734 1.73262 0.593357 0.542491 -0.897723
482 1 2.0147 6.10672 4.54428 1.11415 0.668663 -0.874032
483 1 5.45961 5.95967 3.55594 -0.285805 0.727767 0.0897022
484 1 6.0342 9.38251 6.72855 1.30038 -0.498762 0.767265
485 1 4.81696 5.61011 8.07395 0.285568 -0.609545 1.54685
486 1 9.38993 2.60197 3.3188 0.216054 -1.35755 -0.844137
487 1 8.65897 4.64274 3.40661 0.662002 0.369158 0.0466946
488 1 8.02778 5.96441 4.05582 -0.450528 1.19367 -0.867831
489 1 2.71717 1.55082 2.08032 -0.459201 -0.0864538 -0.486266
490 1 5.63164 8.40488 4.49361 -0.123513 0.803081 0.378793
491 1 7.90826 8.6908 4.38846 -0.593114 -0.479093 0.558779
492 1 8.68306 6.82919 8.1763 0.387408 -0.20308 0.0813966
493 1 5.81625 1.66508 8.08102 -0.00854303 -0.467186 0.375739
494 1 7.3598 1.87498 3.66125 -0.553586 0.975172 0.0853586
495 1 4.83754 4.22543 1.04242 -0.539498 0.70299 0.09525
496 1 1.78286 1.66908 5.23406 0.495322 0.5171 1.02458
497 1 2.06999 0.987065 8.92183 1.27066 0.577606 -0.38833
498 1 7.69375 0.385957 1.33089 -0.489055 -0.535548 0.532885
499 1 2.72436 3.03239 4.47128 -0.780465 -0.557674 -0.631593
500 1 5.7746 6.24071 9.25031 -0.909153 0.269675 1.15066
501 1 5.65128 7.31473 5.96281 0.130823 -0.0942397 -1.09996
502 1 1.53606 4.06549 2.69768 -0.117412 0.202219 0.340217
503 1 5.02157 6.09755 6.04465 -0.445465 -0.566417 0.755457
504 1 5.37323 9.26339 2.32261 0.759442 0.735117 -0.421866
505 1 7.10575 5.83633 8.73261 0.588677 -0.789373 -0.525974
506 1 1.81675 7.54796 5.67935 0.0459327 0.210096 0.0935053
507 1 6.53572 9.23925 8.79998 -0.417113 0.719841 1.21193
508 1 4.28724 6.748 1.01183 0.906585 -1.10922 0.700071
509 1 8.48929 1.08009 7.81601 0.505945 0.0116797 -0.445088
510 1 1.09659 1.70462 4.33336 0.0934049 -0.932309 0.451336
511 1 7.11205 4.48053 6.1722 -0.17644 -0.204217 -0.892226
512 1 8.90754 7.08533 3.12623 -0.128252 -0.256256 0.0578413
513 1 2.0802 6.98515 4.03858 0.409469 0.0521189 -0.358344