ITEM: TIMESTEP
35150000
ITEM: NUMBER OF ATOMS
1000
ITEM: BOX BOUNDS pp pp pp
0.0000000000000000e+00 9.4000000000000004e+00
0.0000000000000000e+00 9.4000000000000004e+00
0.0000000000000000e+00 9.4000000000000004e+00
ITEM: ATOMS id type x y z vx vy vz
1 1 0.606861 4.59263 9.38175 -0.0213269 -0.153081 -0.0162041
2 1 7.63141 6.91707 0.970234 -0.577091 -0.300075 0.147187
3 1 3.59491 2.96641 2.62856 0.339218 -0.364185 1.22388
4 1 7.77074 9.14932 7.04478 -0.251945 1.01374 -0.582261
5 1 1.45707 0.216283 3.18487 -0.589637 -0.38512 1.69754
6 1 6.32112 7.72769 8.70801 1.0805 -0.351121 0.854458
7 1 1.32186 8.12849 0.67983 -0.413715 0.483975 -0.16337
8 1 4.19915 0.916754 6.91495 -1.1057 -0.280904 0.441789
9 1 2.52651 5.87315 5.95823 0.873754 0.0136932 0.0535207
10 1 0.981488 7.33936 9.26899 -1.59807 1.59625 0.228239
11 1 6.93848 1.21391 4.16466 0.972053 -1.29819 -0.233205
12 1 0.771871 1.42502 1.65351 -0.680677 0.629055 -1.66815
13 1 1.74865 1.85509 1.094 0.0766561 -0.400326 1.61278
14 1 3.25334 5.58003 3.00918 -1.33029 -0.84716 -1.29987
15 1 5.71641 3.34302 0.493175 0.061567 1.68512 -0.953332
16 1 0.687656 1.35966 5.80985 0.0575082 0.116631 -0.389587
17 1 8.38984 2.53898 1.29151 0.885017 0.881931 0.859897
18 1 6.41038 6.7617 8.96064 1.3922 -0.916865 1.05437
19 1 4.37806 3.73489 8.70145 -0.883019 -0.5124 -0.250553
20 1 6.47384 4.29606 6.87192 -0.408244 0.342868 -1.49095
21 1 8.92688 1.24681 4.47903 -0.57817 0.264969 0.381318
22 1 2.71668 2.40135 5.57579 -0.263866 -1.24553 -0.663029
23 1 4.59709 1.54366 8.48452 -0.972391 -0.685994 -0.190527
24 1 2.25633 3.53904 7.26366 -0.65322 1.07955 -0.272341
25 1 6.73173 0.291831 7.39931 0.606207 -1.44507 0.53
26 1 0.4258 4.20453 2.6027 -0.393608 -0.94771 0.498596
27 1 9.22772 7.78726 2.14686 0.961029 0.845122 0.562697
28 1 4.58069 3.26432 2.50442 -0.388685 -0.171084 -0.237272
29 1 1.18993 4.61897 5.89074 -0.52173 -0.0508478 -0.112028
30 1 9.32375 2.79023 6.72928 0.0889388 1.24556 -1.2047
31 1 3.11307 3.27845 1.74071 0.110491 -1.55711 0.641778
32 1 7.55377 5.79902 5.97495 -0.707248 -0.1211 0.225865
33 1 2.15226 9.33178 8.8219 0.0896903 -0.100372 0.358606
34 1 6.06001 0.615338 3.9398 0.057128 0.0884021 -0.327562
35 1 0.204138 0.77412 3.2817 0.120345 0.503172 -0.520463
36 1 4.3279 7.49625 3.57922 0.0995141 -0.0232514 -0.825079
37 1 5.97436 8.28365 0.987066 -0.124998 -0.485147 1.03961
38 1 1.1715 6.62987 3.13508 0.544281 -0.419094 0.0877052
39 1 1.12611 9.236 8.22686 0.318424 0.737599 -1.07693
40 1 6.99074 1.43828 0.424567 0.913781 0.839622 0.74564
41 1 7.75713 6.77474 5.47397 -1.00539 0.107646 -0.256358
42 1 1.05275 0.570894 4.2294 -0.423588 0.154292 0.991347
43 1 1.02944 0.825407 8.58371 -0.847195 0.14124 -0.0504563
44 1 1.95264 2.96684 5.26668 -0.855821 0.486797 0.253823
45 1 4.50268 2.70791 4.40978 0.813255 -0.282292 0.345305
46 1 3.09751 3.53149 3.60746 -0.44756 -0.457554 -0.883605
47 1 1.66172 6.59815 9.01478 -0.804878 -0.662619 -0.928243
48 1 6.21419 4.94897 3.48068 -0.66225 -1.96202 -0.357008
49 1 3.96649 4.54715 6.35077 -0.67924 0.999786 -0.557304
50 1 1.48561 8.6167 2.71873 -0.440968 0.990606 -0.461429
51 1 0.695387 5.33386 3.7616 0.919182 0.467329 -0.467048
52 1 3.58263 1.2186 1.83175 0.576329 -0.607743 -0.979761
53 1 3.30033 1.16696 4.65684 1.11559 0.8038 -0.41696
54 1 7.15602 7.12769 8.37967 1.2471 0.066924 -1.28822
55 1 0.519689 5.2113 7.28019 0.7241 1.27455 -0.468587
56 1 2.0759 4.37247 9.23676 -0.633959 -1.04167 -0.205259
57 1 8.38249 7.75236 7.19537 -0.125157 0.179309 0.903892
58 1 9.04602 7.22936 8.84939 1.20194 1.45678 -0.804294
59 1 8.01432 8.19255 6.25017 -0.327727 0.732328 -0.0146805
60 1 1.12334 7.68995 2.96663 -1.43029 0.371681 0.235481
61 1 3.60446 1.79793 2.82227 0.111023 1.00745 -0.536463
62 1 0.670118 8.99584 0.487317 0.181569 0.239266 0.185476
63 1 6.82535 8.78561 6.72568 -8.88847e-05 -1.68697 -0.450246
64 1 8.30466 7.18773 0.233226 0.893195 -0.763472 -0.895823
65 1 7.35739 1.1705 5.13787 1.30812 -0.0728532 0.847569
66 1 2.32591 6.36413 7.23364 -0.133309 0.0377868 -0.845302
67 1 3.54756 8.42262 2.03818 0.185377 -1.14034 -0.0808061
68 1 4.82015 5.85079 0.665433 0.449671 0.638106 0.11915
69 1 5.94637 3.82939 3.57654 -0.758853 0.395237 -0.258443
70 1 7.49763 3.59763 3.76652 0.930404 -0.0317273 -0.760896
71 1 7.83006 3.15469 0.730355 -0.50877 -0.530382 -0.154548
72 1 7.51377 0.0352078 5.09658 0.0834186 -0.632512 1.00841
73 1 3.27138 6.92554 7.00165 -0.514362 -0.112032 -0.356021
74 1 7.0465 0.167987 4.03323 0.0709994 -0.520043 1.19379
75 1 7.10908 0.934314 8.11144 -1.27492 -1.53232 -0.0522729
76 1 6.61589 3.13449 1.12686 1.29083 -0.83013 1.24445
77 1 2.19064 3.06507 3.50429 0.236903 0.597647 -0.714151
78 1 3.85506 5.83868 1.25822 0.00995892 -0.167658 -0.355859
79 1 5.10511 9.19876 8.83189 1.17457 1.56943 1.42173
80 1 0.0699443 5.93814 8.0565 0.545929 0.723919 0.35153
81 1 3.86749 7.89615 5.40659 0.173598 -0.0153698 -0.551535
82 1 5.49619 1.38205 4.54833 -0.364106 0.591526 -1.74946
83 1 4.61482 7.74572 4.50913 0.42862 0.502209 -0.444984
84 1 0.952967 7.40426 7.53103 0.879475 0.0466345 0.223208
85 1 2.82817 1.66612 1.23612 0.225218 -0.444108 0.548009
86 1 4.17728 5.0031 0.554959 0.0189879 -0.419376 1.03288
87 1 5.63205 2.66183 4.39813 1.31667 0.171834 -0.120093
88 1 8.89467 1.87512 8.17254 -0.88988 0.584936 -0.593044
89 1 0.832912 3.2018 2.37591 0.565846 -0.379084 -0.495766
90 1 7.52873 3.59123 2.65982 -0.190134 -0.893195 0.751934
91 1 8.92699 6.1448 6.4011 0.340162 0.299495 0.0352909
92 1 7.24878 5.92295 7.57997 1.90411 -0.316651 0.272633
93 1 2.58842 7.9441 4.38998 0.645119 -0.19097 -0.553287
94 1 0.348662 6.85423 1.40602 -0.122933 -0.683351 0.640344
95 1 2.16136 4.94646 2.41651 -0.970326 0.762733 -0.60508
96 1 2.78786 1.70157 8.74829 0.14445 -0.170159 -0.132492
97 1 2.36915 2.40596 1.78507 -0.322155 -0.0724213 -0.248407
98 1 4.38723 1.23986 3.27446 -0.551253 0.144829 -0.17662
99 1 2.91665 0.534124 4.03339 -0.263064 1.17546 0.325994
100 1 6.26359 7.9528 4.12654 0.372878 -1.51596 -0.0187642
101 1 4.10519 5.74743 2.30736 0.283205 -0.163414 -0.366849
102 1 6.20524 1.91377 4.02678 1.03665 -0.35502 0.0177288
103 1 0.350567 8.83713 1.46195 0.553483 -0.576238 0.0827733
104 1 3.72844 0.349812 0.201161 -0.407391 -0.115201 -0.0903398
105 1 6.59439 6.80633 5.8447 0.53989 -0.962529 0.695259
106 1 8.72282 1.16001 7.21962 -0.159748 0.519216 -0.00527257
107 1 8.13867 7.76587 2.40317 0.701014 -0.0702549 -0.879066
108 1 9.28717 0.31568 7.30374 0.151646 -0.0231945 0.520314
109 1 6.71763 4.31536 4.1659 -0.137721 -0.652352 0.160013
110 1 8.06168 5.12054 6.58537 -0.27012 -0.0563882 -0.796844
111 1 3.27164 6.6994 0.632033 -0.441565 0.334666 -1.70005
112 1 4.34194 0.517924 8.79841 -0.596944 -0.766515 0.169025
113 1 3.0935 3.46528 8.27418 -0.762645 0.172101 0.55658
114 1 3.35676 7.15531 4.56229 -0.521904 -0.193017 -0.513784
115 1 3.42802 0.368822 5.47123 -0.659429 0.0564236 -0.987766
116 1 4.78166 5.07479 7.17371 -1.28485 -0.14097 -0.438584
117 1 8.43779 5.40979 1.04116 0.597184 0.208506 -0.200129
118 1 7.96202 1.86154 7.50368 -0.0071523 0.527445 0.469152
119 1 8.43183 6.72654 4.69863 -1.18142 -0.436332 -1.27426
120 1 3.09824 5.7136 1.9424 -1.10794 0.547376 1.11978
121 1 5.89276 8.3312 7.21341 -0.571237 -0.00534601 0.195687
122 1 8.88713 8.27158 8.99708 0.468467 -0.258127 0.2397
123 1 1.54676 9.15146 6.84809 0.241125 0.119779 -0.0908752
124 1 5.26385 9.07079 5.92003 -0.364381 0.517523 0.496649
125 1 6.08843 4.71829 6.03936 -0.353247 0.228131 0.615561
126 1 0.202242 4.98046 1.86078 0.117607 -0.689183 0.339265
127 1 1.88112 8.41808 4.97636 0.23079 0.369503 -0.519782
128 1 5.2813 7.90623 7.99721 -1.30805 0.486135 0.174783
129 1 3.23357 3.8959 0.939428 -0.583243 -0.0748558 0.588645
130 1 3.67827 7.23346 8.10875 -1.02431 -0.609065 -0.235558
131 1 0.30038 1.71761 3.90672 0.888526 1.5616 0.281029
132 1 7.89016 4.62217 3.52705 0.106977 0.406511 0.367135
133 1 5.40644 7.41392 2.91096 0.239307 -0.164517 -0.0245356
134 1 4.1306 1.05975 5.88661 0.374553 -0.746159 -0.764813
135 1 4.5344 0.886711 4.21798 -1.47509 0.472373 -1.0857
136 1 1.57003 1.29809 7.8283 0.587024 -0.84785 1.20039
137 1 2.93998 4.44472 8.6215 0.0864327 -0.513934 0.559844
138 1 6.64205 2.65952 7.32491 0.283498 0.754682 -0.310669
139 1 0.288491 6.13143 4.37964 0.0567573 -0.201549 -0.455384
140 1 3.65168 5.07387 4.76624 -1.15108 1.5103 -0.0414535
141 1 4.19964 8.18534 7.91706 1.17632 0.278757 -0.275361
142 1 1.11171 2.52997 9.17116 0.121967 0.496606 -0.964431
143 1 3.60228 6.94709 9.09314 0.824236 0.701047 -0.279545
144 1 1.51393 4.01005 6.78628 0.00414538 -1.13382 0.266448
145 1 5.9973 4.34614 8.42895 0.931125 0.954999 0.583167
146 1 7.69863 0.812622 2.46261 0.180472 -0.0605354 0.800219
147 1 4.19245 8.6954 6.96122 -0.674601 -0.00391786 0.648587
148 1 3.90115 4.16949 7.91425 0.44979 1.34906 0.483643
149 1 8.61575 6.12061 2.98966 -1.09195 0.64534 0.23097
150 1 5.75662 0.0646082 0.437442 -0.688947 -0.182102 -0.177724
151 1 0.219494 7.02476 4.87388 0.735643 -1.8445 -0.619476
152 1 4.57113 6.64438 9.35761 0.37908 -0.866087 -0.71627
153 1 0.0859962 5.50469 9.17653 1.25836 0.288076 0.61323
154 1 6.69286 4.66605 9.31704 0.401622 -0.533782 0.12578
155 1 7.03893 6.1969 2.19036 0.284454 1.0443 -0.167339
156 1 4.18351 0.199198 3.48626 -0.393179 -0.689425 0.987024
157 1 5.44112 2.88931 5.99543 0.219157 -1.22353 -0.14153
158 1 4.98924 4.46654 9.1524 0.84483 -0.74066 -0.504932
159 1 0.738715 7.09887 3.89811 0.231807 0.933601 -0.472546
160 1 6.47349 7.47571 6.75705 -0.893855 0.36989 -0.245395
161 1 0.474392 3.87173 0.716405 1.51361 0.0864589 1.02536
162 1 0.0660156 1.27009 9.08125 0.435685 0.518791 0.22425
163 1 8.91668 3.75419 5.95789 0.45979 0.239898 -1.06174
164 1 5.40968 7.37673 3.93691 0.692097 0.233987 0.390616
165 1 7.08558 0.0160348 1.91048 -0.14835 -0.180808 1.11752
166 1 7.98484 5.712 4.99736 -0.273327 -0.0746053 0.486746
167 1 5.06138 7.11031 1.62073 0.248301 -0.571575 0.785146
168 1 6.66822 5.18619 8.15777 0.679552 0.0631943 0.477767
169 1 3.05454 5.36334 7.62412 0.477524 0.391067 -0.323011
170 1 1.1279 1.49147 6.69603 -0.163119 -0.218466 -0.294687
171 1 0.130031 3.72996 3.53407 -1.06285 0.850806 0.72105
172 1 2.78728 3.64576 0.0298237 0.00853792 -0.672381 1.12836
173 1 8.01968 6.64421 8.84919 1.03073 0.599757 -0.0243687
174 1 0.128752 3.27327 5.14584 -0.0681868 0.765168 -1.70436
175 1 6.4413 8.8129 2.5675 -1.01574 -1.17604 0.0497885
176 1 1.05566 2.98962 6.71104 -0.105871 -0.601622 -0.51221
177 1 4.30386 8.6654 0.944734 0.502461 0.0862196 -1.08046
178 1 8.6427 5.3728 5.73666 -1.24795 -0.472755 -0.147711
179 1 6.30299 7.89288 3.11526 0.0518846 0.385097 -0.634742
180 1 0.510583 1.29457 4.82892 -1.27109 -0.413015 0.397218
181 1 6.69578 7.37385 1.1038 -0.81008 -1.46174 1.00976
182 1 2.92794 1.60073 3.74616 -0.514699 1.39978 0.197127
183 1 1.84123 7.38533 6.90213 -0.484181 -0.0404458 -0.515909
184 1 2.63521 2.6809 6.79072 0.264226 -0.622822 1.85696
185 1 2.62275 7.24389 8.73831 0.713962 0.106403 -1.20403
186 1 1.74526 5.36581 5.3835 -0.847332 0.681433 0.0494165
187 1 3.12343 2.3913 7.89816 1.39243 0.281437 0.189867
188 1 2.21694 5.73752 1.51609 -1.43287 0.075787 0.229203
189 1 2.06986 4.1198 3.6068 0.891708 0.036777 -0.723433
190 1 7.9345 6.14662 1.71529 0.233286 0.593253 0.00982145
191 1 5.7679 5.32508 8.67229 1.10146 0.00483321 0.265517
192 1 0.519469 5.0187 8.35497 1.42745 0.232464 0.128761
193 1 2.39977 6.8325 6.18506 1.13584 -0.274955 -0.514854
194 1 3.7524 3.03721 9.14106 0.10222 -1.42636 1.37266
195 1 0.0864733 7.84643 3.18727 0.350489 -0.324754 -0.18385
196 1 2.92563 0.391476 2.13007 -1.04559 1.18957 0.304037
197 1 3.27065 6.03177 6.61405 -0.576353 0.283674 -0.000648591
198 1 3.12274 4.79947 0.22958 -1.52748 -0.486004 0.771895
199 1 1.21031 5.69456 6.22514 -0.0417055 -0.782976 0.377519
200 1 2.60846 9.09817 6.81825 -0.69012 -0.829918 -0.289945
201 1 0.120494 7.97716 1.05978 0.254364 -0.0582764 -0.385464
202 1 8.67431 2.21699 3.87129 -0.964839 -0.545865 -0.565331
203 1 2.61772 7.40428 7.64764 0.271678 -0.616967 -0.93592
204 1 3.79036 2.97279 5.22192 -0.392534 -0.0578883 -0.118872
205 1 7.3183 7.40786 6.29266 0.780507 0.209563 0.139477
206 1 0.98078 2.51788 5.0629 -0.491356 -0.0617535 -0.974142
207 1 7.20017 2.54512 9.26261 -1.05417 -0.82381 -0.575408
208 1 7.64083 3.78171 5.79581 0.291192 -0.265966 -0.498947
209 1 4.94205 1.41306 7.33739 0.367189 -0.192582 -0.425449
210 1 2.14481 2.13452 0.135839 -0.00614653 -0.314021 1.21184
211 1 0.443005 2.16323 2.3328 -0.24042 0.146142 1.0236
212 1 6.3042 6.84969 3.67474 -0.143379 -0.0179484 0.258881
213 1 1.97011 1.16307 4.17175 -0.982022 -0.221178 -0.73633
214 1 8.31305 2.5081 0.132929 -0.226762 0.395315 -0.776109
215 1 2.39606 6.84071 4.95031 -0.054614 -0.667097 0.530118
216 1 4.1543 6.72809 6.49404 -0.58942 -0.892881 0.389779
217 1 8.09288 9.0086 8.92485 0.284658 -1.66779 -0.961243
218 1 5.03554 4.06672 1.97234 0.569302 0.150511 -0.406411
219 1 6.70951 6.57604 0.568951 0.455219 -0.0431635 -0.118108
220 1 9.26773 1.9947 1.46818 0.429443 -0.332683 0.604322
221 1 8.91944 8.94366 5.89084 0.49953 0.0404835 1.9356
222 1 5.56399 4.89537 1.50337 -0.276323 -0.38657 -0.76253
223 1 3.73697 7.8035 1.19766 -0.566463 -1.94002 0.397479
224 1 7.29217 7.48782 3.0689 -1.41141 -0.917133 1.48268
225 1 4.39847 5.59406 6.27688 0.464743 1.02788 0.259034
226 1 0.889768 7.75354 1.64981 -1.23076 -0.175414 -0.251509
227 1 5.04204 7.78756 0.86086 0.281384 1.01942 -0.0997286
228 1 6.41355 3.73787 9.15063 0.720566 0.948283 0.943015
229 1 0.516422 7.70691 8.46704 0.204637 0.759059 0.300193
230 1 4.39735 2.05292 1.1987 0.214931 -0.0944961 0.330764
231 1 0.0980419 6.95311 7.91343 -0.293126 0.652717 0.999681
232 1 6.47549 5.71295 9.40522 -0.613632 -1.23022 1.50204
233 1 8.05056 7.66595 8.64125 -0.861967 -0.795271 1.22259
234 1 3.60301 8.64391 0.12811 -0.0526365 -0.207707 -0.00316734
235 1 6.88229 6.41273 6.71804 -0.0189721 0.0718574 -0.369347
236 1 0.280452 8.60357 8.11648 0.0611938 0.642557 -0.106454
237 1 6.68023 9.15684 0.996747 0.304968 -0.485586 -0.133052
238 1 7.25941 8.26252 8.919 0.237501 -0.260714 0.109133
239 1 2.73206 7.72961 6.46445 -0.673583 0.167187 -0.600989
240 1 4.91982 1.10024 5.29388 1.11649 1.47796 -0.590634
241 1 2.11542 7.23448 2.91056 -0.81776 0.162189 0.181382
242 1 9.08823 3.09396 4.17152 -0.278551 0.103718 -0.616389
243 1 2.41134 8.46967 9.38417 0.631796 -0.0137661 0.315498
244 1 6.34056 8.68045 9.30994 0.49062 -1.03808 0.0378117
245 1 6.72868 3.24909 3.02145 -0.227803 0.581181 -0.789045
246 1 1.24899 6.21911 1.36977 0.471514 0.946264 -0.310473
247 1 5.1955 3.13095 3.62793 0.222947 0.475749 -0.114056
248 1 6.53046 0.536374 4.89441 1.19586 -0.110453 1.23885
249 1 2.12042 3.99667 8.2134 -1.07473 0.100873 -0.433713
250 1 4.64531 7.44523 5.9398 0.722378 0.12681 0.909542
251 1 7.41948 2.30405 6.62219 -1.24221 -1.63487 0.0786249
252 1 2.07133 2.22977 4.5077 -0.545777 1.09383 -0.401277
253 1 0.159625 5.34261 6.26799 -0.981019 -0.495609 1.16292
254 1 7.24145 2.33307 0.933642 0.412212 -1.25452 0.385447
255 1 4.93926 3.48252 7.87128 0.578353 0.541619 -0.524134
256 1 1.13685 4.0161 8.63593 1.28562 -0.264141 0.192448
257 1 4.71913 0.0612919 0.320705 0.00583516 -0.197177 0.0772551
258 1 2.2134 1.00139 3.13556 1.18219 0.401524 0.911869
259 1 3.76001 5.92589 0.123246 0.384845 -0.264601 -1.53817
260 1 3.49145 2.85954 6.30583 0.305063 0.616969 -1.00016
261 1 7.00969 3.90288 0.580745 0.500132 0.975495 -0.411853
262 1 5.1452 0.729922 2.79486 -0.682098 -0.0667769 -0.223164
263 1 5.17029 5.10352 3.59859 0.462868 0.0916226 0.444935
264 1 6.98987 6.15308 5.05662 -0.578498 -0.156699 0.805245
265 1 5.03447 3.80055 4.32883 -0.246795 -0.360427 0.285689
266 1 7.51591 7.84643 4.30911 -1.00076 0.245401 0.951148
267 1 4.47082 2.17482 2.26891 -0.185572 -0.821577 -0.751837
268 1 6.05035 8.60271 8.21603 -0.286268 0.687317 -0.374545
269 1 2.88257 5.68989 0.632767 -0.273277 0.733523 -0.154129
270 1 8.16986 8.05514 3.37324 -0.699482 1.458 -0.21275
271 1 7.32204 7.35671 0.0393387 0.461453 -0.342198 -0.473412
272 1 8.67194 0.704762 2.82922 -1.08586 -0.165193 -0.407482
273 1 9.1245 1.69936 3.01907 0.794849 0.300118 -0.291475
274 1 5.86986 6.46272 6.49625 0.107589 -0.930331 0.056003
275 1 4.39076 8.58313 5.9679 -0.807414 -0.103559 1.21959
276 1 9.37054 5.44688 2.76484 0.123401 0.323768 -0.184817
277 1 3.41985 2.57924 3.59423 -0.700964 -0.501151 0.750884
278 1 1.46278 5.799 7.19552 -0.852568 -0.903784 0.169669
279 1 2.5112 -0.00198477 3.12847 -0.493906 -0.512767 0.0987219
280 1 5.65765 3.49605 2.66741 0.996201 0.135174 0.211079
281 1 6.19163 9.04447 4.30025 1.05434 -1.18127 0.064003
282 1 9.32528 0.0267277 2.33022 -0.126858 -1.2756 -1.13616
283 1 8.53031 7.91548 4.55962 1.22715 0.0833477 -0.129958
284 1 7.96423 8.43424 5.22493 0.542339 -0.815449 -0.484922
285 1 5.58067 8.62974 3.40786 1.10643 0.968646 -0.849236
286 1 0.750993 1.84801 8.5104 -0.427019 0.102399 -0.586143
287 1 3.14353 9.25284 7.99512 0.20952 0.711609 0.330474
288 1 2.75401 1.13833 0.185099 -0.554283 -0.505411 1.34805
289 1 6.84468 1.82882 5.86936 1.14069 0.862163 0.362367
290 1 1.78622 7.79801 8.64939 -0.192053 0.898242 0.905343
291 1 4.80362 2.62447 8.79935 -0.452411 -0.648261 0.46459
292 1 0.802943 7.67403 5.98369 0.395859 0.372753 1.87569
293 1 0.915644 8.76138 4.95617 -1.13784 0.447455 -0.0950949
294 1 8.29942 4.61061 7.60849 -0.4159 -0.496349 0.298159
295 1 7.22372 4.92546 7.34406 -0.648961 0.647883 -0.640013
296 1 5.44638 6.73444 0.682306 0.44663 0.550789 0.718859
297 1 4.79312 3.10095 1.33839 -0.127076 -0.792031 0.411825
298 1 4.26121 6.88224 5.15643 -0.451187 -0.0909348 -0.208982
299 1 6.50139 6.94016 2.65584 0.550211 0.0557415 -0.22132
300 1 8.25534 2.64974 2.45203 -0.11289 0.323233 -0.569717
301 1 9.38957 1.66645 6.53186 -0.503551 -0.342684 0.324781
302 1 8.27962 0.67546 5.66008 0.727777 0.274463 0.837942
303 1 1.13934 8.59584 9.01455 -0.862824 0.335332 0.21286
304 1 6.79348 5.17263 2.5656 1.21665 0.130882 0.180649
305 1 4.7368 1.16782 0.311642 0.221701 0.647726 -0.260184
306 1 8.1085 9.15854 3.18467 0.120972 -0.589383 0.118486
307 1 6.84226 8.25692 1.63386 0.245486 0.889119 0.136009
308 1 7.27703 0.990824 6.2285 -0.355365 0.435474 -0.877119
309 1 8.85212 5.16497 8.47036 1.16787 -0.141356 0.171809
310 1 3.06866 4.92415 6.70864 0.266707 -0.593672 0.399946
311 1 8.71942 8.37281 1.49721 0.923551 -0.450362 -0.74475
312 1 2.49033 6.64984 2.01456 -0.370166 0.0100247 -0.420137
313 1 6.53891 0.769404 1.1579 0.272615 -0.399726 -0.246331
314 1 6.91128 4.25972 3.15404 -0.184307 0.785386 0.620409
315 1 3.21767 4.39865 5.57137 -0.785232 0.334164 -0.366547
316 1 1.77193 4.93762 4.27956 -0.170181 -0.432729 -0.194411
317 1 8.4987 2.05389 6.66138 0.0220323 0.990598 -1.28804
318 1 8.38003 7.14204 6.3083 -0.632112 -1.27394 1.32218
319 1 4.89827 0.0601714 6.86413 0.657589 -0.36448 0.202292
320 1 5.18847 5.30949 5.45002 0.608093 -0.0884976 0.384941
321 1 1.92108 1.94969 3.48272 -0.0492065 0.497275 0.975168
322 1 1.14019 7.6189 4.9415 -0.252161 -0.921776 -0.212421
323 1 3.58053 8.03112 4.1914 -0.609842 0.404554 -0.374828
324 1 4.00744 5.17863 7.83716 0.716955 0.0314312 0.261259
325 1 4.12603 5.09973 3.10935 -0.642708 0.429444 0.35971
326 1 8.31828 2.09713 4.92442 0.579895 1.04718 -1.9127
327 1 3.76515 1.28583 9.18795 0.342805 -0.131152 -0.0139782
328 1 6.0768 2.81912 8.96586 0.509483 0.587985 -0.246664
329 1 7.43669 1.75271 8.67098 -0.29736 -0.305205 0.656951
330 1 4.00642 8.94957 8.57636 0.783236 -0.390239 0.017126
331 1 4.11395 1.75582 5.11824 -0.28297 -0.890185 0.322509
332 1 3.11446 1.61446 7.21401 -0.442589 0.466482 0.768953
333 1 7.59767 5.05045 1.80686 -0.717325 -1.34697 1.29199
334 1 1.17532 8.1399 6.7964 0.355657 -0.193376 0.120033
335 1 8.11675 1.76887 2.97508 0.00512249 -0.216791 0.44298
336 1 0.82343 4.72472 4.89074 0.204593 0.262504 -0.185976
337 1 5.12604 7.98516 6.57998 -0.557997 0.28088 0.432278
338 1 8.81941 9.25166 8.14063 0.328346 0.0720788 0.695577
339 1 9.3294 4.38641 7.61557 0.456573 -1.04765 0.770956
340 1 1.87546 0.0631846 2.23336 -0.290185 -0.248157 -0.447861
341 1 8.77158 8.70346 6.99163 -0.774919 -0.957379 0.819816
342 1 7.69097 5.62711 2.72038 -0.119181 -0.779372 -0.226081
343 1 4.45092 4.89899 1.58273 -1.14573 -0.503795 -0.560369
344 1 0.857598 0.437978 6.54274 0.511541 0.244456 -0.0321408
345 1 3.80294 7.73863 6.51775 0.274767 0.866328 0.0304084
346 1 7.38433 4.8664 0.751535 0.428874 -0.564759 -1.25026
347 1 4.17981 2.81375 7.03967 -0.784265 1.29108 -0.674777
348 1 7.76445 4.2086 6.76576 0.172488 -0.934042 -0.197482
349 1 7.50134 3.52801 9.12085 0.637621 -0.211057 -1.7151
350 1 4.13455 3.3551 3.72687 -0.370929 0.739919 -0.370194
351 1 8.81887 6.72203 1.98032 -0.771747 0.310113 -0.410627
352 1 0.476999 8.73888 6.11555 0.331946 1.81926 -0.881233
353 1 0.65145 2.82789 4.04767 0.739095 0.191062 0.31065
354 1 1.79305 6.92296 8.08588 0.264617 0.874262 -0.669564
355 1 0.987104 6.46664 0.4411 1.12303 0.776376 0.7486
356 1 4.63598 4.09289 7.10334 -1.12555 1.26627 -0.326115
357 1 9.28901 2.50224 8.95644 -0.000754895 1.22101 0.922172
358 1 6.4126 7.00743 4.77858 -0.971111 0.312905 -0.442946
359 1 3.88315 6.09862 7.39776 0.145382 -0.105505 -0.785135
360 1 2.63905 4.18456 1.79161 -0.335897 -0.76062 1.47311
361 1 5.11252 1.98212 3.77491 0.150643 0.51727 -0.311439
362 1 4.63586 1.21458 1.92965 0.835471 -0.0291377 0.279123
363 1 7.46633 4.00385 1.50408 -1.45806 0.300091 -0.0364528
364 1 1.33883 3.36469 7.70004 -0.23586 -0.485749 -0.0110974
365 1 0.764792 2.21314 0.81531 0.783777 -0.599618 1.52583
366 1 5.99019 7.64714 2.06435 0.378271 0.919806 -0.939261
367 1 1.39332 4.47679 0.767467 -0.326266 0.149108 0.70808
368 1 3.21345 8.72022 4.94634 0.68958 -1.10283 -0.916958
369 1 8.85833 6.28376 9.23085 0.261119 1.33589 -0.359055
370 1 6.05039 0.471555 8.19548 0.768894 -0.152944 -0.286861
371 1 3.23051 6.03522 5.03179 0.242238 0.235184 0.205249
372 1 3.73297 2.11715 8.64426 0.985376 -0.635104 0.773578
373 1 6.18927 6.67825 1.58468 -0.276064 1.2032 -0.0115565
374 1 0.128191 6.87167 5.95069 -0.183601 0.0236024 0.391763
375 1 4.86863 6.19544 6.97369 -0.0389366 0.117433 0.814131
376 1 3.21353 0.530722 7.16659 -0.0623342 -0.579204 -0.213826
377 1 1.31991 8.38869 7.76574 0.97769 0.170211 -0.50449
378 1 5.24172 0.717127 1.14723 0.535235 0.405982 -0.305908
379 1 5.99475 3.65228 4.70761 -0.216253 -0.260398 0.152202
380 1 5.4285 5.43783 6.37444 0.77307 0.362894 0.269559
381 1 4.43772 8.9688 1.99402 0.36626 -0.246456 -0.969334
382 1 5.27701 5.70237 4.44848 0.0186534 -1.35548 0.226705
383 1 0.140226 8.05893 7.19766 -0.837887 0.479977 -0.383649
384 1 3.30511 8.99064 3.83761 0.723793 0.72651 -0.143964
385 1 4.15649 7.60439 0.296859 -0.836844 -0.449757 0.775281
386 1 0.572868 4.31388 6.70739 0.880402 -0.339144 -0.637071
387 1 8.78621 0.283076 3.8986 0.250855 0.853237 -1.26746
388 1 7.36482 1.32576 1.45583 -0.885676 0.903797 -0.335821
389 1 6.22138 2.53532 5.17562 -0.139511 0.816358 -0.260543
390 1 2.51001 5.26027 3.63266 -1.2173 0.810776 -0.521098
391 1 7.34453 9.12947 0.215586 -0.129773 -0.123226 0.81531
392 1 3.31653 2.16146 0.274928 0.118729 -0.0101286 -0.575098
393 1 1.67954 5.53032 0.649578 0.0533376 -0.920689 -0.227478
394 1 8.43186 4.45994 1.41109 0.0672377 -0.642046 0.934018
395 1 0.312716 9.3261 8.89397 0.801024 -0.266414 -0.0664866
396 1 2.69653 2.42444 2.82236 -0.69672 -0.213478 -0.656483
397 1 6.07039 4.29979 0.742491 0.318119 -0.923974 0.561362
398 1 8.90957 3.71211 2.7429 0.377162 -0.145736 -0.644829
399 1 6.47298 2.31657 3.1257 -0.412631 -0.693117 -1.23756
400 1 2.96586 7.52686 2.44098 0.724038 0.893652 -1.22179
401 1 3.84033 1.86297 6.48664 -0.238221 1.02892 0.457117
402 1 0.565612 5.48698 0.75632 0.0874988 -0.0270145 0.197129
403 1 3.38136 4.91346 1.26153 0.817751 -0.497084 -1.25572
404 1 8.93325 5.42002 7.17046 -0.535295 1.13532 0.608024
405 1 4.23316 4.08276 5.36952 -1.14593 1.33214 0.177389
406 1 8.23267 0.171982 0.440322 0.320786 0.21287 -0.144324
407 1 7.05011 8.75998 7.86125 0.950343 -0.836433 0.992045
408 1 1.77717 3.17504 8.74564 -0.43134 -0.627305 -0.0246609
409 1 3.46445 3.83844 4.67588 -2.17008 -0.296139 -0.148533
410 1 0.197267 2.51374 7.79153 -1.76112 0.290776 -0.344088
411 1 6.99286 8.55577 4.81736 1.41179 -0.69491 -0.390084
412 1 1.23085 8.97048 4.04282 0.107697 -0.0984549 -0.767628
413 1 1.36964 6.97656 2.12516 -0.698665 -1.22222 -0.141687
414 1 5.49727 1.87355 9.10017 -0.485858 -1.03995 1.16293
415 1 9.30075 0.310027 0.409261 0.717872 1.05159 0.443776
416 1 8.79201 1.79379 0.604234 0.187366 -0.785719 0.174763
417 1 9.38801 5.27927 5.11467 0.139003 -0.413441 0.132043
418 1 3.18053 2.19291 4.69716 -0.159864 0.208181 -0.525009
419 1 7.34503 2.91734 1.79516 1.42916 0.0498067 -0.0420218
420 1 0.709776 3.82541 4.40934 0.799563 0.78332 -1.84407
421 1 5.86794 6.25912 5.33526 0.171541 0.584146 -0.103803
422 1 8.94554 2.60367 5.78009 0.437714 0.935965 -0.809079
423 1 9.34702 4.63118 4.23563 1.1215 0.389031 0.385967
424 1 4.65919 8.32071 2.86238 0.752126 0.244283 1.19344
425 1 1.93478 3.35938 6.21978 0.32407 -0.175536 -0.909715
426 1 5.00135 0.570334 7.9886 0.596261 -0.276467 -1.64155
427 1 7.88978 2.85175 7.37456 -0.640784 -0.887292 0.936647
428 1 2.14608 8.28893 7.255 -0.149684 1.13895 0.548592
429 1 6.03108 0.268308 2.91417 0.346008 -0.516442 1.07136
430 1 5.74835 4.56368 4.42958 0.16434 -0.604794 -0.60649
431 1 8.18151 3.21497 6.41595 -0.434536 0.32222 0.148708
432 1 5.14179 8.92981 7.773 0.326168 0.427978 0.961586
433 1 2.87138 7.7342 5.39864 0.647473 -0.650124 -0.383885
434 1 8.12188 8.19644 0.321919 -0.13648 0.362516 -0.923754
435 1 1.372 3.62712 0.197957 1.1902 -0.267543 0.397074
436 1 0.0653517 7.16168 0.421239 0.251895 -0.735387 -0.000526369
437 1 7.19199 7.32182 1.98628 0.622379 0.811805 0.576147
438 1 1.95429 7.46763 0.180603 -0.1515 1.49744 0.32299
439 1 3.09968 7.22607 3.49596 0.560891 -0.257425 1.84751
440 1 7.29897 6.42211 3.38825 -0.686652 -0.415576 0.0801747
441 1 5.39009 2.42787 2.80102 0.452412 0.265633 -0.0523668
442 1 5.36817 4.09188 5.43866 0.644421 0.096942 -0.491754
443 1 2.16888 6.46695 0.698677 -0.644291 0.199568 0.619181
444 1 0.170435 6.41498 3.34332 0.105716 0.000407417 0.484536
445 1 6.24699 2.34137 0.491742 -0.133959 -1.43563 -0.328474
446 1 7.76715 2.74281 5.58458 -1.00384 -0.847876 -0.0448561
447 1 0.996675 5.04475 2.60636 -0.29153 -0.798115 -0.304789
448 1 8.13055 8.52927 7.88145 0.607715 -1.08896 0.13899
449 1 2.71571 2.77816 8.90499 0.200765 0.282421 -0.929406
450 1 4.08528 6.21027 8.52527 0.0313035 -0.985781 -0.740317
451 1 4.57585 8.42649 9.37379 0.49463 0.550519 1.21014
452 1 3.39337 7.97076 8.76527 0.563414 0.9236 0.372762
453 1 3.90814 0.105196 6.34631 0.735599 0.13322 -0.130157
454 1 4.13186 0.0859691 7.68209 0.863029 0.362751 -0.281771
455 1 8.35082 4.96936 4.38868 0.432009 -1.1655 -0.573307
456 1 8.66093 4.39622 5.19471 0.0651843 -0.646215 -0.767052
457 1 5.48483 8.19388 9.06536 -0.175486 -0.522966 -0.280463
458 1 2.47941 6.31371 3.34198 -0.368816 0.744717 0.644034
459 1 8.80119 3.54649 0.991775 -0.0581679 0.371567 -0.15412
460 1 7.11802 3.30778 6.59988 -1.41334 -0.988829 0.0691346
461 1 8.2298 3.42124 1.81555 -1.12194 -0.0123416 0.65434
462 1 4.26159 7.72609 2.134 -0.635784 -0.187493 -1.12488
463 1 4.30186 2.17675 0.133589 -0.932176 -0.525048 -0.660574
464 1 9.03744 3.2338 8.28627 -0.39688 0.325496 -2.18613
465 1 2.04553 9.21209 7.73655 1.92334 0.381489 -0.503882
466 1 3.51458 1.25422 8.11292 -1.34286 0.591155 -0.875635
467 1 5.85847 1.38755 3.0542 0.595329 -1.10549 -0.133651
468 1 8.9797 8.78068 4.80047 0.022748 0.33064 -0.757732
469 1 7.14824 2.18915 4.83466 0.882404 -0.820095 1.92425
470 1 8.62047 3.5931 7.37301 0.702791 0.312767 -0.775132
471 1 5.76654 0.544786 5.67617 0.479504 0.828542 0.794717
472 1 7.8193 2.8151 4.33681 -0.13914 -0.843614 0.384948
473 1 5.29782 2.19824 0.672186 -0.0357821 1.00848 -0.735994
474 1 8.97734 8.64097 3.66526 -0.551743 -0.00911807 -0.570165
475 1 2.27908 1.46378 6.21964 0.159004 -0.188056 0.393411
476 1 9.33312 0.883843 8.15589 0.384624 -0.155962 0.836814
477 1 3.08114 0.579888 1.06687 0.289116 -0.149161 0.426332
478 1 3.20793 8.82344 1.17314 0.164697 -0.671714 0.383623
479 1 1.69791 2.71248 2.68802 0.8836 -0.400517 -1.22188
480 1 6.47694 2.00071 8.13481 0.726511 -0.251092 -0.564926
481 1 3.51308 6.8344 1.66005 0.987395 1.14754 -1.13911
482 1 2.12811 6.00517 4.31807 0.631155 -0.839632 -0.106072
483 1 5.5653 6.13472 3.63551 -0.527983 0.314544 -1.28925
484 1 5.94191 9.30353 6.63879 -0.187528 0.469244 0.965846
485 1 4.96689 5.68524 7.96835 0.327485 0.764771 0.0704109
486 1 9.29297 2.77784 3.05743 -0.601043 0.336357 -1.87912
487 1 8.95842 4.56458 3.27282 -0.25404 0.115927 1.3139
488 1 8.16059 6.03145 3.98254 0.558235 0.257571 -0.581809
489 1 2.68411 1.52495 2.37119 -0.416829 -0.369286 -0.459078
490 1 5.22784 8.60713 4.34155 -0.624816 1.04691 -0.190989
491 1 8.00134 8.80667 4.24362 0.000782678 -1.60634 0.548128
492 1 8.44611 6.96914 7.89325 -0.113737 0.785289 0.391955
493 1 5.60101 1.50112 8.05829 0.330096 0.16073 0.0790102
494 1 7.84159 1.63942 4.04517 -0.857835 1.11946 0.498068
495 1 4.9096 4.15115 0.862867 0.426688 -0.548371 0.535589
496 1 1.60505 1.6541 5.34695 -0.602951 0.450968 -1.01417
497 1 1.96933 0.909266 8.96042 0.476425 0.503121 -1.48509
498 1 7.92587 0.508735 1.37681 1.3027 -0.581262 -0.857625
499 1 2.69302 3.03032 4.44054 -0.167095 0.632909 0.95484
500 1 5.51357 6.11704 9.23869 -0.207148 1.36104 -1.27397
501 1 5.73474 7.34716 5.97593 0.419514 -1.88571 -0.982731
502 1 1.58451 4.14457 2.58074 0.520052 -0.403459 -0.0217556
503 1 5.03513 6.45394 5.93559 -0.278206 -1.22431 -0.038901
504 1 5.43593 9.03439 2.38328 -0.834853 -0.149534 0.177366
505 1 7.07848 6.03257 8.55393 0.191903 -0.0650298 0.0948289
506 1 1.84061 7.56928 5.65923 0.454003 0.830666 0.706308
507 1 6.91263 9.34049 8.65912 0.348625 -0.410953 0.117189
508 1 4.2767 6.75267 0.983294 0.406869 0.955618 -0.383457
509 1 8.19574 1.04019 8.14481 -1.12478 0.683521 0.691228
510 1 1.17493 1.82423 4.25251 -0.230005 -1.6899 0.965731
511 1 7.08087 4.90673 6.28607 1.22237 -0.569839 0.571381
512 1 8.79686 7.20265 2.96894 -0.114106 0.128839 -0.0206511
513 1 1.87214 6.93738 3.91579 -0.441792 0.11393 -0.0840055