ITEM: TIMESTEP
77450000
ITEM: NUMBER OF ATOMS
1000
ITEM: BOX BOUNDS pp pp pp
0.0000000000000000e+00 9.4000000000000004e+00
0.0000000000000000e+00 9.4000000000000004e+00
0.0000000000000000e+00 9.4000000000000004e+00
ITEM: ATOMS id type x y z vx vy vz
1 1 5.28623 6.52127 2.01419 0.876656 -0.588864 -0.227896
2 1 2.95444 4.36997 0.467659 0.371465 0.831909 0.628409
3 1 2.54317 2.05174 4.92406 0.860294 -0.940353 0.219928
4 1 2.09057 4.96549 0.116633 -0.608805 -0.456321 0.200667
5 1 9.04782 0.98879 3.69692 -0.303233 0.696485 -0.00844508
6 1 4.34744 6.68001 5.30892 -0.547675 0.246613 -1.29598
7 1 6.47026 5.62764 6.35671 -1.04556 0.518292 0.033589
8 1 9.39091 3.34942 6.55646 0.325577 0.630586 -0.154077
9 1 7.98452 4.75543 6.01755 0.102904 1.04564 1.24021
10 1 1.18234 4.64355 0.507106 0.914003 -0.212597 -1.29627
11 1 5.1753 0.716305 4.91306 -1.98963 0.0550792 -0.278854
12 1 6.94791 1.74169 8.82162 0.213476 -0.322291 -0.0712375
13 1 8.98297 8.92366 6.797 -0.689754 0.420292 0.194158
14 1 4.03975 3.73686 7.62173 -0.338648 1.52795 0.969214
15 1 1.11556 8.29935 9.24597 -0.324378 0.127619 -1.38058
16 1 0.230481 0.339047 8.46965 -0.734405 0.536806 -0.917055
17 1 7.0586 2.50823 2.13408 0.308531 0.312634 -0.911553
18 1 4.62726 8.49831 6.10315 0.43011 0.0793189 0.497265
19 1 4.53856 7.26956 0.845966 -0.312852 -0.614337 0.32628
20 1 7.55813 2.39381 0.130731 0.163294 -0.205732 -0.22486
21 1 8.21696 3.98366 8.43102 -1.04956 -0.341195 0.840359
22 1 8.68814 1.40845 1.14025 0.849747 -1.62252 -0.108948
23 1 7.36457 0.93086 9.37513 -0.714027 0.900672 0.298971
24 1 8.13244 5.51061 7.99136 -1.21568 1.12495 -1.00819
25 1 6.27906 0.272027 3.2289 0.583116 0.581129 -0.459734
26 1 4.49212 1.54713 4.91172 -0.468637 0.532373 -1.11712
27 1 2.53585 0.869633 6.6617 -0.0762459 -0.45322 -1.08467
28 1 5.23304 1.31258 2.0789 -0.608829 -0.870868 0.729631
29 1 9.13507 3.74098 1.14803 -0.423761 0.397538 -1.0255
30 1 0.08866 3.51489 3.92728 -0.402681 0.498009 0.0805042
31 1 1.17877 1.41365 0.702617 0.0802034 -1.10659 1.34994
32 1 4.57327 4.79369 6.24221 0.240421 0.110586 0.341795
33 1 5.34728 0.984616 0.021306 0.37412 0.20543 -1.30304
34 1 5.80899 0.309087 2.24198 1.14968 0.0970074 0.118577
35 1 2.57008 4.48445 4.61122 -1.42786 0.628225 0.829335
36 1 3.24706 0.950423 3.2971 -0.362649 -1.747 0.43448
37 1 6.61136 4.48027 0.00983005 0.133077 0.459886 -0.0589846
38 1 0.664616 0.447253 0.910958 -0.56513 0.520348 -0.348926
39 1 6.76494 9.27681 2.43139 1.4192 -0.121114 -1.01188
40 1 1.65608 0.00389444 7.9292 -0.112275 0.208146 1.09114
41 1 5.38747 0.915235 6.81003 -0.263426 -0.210161 0.49131
42 1 1.49594 8.87248 4.17407 -0.465924 -0.582293 0.301949
43 1 4.67535 9.28614 7.61408 -0.596247 -0.295556 0.951495
44 1 2.91495 0.399388 5.71828 0.0792794 -0.642684 -0.653061
45 1 1.27396 9.09002 5.32296 -1.01723 -0.0475012 -0.396501
46 1 0.938331 5.36538 1.80452 -0.203785 0.91588 -0.377316
47 1 0.411666 9.16602 1.76588 0.168783 0.34 0.35897
48 1 5.29436 9.00824 4.57446 -0.490951 -0.610019 0.170672
49 1 1.85648 3.53999 5.9517 -0.280552 1.17228 0.643841
50 1 7.86579 2.60138 3.87658 -0.380562 -0.925775 0.397877
51 1 7.83023 5.56747 3.15335 0.29185 -0.182297 -0.606455
52 1 5.13168 8.36634 3.24593 -1.54202 0.546584 0.597951
53 1 2.99535 9.06942 6.46979 -0.938277 0.941617 -0.204223
54 1 8.26426 0.3026 6.65906 -0.124686 0.455434 0.830712
55 1 2.02402 5.12636 3.97421 -0.484502 0.188279 0.460591
56 1 1.31821 7.14966 4.88331 0.134554 -0.833903 -0.128226
57 1 3.31088 5.28507 5.90026 0.366515 1.56774 -0.167149
58 1 5.37785 5.77745 2.83534 -1.47449 0.978421 0.321535
59 1 7.06361 8.8286 7.19677 0.302411 -0.946502 -0.0618319
60 1 1.27692 0.529472 4.42999 0.298935 0.585873 -0.504968
61 1 2.7873 7.64998 2.13273 0.215691 1.13291 -1.01041
62 1 7.32487 1.54472 1.79652 1.27701 0.725933 0.926924
63 1 8.45759 3.57057 3.60071 1.25216 -1.06092 -0.0414
64 1 9.21034 8.80973 0.580539 0.0986153 -0.622827 0.544336
65 1 8.4552 1.80257 3.3962 -0.162697 0.335378 0.28371
66 1 3.31106 3.70489 8.47081 -0.267295 -0.250516 0.0622781
67 1 8.02089 8.63829 8.86025 0.0891611 -0.359117 -0.0492901
68 1 4.79359 6.29353 1.1378 -0.770539 1.15623 -0.652296
69 1 6.00512 8.20035 1.30168 0.310234 -0.780832 1.15593
70 1 7.13582 4.31419 2.66148 0.979415 -0.747662 -0.592378
71 1 8.08071 0.923743 7.44552 1.33424 0.816293 0.668711
72 1 4.85689 3.04582 1.46204 0.540222 1.10814 0.148003
73 1 3.13431 6.61959 3.70417 0.0590289 0.507845 -0.221752
74 1 4.13374 0.931816 1.73284 -0.692184 1.61342 -1.71976
75 1 5.77623 2.96244 0.761676 0.774169 1.27572 1.359
76 1 7.82962 7.37791 1.93451 -0.836153 0.323251 -0.948917
77 1 8.77394 3.30767 4.67167 -0.697968 -0.447534 -0.445474
78 1 2.22837 8.25279 1.48007 -0.589358 0.500045 0.261281
79 1 6.29899 9.27594 8.04238 -0.166863 -0.118243 0.969
80 1 1.28513 0.980307 8.14976 -0.207685 0.726135 -0.399317
81 1 3.49078 6.76779 7.41857 -1.1093 -0.215676 -0.0530177
82 1 5.06942 0.717639 2.89482 1.08681 0.134498 -0.654226
83 1 3.3795 5.31863 4.70572 -0.125172 -0.615475 1.03287
84 1 1.07911 3.99551 5.37262 -0.0533584 1.01547 -1.33257
85 1 3.79097 2.49931 8.36878 -0.818289 0.49907 -0.392148
86 1 2.55413 3.71333 7.78735 -0.383578 0.721273 -1.1411
87 1 3.43438 3.1605 3.22037 0.612572 -0.652613 0.414548
88 1 0.283939 1.38918 1.49368 0.492952 0.264046 0.464928
89 1 6.13703 4.05584 2.0978 -0.366854 -0.672365 0.129343
90 1 6.44746 5.87827 2.61351 -0.0252547 1.0318 0.243979
91 1 0.450884 6.67183 3.0014 0.910884 0.713601 -0.338086
92 1 8.08503 0.319396 8.55983 -0.250993 0.110954 -0.594068
93 1 4.32123 0.770361 6.96918 -0.496346 -0.858551 0.49743
94 1 1.40375 5.55109 5.53903 0.201888 -0.695615 -0.206807
95 1 8.02593 7.70708 4.18907 -0.199293 -0.421572 -0.508779
96 1 7.1323 6.47779 6.85383 1.07049 0.468455 0.0433982
97 1 2.17561 6.37562 1.52194 -1.0184 0.0248225 0.998808
98 1 5.93364 9.10536 0.848862 0.805478 0.574197 -0.35216
99 1 6.93751 8.4447 6.22839 0.450788 -0.0828339 1.05559
100 1 7.00683 8.67102 0.044972 0.936812 -0.319365 0.493575
101 1 5.79849 4.45922 8.68068 1.23632 -0.802502 -0.842429
102 1 2.07288 3.80759 1.91573 -0.315278 0.569454 -0.295103
103 1 4.52764 7.60887 6.74419 0.486526 -1.1275 0.521299
104 1 4.21535 6.75088 3.69311 -0.7087 1.22094 0.526557
105 1 0.319308 8.56376 4.01948 -0.26746 0.172351 0.00693928
106 1 9.20847 2.38957 6.16609 1.35423 0.933355 -0.173758
107 1 5.10916 6.16764 3.70939 0.234575 0.0830918 -0.210391
108 1 7.3319 8.23309 5.23634 -0.592218 -0.739426 -0.537936
109 1 8.42119 0.932271 -0.00862098 0.482305 0.0627551 -0.119356
110 1 8.41044 4.8998 9.13556 0.502021 -2.23041 1.0605
111 1 7.97207 8.66205 6.76545 -0.847214 -0.801758 -0.971364
112 1 6.80888 2.2996 1.07682 0.221182 1.32594 -0.815318
113 1 2.90665 3.7302 1.38176 0.197275 0.49082 0.622012
114 1 4.65124 4.09557 2.68173 -0.238379 -1.13492 -1.399
115 1 6.02299 0.299899 5.33698 -1.15055 0.681991 1.00275
116 1 5.85769 1.76375 8.7779 -0.122684 1.06956 -1.49144
117 1 8.04548 9.13716 7.68098 0.840298 1.34867 -1.28857
118 1 7.48715 3.25848 8.43034 0.506253 0.926869 0.56375
119 1 4.18706 1.87157 6.57812 -0.648076 -1.05646 0.310951
120 1 2.29046 8.46109 6.85855 0.302545 -0.910246 -0.0718082
121 1 3.99091 0.0494599 6.06852 -0.788865 -0.5739 -0.233524
122 1 2.57615 8.67116 4.16669 0.543631 0.0220769 -0.21144
123 1 3.34995 4.55748 7.97886 -0.677058 -1.35361 0.489384
124 1 1.33267 0.761522 5.39634 -0.234618 0.975291 -0.285959
125 1 6.22366 4.77143 5.60926 0.689939 0.128305 -0.48956
126 1 5.53064 3.79686 3.3472 -0.807652 -0.217373 -0.71033
127 1 5.00032 9.31978 5.58607 -0.24347 -0.152966 1.07636
128 1 6.90944 5.52993 7.33929 -0.258928 0.609072 -0.131552
129 1 0.788035 8.82972 8.34073 0.159163 0.596519 0.388954
130 1 1.822 1.18031 2.5898 -0.408589 -0.596349 -0.239915
131 1 8.62748 2.98234 0.733204 -0.580934 -0.547596 -0.765399
132 1 8.9466 9.03844 2.42174 0.171588 0.000686761 0.453745
133 1 5.23903 1.68445 3.23664 1.11854 -0.366164 0.328612
134 1 8.71196 5.84343 8.79112 -0.761376 -0.638992 -0.69317
135 1 8.54933 5.92086 4.19634 -0.0586483 -0.677542 -0.050212
136 1 7.19283 0.206586 6.54691 0.335657 0.383495 -0.0596069
137 1 2.28851 5.77157 6.15699 0.206197 0.133228 0.7793
138 1 3.7584 8.3283 9.38594 -0.445757 -0.827862 0.279117
139 1 0.75156 9.2677 7.17362 0.467289 0.466269 -0.534417
140 1 9.24965 5.53535 1.6171 -0.653667 0.327356 -1.29825
141 1 3.31702 8.99988 2.58364 -0.977017 -1.17004 0.841212
142 1 4.93541 7.96861 8.60536 -0.106922 -0.239321 -0.054095
143 1 4.52408 4.39226 0.665487 -2.13411 -1.45076 0.359423
144 1 1.62503 1.86742 3.31006 0.224616 -0.290021 0.677297
145 1 7.40123 4.92198 8.75435 0.490082 -0.512731 0.659854
146 1 4.36762 0.558956 0.608678 -0.294525 0.870309 0.953774
147 1 5.9379 5.29286 7.20858 -0.914993 -0.452574 1.42285
148 1 2.28737 7.29921 5.39263 0.510777 -0.527376 -0.357088
149 1 3.32177 9.22758 4.97994 -0.70325 -0.80456 0.904367
150 1 0.745567 6.77787 4.15775 0.149179 -0.306011 -0.0152196
151 1 7.7411 9.04428 5.83676 -0.112773 1.02102 -0.1208
152 1 6.24094 8.03927 6.88234 -0.529828 1.18982 0.351896
153 1 3.95833 5.73207 8.82442 -0.478657 0.474657 -0.161371
154 1 4.2621 6.52174 2.08235 0.766267 0.336165 0.656664
155 1 7.71338 7.24018 5.21878 0.925548 -0.0887892 0.282572
156 1 6.30507 7.78907 4.44483 0.162849 0.348531 -1.1859
157 1 6.85068 3.946 7.03714 0.162938 -0.780372 0.0939073
158 1 3.17112 6.40943 9.29501 -0.953363 -0.195573 0.0688225
159 1 1.96654 7.53449 6.46336 -0.243234 -1.33167 1.32828
160 1 0.563834 5.15618 6.33421 0.356174 -0.939518 -0.395178
161 1 0.772135 1.95761 6.0611 -1.07431 -0.276901 1.56831
162 1 0.445119 5.36589 0.717893 1.21836 -0.325475 -0.108731
163 1 8.87452 0.170828 5.77804 -0.0746334 0.274775 -0.011281
164 1 1.45615 0.631109 7.09679 1.49798 -1.16113 -0.393757
165 1 3.91993 4.95325 2.26291 0.200857 -0.285693 0.320599
166 1 6.40336 5.11103 0.969529 -0.985972 0.456239 -0.199919
167 1 2.78589 7.44596 3.19303 -0.137575 0.764955 -0.44568
168 1 7.37136 4.18878 0.910495 0.30007 -0.180728 0.00437306
169 1 1.19858 5.55414 9.28448 0.847837 -0.414267 0.200858
170 1 8.99079 2.66412 3.67057 0.0481272 0.00639104 0.948224
171 1 5.29597 6.74983 0.314311 2.25249 0.106368 1.23218
172 1 1.04298 4.71705 7.15758 0.199671 -0.424029 -0.188641
173 1 3.49511 4.74403 1.3193 -0.174243 0.191403 -0.390804
174 1 3.90026 6.72676 8.43273 -0.146023 0.352139 -0.0768365
175 1 6.58493 5.54071 8.93728 -0.736783 -0.151004 -1.017
176 1 4.66597 0.955592 5.96695 0.0111929 -1.27358 1.59505
177 1 4.97978 8.07516 1.18041 0.859778 -1.39933 0.118701
178 1 6.23888 3.01704 1.68471 0.251329 0.182816 1.00622
179 1 5.87454 3.48072 4.35104 -0.619424 -0.659791 -0.661073
180 1 1.50887 7.01978 3.43436 -0.460836 -0.260447 0.882863
181 1 7.93439 5.97467 0.931462 -0.296029 0.536019 0.0962649
182 1 1.49286 1.59488 4.33066 0.439477 0.703325 1.76596
183 1 2.24961 3.38438 8.78333 0.489492 0.372604 0.516419
184 1 6.49223 7.05153 7.27773 -0.564397 0.16515 0.498485
185 1 0.346272 8.95693 5.95801 -0.400637 -1.10804 1.40597
186 1 1.05653 4.22788 2.05397 1.01746 -0.882394 0.41135
187 1 0.807228 2.25991 4.1149 -0.0950218 -0.33053 -0.412044
188 1 1.85777 7.98383 2.56944 0.343449 -0.701369 -0.709287
189 1 4.32376 7.96029 3.58573 -0.0123302 0.0659628 -0.262962
190 1 5.88403 6.91655 2.81166 0.10769 0.208536 0.0119082
191 1 3.62676 4.22254 6.08693 0.641423 0.0610726 -0.616136
192 1 0.833079 0.960174 9.18508 0.495864 0.724591 -0.618241
193 1 3.72037 9.17048 0.677786 0.765401 -0.138506 0.513084
194 1 8.50834 8.37662 3.1752 -0.403856 -0.171613 -0.513768
195 1 6.59163 0.315436 1.57153 -0.0192605 0.671542 0.575951
196 1 0.508484 8.93886 2.84999 0.594617 0.367083 -0.0665768
197 1 5.71936 5.51708 1.90898 0.0105709 -0.554435 -0.738044
198 1 8.05491 1.32013 8.39468 -0.971352 -1.14876 -1.00308
199 1 7.9005 1.15865 6.45442 1.49573 -0.507006 1.07787
200 1 2.69377 0.172071 0.152416 0.38821 1.27058 -0.553911
201 1 6.06798 2.42836 4.30423 1.13082 1.26136 1.31154
202 1 1.63831 6.28899 4.14235 -0.539678 -0.81509 -0.0331024
203 1 5.99814 8.97017 7.0853 1.07368 -0.825985 -0.391715
204 1 6.4394 2.44164 0.0425387 0.607496 -0.0417908 -0.14909
205 1 6.20208 0.285938 6.29745 0.55112 1.02412 -1.10992
206 1 1.98231 9.4247 6.18687 0.0605718 1.44552 1.20712
207 1 6.44821 1.20706 3.77339 0.939053 1.33389 0.383257
208 1 0.165617 5.60469 2.71078 -0.384674 -0.720108 1.10067
209 1 7.04968 7.39692 6.41011 0.22496 -0.349342 -0.27762
210 1 1.7538 2.32684 6.32498 0.019363 -1.36412 0.700423
211 1 7.89511 8.60332 0.719525 -0.105049 0.726387 -0.719692
212 1 6.12191 6.92789 3.82565 -1.63331 -0.869481 -0.145482
213 1 0.853636 5.88075 4.71716 -1.07366 -1.00231 -0.525833
214 1 6.97838 1.52668 2.77693 -0.0508431 -0.293973 0.316207
215 1 5.22675 5.98424 5.34343 -0.701148 0.575242 -0.564101
216 1 7.03525 6.61411 5.69474 1.02583 -0.350061 -0.1121
217 1 1.50685 1.23312 6.32908 -0.313738 -0.310774 -0.0606425
218 1 3.96408 2.84559 4.03773 0.107302 -0.322536 -0.87781
219 1 7.24814 5.31963 0.361306 -0.396778 0.252066 -0.384446
220 1 0.571708 1.74134 8.3956 -0.277736 0.0285841 -0.0951099
221 1 7.14414 8.74098 8.26032 -0.0249948 0.736067 -0.0881893
222 1 4.69973 5.61189 1.91687 -0.595287 -0.206971 0.344373
223 1 2.98287 1.94122 7.90599 0.795692 1.20974 0.419375
224 1 7.1683 5.1529 5.41816 -0.14684 0.0542347 0.535248
225 1 0.725367 4.2389 8.04721 0.282933 -0.043189 -0.216158
226 1 3.90404 1.03562 4.18822 -0.688669 1.81389 -0.297993
227 1 8.20463 5.26926 4.93706 0.00307457 -1.25618 0.471066
228 1 0.0119198 0.481538 6.63698 0.287448 0.588356 0.0872502
229 1 1.45801 2.61261 8.80854 0.198454 -0.642502 -0.193969
230 1 4.75454 1.99183 8.45989 0.238449 0.0405492 -0.0430174
231 1 6.04869 6.87663 6.29571 0.897529 -0.45293 -0.907778
232 1 2.67737 3.34857 0.425417 0.263338 -0.883386 0.196914
233 1 7.63615 7.93481 2.73746 -0.97376 0.414167 0.236098
234 1 6.22298 7.16843 0.50486 -0.746351 -1.0306 -0.346115
235 1 6.223 5.99969 7.94379 -1.77224 0.415442 -0.00862836
236 1 6.59851 3.83912 6.04976 0.549702 -0.825119 0.448695
237 1 6.9783 1.98219 4.49267 1.09775 0.512304 -1.15525
238 1 7.83381 3.67134 7.44729 -1.25669 -0.0368813 0.365517
239 1 5.44798 7.72996 6.15629 -0.810456 0.369675 0.272447
240 1 1.15914 2.48997 7.87163 -0.357549 -0.0725541 0.514092
241 1 2.92738 4.48137 2.29471 -0.77216 0.86699 0.532343
242 1 5.55382 4.40743 0.394998 0.147139 -1.92798 -0.911921
243 1 0.925201 7.56103 2.7703 0.578755 0.292827 0.132062
244 1 5.69237 3.95448 5.27458 0.670204 1.37792 -0.743339
245 1 5.72756 2.63448 3.39998 -0.742525 -0.922331 -0.0755797
246 1 7.68524 2.25832 2.84145 1.59693 -0.434906 0.121258
247 1 5.39818 3.35906 2.37764 0.487882 0.397785 -0.951934
248 1 5.19704 8.34683 6.98438 -0.584172 0.430896 -0.306974
249 1 5.40037 5.35033 4.24734 0.159988 -0.371277 -0.711166
250 1 4.59003 5.94942 4.56923 -0.34678 0.129863 -0.0897879
251 1 5.59899 2.35029 8.05159 -0.460425 -0.384665 0.189728
252 1 8.80485 5.25434 3.36411 0.501881 -0.354742 0.0142829
253 1 2.19102 8.95216 2.2487 0.294661 0.478531 0.202772
254 1 6.22436 1.31374 1.72487 -0.999256 1.05821 0.609391
255 1 6.94475 4.91584 3.52025 -0.294529 0.542512 0.329182
256 1 9.01399 3.96257 9.07726 0.76026 0.5398 0.523803
257 1 6.93923 0.151311 3.96461 -0.300911 2.49897 0.47615
258 1 2.25799 8.77933 3.20397 -0.753569 0.535408 1.10457
259 1 5.39028 5.35837 6.26283 0.80509 -0.0909941 -1.29812
260 1 3.79484 3.62121 0.688009 -1.09879 -0.729194 1.00842
261 1 0.379542 7.37513 9.08862 -0.408888 1.33634 -0.260383
262 1 7.97346 0.617394 1.04617 -0.496244 0.346376 -0.144908
263 1 7.75295 6.7024 4.28263 1.19475 -0.00367696 -0.102961
264 1 8.03244 5.2722 6.93209 0.877775 -0.000633868 -0.247912
265 1 5.02855 2.36658 2.45701 0.0264018 -0.0979844 0.273754
266 1 8.89964 6.78579 8.80445 0.494708 0.328341 0.178798
267 1 5.54277 2.14362 1.5548 -0.225736 0.906493 1.28743
268 1 6.3658 1.12138 0.0698606 0.319358 0.309487 -0.181021
269 1 0.707258 7.04368 0.634947 -0.818876 -0.195822 0.3765
270 1 0.700404 8.21055 5.0028 -1.1238 2.76799e-05 -0.797475
271 1 3.11228 6.30356 0.930478 0.175522 -0.50231 -0.818233
272 1 1.41331 4.24279 8.93988 -0.340763 0.210103 -0.596458
273 1 6.72856 4.94839 1.91311 -0.704807 1.45343 1.31417
274 1 4.22134 3.92012 9.17897 -0.0211826 -0.161318 -0.156338
275 1 5.31837 8.86402 1.81774 -0.0447517 -0.105341 -1.0484
276 1 7.68805 8.53952 1.82951 -0.107933 -0.117584 -0.0726677
277 1 5.26285 9.28824 3.47768 0.0845876 -0.384152 -1.76429
278 1 2.62505 2.74626 5.64033 0.0338718 -0.736757 -0.387464
279 1 0.399687 4.52135 1.29833 -0.949489 -0.78844 0.190778
280 1 3.53011 1.14069 6.19177 -0.684094 0.356561 -0.394094
281 1 6.76259 8.20647 2.24443 -0.423221 0.733133 -1.43472
282 1 1.53154 0.659812 3.40757 -0.217385 0.697963 1.0231
283 1 9.33216 7.75736 5.60904 0.640153 0.00870606 0.110266
284 1 7.49224 5.71021 4.23052 -0.558751 0.57067 0.345327
285 1 7.99585 0.66254 5.38904 0.63282 -0.768199 0.813196
286 1 2.54393 1.61504 5.93002 -0.611086 0.306122 0.355809
287 1 4.29192 8.31076 7.61997 -0.0223273 -0.660803 1.43069
288 1 0.0785031 8.06749 2.35047 -0.396342 -0.589534 -0.846688
289 1 5.83955 1.78774 0.63011 -0.0329299 -0.0596078 -1.9143
290 1 3.63424 5.71066 7.44874 1.21668 -0.743148 0.675189
291 1 6.5063 4.99482 8.11279 -1.12962 0.762264 -1.34689
292 1 3.96532 4.66024 7.06445 -0.382963 0.146093 -0.143817
293 1 9.0902 3.40898 2.85415 0.772352 -0.851802 -0.800225
294 1 0.619115 3.38061 7.51457 0.611286 1.03993 -0.241777
295 1 5.99214 2.14729 5.32114 0.402841 -0.532823 -0.923778
296 1 7.39673 6.87076 0.924896 -0.271013 0.898227 -0.357126
297 1 7.98354 6.24189 5.37208 -0.565044 0.792395 -1.19755
298 1 1.95592 5.12764 6.97804 -0.709951 -0.167485 -0.173323
299 1 2.27857 0.333839 4.07842 0.551471 0.369811 0.23031
300 1 0.744021 2.1185 0.00444021 0.42782 -0.666837 -1.25004
301 1 4.54546 8.90085 8.57265 0.374456 -0.068539 -0.728099
302 1 5.94177 0.355896 4.22982 -0.205078 0.962516 0.518145
303 1 3.62142 2.00376 4.49477 -1.78956 0.371481 0.00883559
304 1 0.758806 6.23509 7.44271 1.64741 -0.699203 -0.491893
305 1 3.34066 1.01025 7.32373 -0.0441002 -0.348306 -0.0420597
306 1 1.29411 8.42397 3.29586 0.251038 0.459498 -1.25476
307 1 5.89095 8.74286 6.10372 -1.1306 0.844089 -0.687969
308 1 2.4521 8.64076 7.9036 -0.390685 0.439993 1.10946
309 1 8.11542 6.31403 7.14702 1.51332 0.847073 -0.952634
310 1 8.69923 6.28814 2.87974 0.615115 0.14444 0.516324
311 1 9.07149 7.61422 0.367185 0.101281 -0.207355 -0.853429
312 1 5.80333 6.10017 0.982893 -0.531586 -0.0216938 -0.305437
313 1 6.96978 6.37088 3.53654 0.283923 -0.0738646 -0.068873
314 1 7.14458 3.5374 1.74946 0.0695012 -0.805405 0.215131
315 1 3.11984 4.02247 7.00897 0.576331 0.190548 -1.35652
316 1 9.11194 4.76535 8.30264 -0.38408 0.763816 1.05784
317 1 8.4999 6.37011 1.75918 0.0321792 -0.617373 -0.881275
318 1 9.15175 4.30474 3.47616 -0.600349 1.21714 1.12552
319 1 3.40311 1.62681 2.41171 0.799438 -0.73597 -0.673161
320 1 5.04756 6.81316 6.05838 -0.651024 -0.407387 -0.0854696
321 1 0.443961 3.77812 0.331091 -0.538318 -1.56487 -0.0331025
322 1 2.33114 9.23361 5.01323 0.44874 0.25067 0.173905
323 1 2.30247 2.8455 3.02302 0.679495 -0.91457 0.580743
324 1 1.95408 5.92178 8.63398 0.0530529 0.257719 -1.07091
325 1 8.00326 7.64057 0.193455 0.56297 -0.00440692 -0.92987
326 1 3.66425 2.00014 3.39007 -0.431432 0.257987 -0.151505
327 1 3.23064 2.1304 1.6336 -0.21966 -0.646387 -0.45841
328 1 7.80097 3.53154 4.36036 0.849595 -1.05725 -0.217211
329 1 9.04717 0.429416 0.769488 -0.103045 -0.645775 -0.585616
330 1 3.43638 2.97905 9.21334 0.465897 -0.794301 0.192009
331 1 2.33735 1.00666 5.06127 -1.46422 -0.760211 1.6084
332 1 2.81223 1.3288 4.22404 0.580017 0.340614 -0.35267
333 1 1.32114 3.00794 1.68292 0.33185 1.08049 1.41686
334 1 2.61262 6.77582 6.22234 0.308841 0.843433 -1.17099
335 1 9.35955 6.38415 1.08562 0.257082 -0.216065 -1.09102
336 1 6.13713 5.77204 3.55794 0.275011 0.6888 -0.918754
337 1 8.52796 0.551119 2.85304 -0.674614 -0.172617 0.139221
338 1 6.45246 2.09614 7.19423 -0.555928 0.660196 0.0181642
339 1 5.94681 6.36654 8.88371 0.375191 0.219285 0.116763
340 1 2.88167 7.98864 6.12436 -1.23665 0.29315 0.00539007
341 1 5.83222 7.77439 7.94394 0.0795005 -0.350324 -0.289293
342 1 0.406489 0.867205 7.61413 0.217493 0.267474 0.0531178
343 1 7.95765 7.13212 3.40956 1.75557 -1.75301 0.524673
344 1 1.61651 3.14989 7.136 -0.246694 -0.847084 0.464849
345 1 6.39444 7.76291 5.60346 0.264855 -0.498117 -1.03233
346 1 0.430208 2.96175 1.11175 0.874002 -0.911609 0.396617
347 1 7.2861 6.36057 7.8839 0.082463 0.140551 0.984461
348 1 6.74161 1.3002 6.44071 -1.2257 0.562096 -1.83199
349 1 3.86488 2.46296 0.71943 -0.576625 -0.0491498 0.102453
350 1 1.55365 2.76286 5.22578 0.254821 -1.34645 -1.26304
351 1 6.12419 9.17089 9.13644 0.239758 -0.158374 -1.0361
352 1 4.34725 6.50064 6.87898 0.254949 1.51738 -1.3967
353 1 8.51771 4.31741 4.30717 1.09137 -0.507222 -0.638848
354 1 1.76305 6.74448 7.07556 1.06795 0.772691 -0.425754
355 1 1.44749 6.6867 2.37096 0.676586 -0.40137 0.141452
356 1 7.46701 2.54676 7.61593 -0.423732 1.0988 -0.662918
357 1 9.21536 5.07081 4.32181 1.87681 0.942813 -0.0654937
358 1 5.08626 2.62517 6.59723 0.414138 -0.628377 0.705347
359 1 2.25491 5.95663 0.318934 -0.0854958 0.309805 -0.710696
360 1 4.44692 1.45477 0.0734659 1.56693 -0.116869 1.11739
361 1 9.06149 1.11317 5.01837 0.936819 0.0687758 0.735297
362 1 1.86274 1.87924 0.0660546 -0.181975 1.22006 -0.136647
363 1 9.08933 4.7246 0.553571 -0.648759 -0.498128 -0.229109
364 1 9.00346 1.41062 2.35861 0.203795 1.46549 -0.436915
365 1 4.37623 5.40623 0.329174 -0.642817 0.101999 1.76495
366 1 5.06409 0.413542 1.51102 -0.656567 1.04025 -0.526612
367 1 2.00964 4.00577 6.84773 0.865156 -0.471678 -1.252
368 1 3.08915 5.09281 3.63895 -0.329819 -1.26215 0.612126
369 1 9.02958 7.27124 1.7535 -0.551176 0.00800266 0.557342
370 1 2.19573 7.63457 0.33543 -0.315772 0.835584 -0.327896
371 1 0.608588 0.104308 3.68787 0.49804 -0.73515 0.59828
372 1 4.62648 3.99602 5.63122 -0.617676 -0.847594 -0.772912
373 1 6.78175 4.00037 8.42921 -1.47045 -0.322658 -0.22553
374 1 9.05567 0.486589 1.86493 -1.04755 0.710699 -1.63097
375 1 3.95701 7.47235 1.72061 0.356495 -0.336977 -1.182
376 1 3.56064 4.77119 9.03902 -0.340676 0.559913 -0.855106
377 1 3.78193 7.70976 8.26263 -0.301406 -1.28545 0.501302
378 1 4.60013 7.44069 2.58829 -1.02373 -0.346802 -0.399116
379 1 7.75219 4.43832 1.79476 -0.302411 1.10183 -0.191823
380 1 0.0233631 3.24824 5.55694 -0.346332 -0.883974 0.293325
381 1 3.39147 2.97733 4.91992 -0.438469 -0.705382 -0.254272
382 1 3.61059 8.53435 5.71021 -0.861618 0.872815 -0.323989
383 1 1.30603 6.60791 9.27348 0.109384 -1.1581 0.101972
384 1 5.12865 7.95165 4.28304 0.665667 0.595519 0.543409
385 1 5.23888 5.19841 0.980839 0.0940018 -0.0968634 0.3084
386 1 8.89169 6.88123 3.76909 0.0827918 -0.643762 -0.224801
387 1 0.381164 3.39377 2.11886 0.158758 0.271785 -0.442928
388 1 5.3397 0.224175 8.41851 -0.807297 0.927799 -0.137022
389 1 6.4563 0.597333 7.24795 -0.182402 -0.805062 0.268471
390 1 3.11856 6.13459 5.42142 -0.365829 0.427256 -0.345441
391 1 8.75992 8.57574 4.16635 0.383004 0.116755 0.586521
392 1 4.35598 5.90458 2.92253 -0.715184 1.15257 0.681034
393 1 7.08237 8.45154 4.27306 -0.741656 0.168509 -1.33703
394 1 4.57416 3.09622 3.11806 -0.391089 0.199984 -1.05501
395 1 6.00242 1.21786 2.74592 0.169551 -1.12785 1.11772
396 1 3.1987 0.623088 1.08078 -0.263824 0.961519 0.40777
397 1 6.07722 4.52624 3.86902 0.302894 1.14141 0.730539
398 1 8.50459 4.47551 7.51433 -0.601685 -0.597132 0.618361
399 1 7.3614 0.581664 3.05613 -0.575834 -0.662818 0.363072
400 1 0.619769 3.97415 3.02614 -0.34347 -0.0957071 -0.639581
401 1 5.74514 5.36994 0.116737 0.446401 -1.34531 1.29495
402 1 1.63597 4.18385 3.55802 0.0626423 0.219512 0.834702
403 1 1.40752 3.42301 2.69642 0.167719 -0.649337 0.038401
404 1 3.84301 9.36335 1.73687 -0.760644 0.509768 0.371195
405 1 1.83527 3.71884 4.63604 -0.623545 -0.324854 0.015869
406 1 4.98587 1.30936 1.01523 0.203184 0.515339 -0.959591
407 1 6.8468 8.67743 1.09071 0.118192 -0.0877536 1.31908
408 1 2.61653 1.24827 0.558187 -0.130406 0.755104 -0.188866
409 1 9.25324 4.11881 4.93602 -0.223598 -1.3163 0.578704
410 1 6.8967 3.20403 0.654591 -0.151694 0.210345 0.202649
411 1 6.43858 3.17819 2.71778 0.125677 -0.10823 -0.228941
412 1 2.6626 6.00429 4.43393 -0.975686 -0.526917 0.824208
413 1 1.84137 9.13239 8.96837 0.0676143 0.908782 -1.26936
414 1 5.83495 0.702991 0.894111 0.0454357 0.388646 -1.23123
415 1 6.99558 0.143904 8.88314 -0.259375 -0.351528 0.431228
416 1 0.655079 9.23174 9.34026 0.0562516 0.460479 0.432695
417 1 8.00466 3.03906 2.30405 0.310253 -0.77449 0.74118
418 1 5.78133 1.90551 6.39878 0.757963 -0.0181458 1.37434
419 1 1.41556 2.38672 2.41771 -0.253846 -0.463472 0.376911
420 1 0.249165 4.2131 5.97604 2.21902 0.523361 0.328214
421 1 2.11394 7.80742 8.69236 -0.174336 -0.0808185 -1.04955
422 1 7.33755 0.985486 4.61703 2.1527 -0.213429 -0.0699276
423 1 6.35518 3.06393 5.33213 0.221304 -0.305191 0.865097
424 1 3.346 5.98375 2.87254 -1.02503 -1.03883 -0.0391978
425 1 8.38409 3.19608 5.75774 -0.518042 -0.600971 0.174007
426 1 0.698249 2.52871 6.94709 0.959034 -0.145296 -0.843434
427 1 7.44393 3.29248 3.16179 -0.0663381 0.35021 -0.654998
428 1 2.93865 8.33546 0.686242 -0.159429 1.07533 -0.269631
429 1 5.62272 1.17099 7.8555 -0.474546 0.0990774 -0.508507
430 1 8.85527 2.83857 1.67275 -0.760481 1.08124 0.845375
431 1 8.44978 5.6796 6.0592 0.345318 -0.606286 0.33155
432 1 2.31932 7.08891 4.3819 -1.24881 -0.0790165 0.763937
433 1 8.29238 2.81578 6.86966 -1.07155 -0.073353 1.466
434 1 6.94852 3.89371 3.78565 -0.763796 -0.119878 -0.701883
435 1 7.46914 5.72591 6.24664 -0.0874775 -1.36663 0.917372
436 1 0.19141 7.08658 7.29578 -0.634034 0.324736 0.302823
437 1 3.23754 6.65896 1.8896 0.462877 -0.239176 0.250893
438 1 3.00557 5.55579 2.00379 -0.284954 1.20154 -0.594898
439 1 4.49103 0.465861 8.9941 0.642142 -1.21144 0.725361
440 1 3.27918 8.43625 1.70489 -0.315817 -0.701955 0.172389
441 1 5.49707 2.74221 9.16212 0.305333 0.0270887 0.638282
442 1 2.21591 6.84586 9.07002 -0.405896 1.61766 -0.918927
443 1 2.01257 4.31993 0.940819 -0.247524 -0.55078 -1.43432
444 1 5.4607 6.27515 6.85819 -1.64811 0.265675 -0.0195135
445 1 0.365553 5.67504 8.52716 0.0572616 -0.55545 -1.06215
446 1 7.84341 2.28258 8.59138 -0.845765 -0.963118 -1.0059
447 1 9.29802 4.52093 2.49739 0.784948 0.450157 -0.331652
448 1 1.03674 7.81744 4.09134 0.618562 0.552491 -0.50864
449 1 6.25395 8.70297 5.00563 -1.01081 0.493025 0.66132
450 1 1.91965 1.80049 8.2725 0.133741 0.830316 -0.346697
451 1 7.41182 4.62964 7.68768 -0.868702 0.171146 -0.808497
452 1 8.47325 7.04191 0.990744 -0.147553 -0.974815 1.3032
453 1 2.30026 1.01784 7.73597 -1.0175 0.0428967 -0.946632
454 1 4.14353 6.41825 0.365855 0.645178 0.00844863 0.811841
455 1 1.21089 7.78549 5.77906 -1.41108 -0.190167 0.0328913
456 1 0.588988 6.15837 5.92238 0.345819 0.0521173 0.196624
457 1 7.05023 4.80781 6.44867 -0.244967 0.419917 0.584323
458 1 3.65038 8.25308 6.68685 0.376263 -0.407514 0.648801
459 1 6.7443 2.31132 5.98866 -0.415488 1.0738 0.0890238
460 1 2.92746 2.5554 3.93879 -0.0376531 0.118598 0.66324
461 1 8.43291 2.919 7.99297 1.53285 1.06481 -1.57134
462 1 5.65619 7.18824 1.40225 0.337206 -0.163286 0.473211
463 1 1.87281 8.71989 0.507203 -1.69053 0.822083 0.264868
464 1 8.55218 8.13953 1.25573 1.38273 -0.946479 -0.175409
465 1 8.83344 7.4431 6.45673 -0.476453 0.199855 -0.871718
466 1 3.02109 7.83856 7.4112 0.242391 0.118018 -0.0856622
467 1 4.65097 2.67432 7.69682 0.138888 0.404837 0.304201
468 1 7.89554 7.89105 6.04955 -0.236679 -0.366712 -0.874594
469 1 6.59375 5.19167 4.50573 -0.786657 -0.550985 -0.255976
470 1 7.36696 3.3137 5.34149 -0.535574 0.0904247 -0.358127
471 1 7.88746 1.22942 2.50149 0.410453 -0.222389 0.142699
472 1 0.207136 2.71829 8.2082 -0.0482369 -0.257204 -0.181742
473 1 4.4412 3.74664 6.57646 0.711855 0.00383493 -0.326943
474 1 3.79009 9.18922 7.19984 -0.0439688 0.0688756 -1.03985
475 1 0.811347 8.67907 0.796557 0.518191 -0.587459 -0.160338
476 1 9.1741 3.7038 8.07823 0.409714 0.699201 -1.16843
477 1 7.79559 8.96809 3.83116 0.14796 1.25731 0.440032
478 1 4.8853 8.31821 0.171158 -0.548381 0.762817 0.338252
479 1 9.20128 2.56949 7.28417 0.538676 -0.115729 0.085859
480 1 1.3157 7.79978 0.797879 0.458057 -0.315706 -1.64493
481 1 4.58345 1.9577 3.94854 0.492256 -0.121459 -0.906481
482 1 4.86988 2.29231 0.733405 -0.825587 0.41277 -0.490869
483 1 2.92475 5.19262 6.89315 -0.352151 0.53317 0.40562
484 1 2.42456 0.392401 2.8681 -0.00581678 -0.213572 0.482031
485 1 7.26453 7.87383 8.80654 0.14258 -0.634404 -0.577345
486 1 6.33006 8.29591 8.67046 -0.485754 -1.74358 -0.274105
487 1 5.87811 6.87574 5.30715 1.33794 0.20949 0.444488
488 1 8.56323 7.09913 7.78835 -0.853637 -0.394124 -0.14779
489 1 0.124154 1.30758 0.438825 -0.144152 -0.0535146 0.494961
490 1 4.65329 9.21327 2.56452 -1.02157 -0.660335 -1.34093
491 1 6.20924 7.88155 3.24185 -0.374688 0.512301 -0.220574
492 1 3.54941 2.25705 5.65128 0.342673 0.271329 0.800239
493 1 8.8352 2.4397 2.61093 0.647913 -0.670118 -1.06888
494 1 5.28288 2.98318 5.01603 -0.187109 -0.129226 0.469596
495 1 4.86076 0.835831 3.94058 0.507865 -1.6774 0.669842
496 1 4.3517 2.9523 5.79198 0.824562 -0.224487 0.0366774
497 1 2.22089 2.68057 7.90309 1.71428 -0.299797 0.321873
498 1 1.28759 0.949394 1.6485 -0.135912 0.626757 0.671602
499 1 3.54277 7.2066 0.670119 1.24645 0.761236 -0.474587
500 1 5.63617 3.46541 8.3303 -1.05395 0.0662638 -0.879947
501 1 5.94773 6.18998 4.55284 -0.596099 0.0023362 -0.279363
502 1 0.424634 8.35148 7.48339 -0.255793 0.0904915 -0.304761
503 1 5.39573 8.70836 7.99303 -0.0541056 1.41134 -0.785018
504 1 7.94473 7.51288 7.0017 0.1555 0.257993 -0.583921
505 1 4.23914 5.17639 5.34676 -0.2043 -0.126387 -0.879002
506 1 9.30389 8.8441 5.05438 0.793428 -0.274479 0.746155
507 1 9.33314 2.16061 0.890309 -0.806692 -1.0422 1.67911
508 1 6.79793 1.22043 0.932543 -0.713678 0.239047 0.128618
509 1 3.7541 0.344239 8.02349 -0.0546776 -0.46605 -0.230127
510 1 9.25401 7.60244 4.52204 0.810476 -0.0429625 -0.618604
511 1 7.99688 0.706583 3.86451 -0.450515 -0.828315 0.420632
512 1 5.2318 4.88753 5.17197 1.15201 -0.471547 -0.0531263
513 1 0.314097 6.18564 0.0349794 -0.0425623 1.10521 -0.252363