ITEM: TIMESTEP
43050000
ITEM: NUMBER OF ATOMS
1000
ITEM: BOX BOUNDS pp pp pp
0.0000000000000000e+00 9.4000000000000004e+00
0.0000000000000000e+00 9.4000000000000004e+00
0.0000000000000000e+00 9.4000000000000004e+00
ITEM: ATOMS id type x y z vx vy vz
1 1 9.12086 4.47553 1.42242 -0.787089 -0.554562 0.496076
2 1 7.07401 7.11083 0.178246 0.474663 0.607452 0.389425
3 1 3.90211 2.16141 3.42973 -0.169329 -0.431404 0.118081
4 1 5.43099 6.64274 1.02333 -0.626517 -0.216779 0.337695
5 1 1.62934 8.84458 3.66421 -0.107336 -0.388232 0.244311
6 1 6.77348 8.34705 7.16682 0.644619 -1.27931 -0.523895
7 1 2.23392 0.480302 1.90333 -0.399404 1.14832 -0.230166
8 1 4.36876 0.76751 6.97921 0.698467 0.339174 -0.348307
9 1 2.98915 5.5656 5.36807 -0.416626 -1.46079 0.783338
10 1 1.93921 6.97871 8.8523 0.486482 -0.157879 0.718834
11 1 6.7096 8.94361 5.68903 -0.224984 0.14262 0.122242
12 1 8.91986 0.098484 0.184117 0.0850783 0.649576 -0.601666
13 1 1.85226 2.95415 1.25997 -0.977834 0.376366 0.147986
14 1 3.86667 3.59379 4.62854 -1.60251 -0.268319 0.0330361
15 1 7.87125 2.07021 0.44398 -0.217657 0.0206083 0.164935
16 1 1.35875 1.3508 6.23209 -2.40718 -0.146036 0.0879535
17 1 8.74457 2.65568 0.948123 -1.26976 0.267602 -0.842421
18 1 5.48795 6.57007 8.31631 0.523556 -0.713052 1.03267
19 1 3.89865 5.03988 8.46698 0.0696695 0.112651 0.716956
20 1 8.97825 6.21728 7.38131 -0.111833 1.19881 -0.628636
21 1 8.77956 9.10112 2.57204 0.0455149 0.218546 0.341999
22 1 4.43628 4.98812 7.35761 -0.555902 0.591848 0.40632
23 1 5.18268 1.70028 9.13487 -0.379954 -0.468181 -1.54705
24 1 3.34657 6.28068 6.9456 0.101813 -1.06696 0.568279
25 1 6.4173 1.30608 1.47966 0.241172 -0.40519 0.417306
26 1 9.0128 3.15082 3.48931 -0.900165 0.986718 -0.200159
27 1 0.399434 7.46946 1.37787 1.33182 0.649606 -0.808013
28 1 4.22052 2.7541 0.922907 -1.33094 -1.63852 -0.625307
29 1 9.39258 5.49205 6.01466 0.200684 1.19143 0.000971674
30 1 0.326134 4.45324 5.89823 -0.688174 -0.254792 -0.402931
31 1 2.85703 2.19262 1.39247 -0.657608 -0.548196 -1.3437
32 1 6.96661 5.3052 6.6829 1.01018 -1.13021 0.281685
33 1 3.6582 8.70126 8.30617 0.0825487 0.769831 0.174972
34 1 5.62835 9.1293 3.87087 0.584609 -0.1648 0.82766
35 1 9.30188 1.46726 1.28062 -0.803755 -0.810111 -0.901955
36 1 4.82808 0.334981 3.11298 -0.129291 -0.824339 0.0287434
37 1 5.18421 8.49529 9.17882 -0.903608 0.43086 -0.227311
38 1 0.969073 7.95192 3.48741 0.217172 0.370986 0.484932
39 1 1.51406 7.9794 8.473 -0.499515 -0.0152656 0.533562
40 1 6.81242 2.19337 8.51842 -0.399066 -0.752967 -1.67524
41 1 7.51073 7.42609 5.09897 -0.163681 0.33889 0.993975
42 1 1.69304 1.20482 5.19737 0.672583 0.741412 0.457142
43 1 1.43913 9.16626 8.81821 0.350802 0.792331 0.731703
44 1 0.88759 2.66021 5.9586 -1.67122 0.210192 1.22102
45 1 6.52158 3.68695 3.42773 -0.0844949 0.361101 -0.972105
46 1 3.00096 3.03059 3.13048 -0.125953 -0.653756 0.570368
47 1 1.64226 5.76234 0.830284 0.526438 -0.681228 -0.812504
48 1 6.38388 5.12481 3.58584 0.450373 -0.557885 -0.00507031
49 1 2.83042 4.00845 6.2628 0.583049 -0.0510349 -0.552025
50 1 1.49822 7.31379 4.09042 -0.433548 0.360236 -0.492599
51 1 1.50987 5.94084 2.89513 0.466583 0.40694 0.0829232
52 1 3.79668 1.29637 2.54815 -0.849665 -0.890771 -0.766952
53 1 3.39739 1.72082 4.18246 1.521 -0.649052 -0.848771
54 1 7.44748 6.30051 8.70609 -0.15523 -0.607221 0.163778
55 1 2.43002 6.11233 8.7973 0.782161 1.2767 -1.20707
56 1 0.283874 4.35351 8.95222 -0.740228 -0.454789 -0.227819
57 1 0.258395 5.60781 7.82167 -0.763412 -0.0685532 0.187986
58 1 5.99274 6.77337 0.0675532 0.17642 -0.104273 0.62814
59 1 7.99116 8.4619 7.22742 -0.650031 -0.869646 -0.248609
60 1 2.52971 7.43345 3.79193 -0.556159 -0.0932772 0.747658
61 1 2.2827 2.38092 3.68136 0.561206 0.737403 -0.563872
62 1 0.467967 0.711932 0.582242 0.924445 0.765582 -0.670607
63 1 7.4026 0.441132 6.20247 1.10082 -0.19193 0.424334
64 1 8.75479 7.49269 0.72556 -1.27254 0.0907481 -0.596142
65 1 0.52331 1.56458 4.29864 0.266311 -0.507546 -1.60149
66 1 2.49923 6.52043 5.92427 -0.288445 1.8046 -0.279795
67 1 3.08798 9.09871 2.03467 -0.0838542 -0.709755 -0.955728
68 1 4.90064 6.41093 9.34892 1.5633 0.0505387 -0.603611
69 1 7.31189 4.4832 3.39313 0.540454 -0.617697 0.36444
70 1 7.27858 2.01252 3.17623 0.223128 1.77237 -0.78524
71 1 6.73127 3.36966 1.04919 0.418293 0.76475 -0.528532
72 1 5.98921 8.7461 4.73574 -0.252092 0.604596 0.456425
73 1 3.37219 7.18713 6.01476 0.251436 -0.636271 0.426925
74 1 4.56289 7.52851 4.47687 -1.04197 -0.342694 -0.169776
75 1 7.56263 2.43208 7.63554 0.562458 -0.148779 -1.78416
76 1 7.22603 2.34673 1.25816 -1.06628 -0.624045 0.426546
77 1 1.97296 3.32779 3.08424 0.0102116 -0.812202 -0.1074
78 1 3.15537 8.04762 2.1281 1.10921 1.33265 -1.74653
79 1 7.22366 0.88692 7.30709 0.193492 0.169612 -0.843765
80 1 8.84665 6.93964 9.14712 0.0801558 -0.674971 -0.333854
81 1 3.10825 6.73103 5.11947 0.137457 -0.216047 -0.777081
82 1 5.81156 1.55281 4.38529 0.604277 -0.286483 -0.367943
83 1 3.72935 4.98514 4.14222 0.256952 -0.0723358 -0.406077
84 1 0.688235 7.05105 6.46261 -0.384154 0.494074 0.254825
85 1 2.38665 2.31581 0.516325 0.230668 0.331856 -0.30981
86 1 3.73373 3.46843 9.34885 -0.505622 -0.221507 -0.214144
87 1 4.76335 3.00766 4.29946 -0.311587 -0.591105 -0.542359
88 1 8.98984 1.8283 6.49997 0.622161 0.769577 -0.254632
89 1 1.07208 3.79707 2.81819 -0.778432 0.331934 0.771605
90 1 8.10691 4.28777 2.02663 -0.199689 0.596468 -0.607018
91 1 8.47858 6.37231 4.63449 0.664613 -1.18495 -0.216947
92 1 6.56642 7.05708 8.46985 0.96953 1.07493 -0.589707
93 1 3.07686 8.96283 5.06398 -0.475284 0.537425 0.270512
94 1 1.50229 8.35022 2.62041 -0.525928 -0.914817 -0.844128
95 1 1.93215 3.7272 2.17868 -0.134379 1.46148 -0.545575
96 1 3.23531 0.450445 9.09652 0.929775 -0.409708 0.633665
97 1 2.82481 1.5729 2.16168 0.344 0.0751824 0.395633
98 1 5.90785 0.784614 3.62652 0.412395 -0.692815 0.281972
99 1 1.92665 0.412787 3.54911 0.563435 -0.585955 -0.117373
100 1 6.20401 6.83257 4.16366 0.892782 1.42516 0.724064
101 1 4.56477 5.65696 4.24416 0.104434 -0.38261 0.220706
102 1 6.51939 0.170945 4.22737 0.954788 -0.114337 -0.331386
103 1 0.479735 9.16646 1.06218 -0.187105 0.2055 -0.566568
104 1 3.9458 9.12248 9.34839 1.35017 0.444331 0.509861
105 1 7.54942 8.43868 5.37238 1.81354 -0.44493 -0.826892
106 1 8.51451 1.37756 7.58448 -1.28448 -1.04357 2.0309
107 1 7.72845 7.65141 2.00267 0.114135 0.301681 -0.63015
108 1 0.806045 2.01466 6.85338 0.166406 -0.0541044 0.545178
109 1 6.76857 3.59575 2.29888 -0.455066 -1.42582 1.47974
110 1 0.552037 6.05833 6.86659 -1.73358 -0.35987 -0.308941
111 1 3.89795 6.69452 7.84967 0.007678 0.644199 0.387332
112 1 6.6499 1.77394 0.53333 -0.862844 0.102009 -0.00822728
113 1 4.85015 3.88124 7.21218 -0.807241 0.36932 -0.282882
114 1 3.07892 1.6428 3.21989 0.260637 0.885684 -0.175593
115 1 4.95803 9.0412 4.95795 -0.22603 0.251891 -0.395367
116 1 5.26374 3.79239 8.2343 -0.870755 0.915897 1.13916
117 1 0.0227395 6.61878 0.969335 -0.606064 -0.386848 0.0956137
118 1 7.99631 2.26617 6.53718 -0.785842 0.359643 -0.0297669
119 1 6.62755 8.00157 5.1223 0.554639 -1.01381 -0.539281
120 1 2.09711 4.7954 1.4807 -1.02771 0.527511 0.645869
121 1 5.60216 7.54663 7.80195 -1.25456 -0.208407 -0.911376
122 1 1.96452 8.46778 9.25354 -0.91007 -0.627801 0.421138
123 1 1.37806 8.27996 7.48677 0.11743 0.212585 0.874242
124 1 5.72467 9.41049 5.66287 -0.00731446 -0.0477892 0.0836997
125 1 6.12493 5.35874 7.2874 1.39804 -1.24186 -0.0179736
126 1 0.596105 4.24836 1.849 0.109489 -1.36359 0.589753
127 1 2.42632 9.18424 4.28672 -0.616998 0.664246 -0.247894
128 1 4.01787 8.11651 7.50279 0.0162997 0.799157 -0.526015
129 1 4.11285 4.46382 9.31001 0.284516 0.845728 0.312865
130 1 4.30608 7.98204 6.21218 0.696814 -1.01828 -0.267922
131 1 8.83895 1.28986 4.18589 0.656344 0.801966 -0.798169
132 1 7.22854 3.96613 4.29174 -0.538082 0.227166 0.566008
133 1 5.23875 7.72992 2.31043 1.03171 -0.76697 0.46272
134 1 2.38816 6.09122 4.48446 -0.0479851 0.352277 -0.652987
135 1 4.86722 0.828855 3.98465 -0.249271 -0.186046 -0.747404
136 1 1.65802 2.75332 7.72229 -0.0600334 1.47113 -0.571796
137 1 2.22755 5.00011 0.484268 0.835357 -0.46603 -0.664087
138 1 6.76576 3.19266 7.78276 -0.30334 -1.22633 -0.613341
139 1 0.865676 3.59673 5.51257 -0.248937 0.421471 -0.993891
140 1 3.18027 4.08322 3.93009 -0.206898 -0.455713 0.647671
141 1 4.52876 8.98878 6.92071 -0.156847 0.414386 0.392298
142 1 1.31097 2.61109 0.108681 0.919117 0.123893 -0.364779
143 1 2.59918 6.38024 1.64369 0.376174 0.899373 0.779549
144 1 1.5644 3.46258 6.23108 0.660719 -0.309117 0.498926
145 1 6.20555 5.08445 8.40323 -0.163135 -0.10262 -0.268654
146 1 7.30559 0.822758 1.87536 -0.299086 0.482062 -1.35326
147 1 4.05568 0.272329 6.16293 -0.930007 -0.16968 0.106309
148 1 6.37018 4.07754 8.08373 0.462252 -0.14413 0.964011
149 1 8.6296 6.31014 1.61806 0.884359 -0.104819 0.697914
150 1 6.04864 0.279635 1.40155 0.0239351 0.358612 0.410502
151 1 0.916251 8.1363 4.51446 0.336385 0.438947 1.18852
152 1 4.91221 7.46205 0.188254 0.0536664 -0.382028 0.0911004
153 1 1.43091 6.10205 9.32488 -0.68645 0.0821068 -1.44363
154 1 6.07525 5.8445 0.865559 -1.19667 -0.294276 -0.56837
155 1 7.62986 7.00062 2.71428 -0.0050042 0.342741 1.1782
156 1 4.02449 8.40195 3.66327 -0.444215 0.78958 -0.624156
157 1 5.78919 3.95784 5.65446 1.44099 0.641212 0.51561
158 1 3.42639 5.96988 8.62371 0.325559 0.638511 -0.0325976
159 1 0.887384 7.04212 4.94996 -1.25423 0.657538 0.401149
160 1 5.89886 7.95669 6.84257 -0.43021 1.68106 0.184594
161 1 0.130864 4.58006 7.94654 -0.892172 -0.435705 0.957306
162 1 9.21668 1.2056 9.26337 -1.20642 -0.841393 -0.0913006
163 1 0.903655 4.38596 4.8311 -0.614408 0.602191 -0.878524
164 1 4.93105 8.65888 3.184 -0.443298 -1.15967 -0.184637
165 1 8.12823 0.262238 0.862532 0.89981 0.801964 -0.0628229
166 1 5.22896 6.69043 4.41375 0.315355 -1.68621 0.886529
167 1 3.5348 6.09646 2.34397 0.569387 -0.227769 0.769423
168 1 5.93862 6.41705 7.36187 -0.192198 0.192122 -0.438891
169 1 1.71945 5.40684 8.42761 0.0193555 0.134194 0.170642
170 1 1.82926 2.14124 5.73715 -0.542341 0.645981 1.3967
171 1 9.19388 4.71745 2.42811 -0.863307 0.0703396 -0.0891045
172 1 2.23527 4.30368 9.03536 -1.14251 -0.129477 0.789318
173 1 8.0994 5.51945 8.32756 0.669441 0.262753 0.508488
174 1 9.22255 3.56379 6.04664 0.483689 -0.657451 1.3149
175 1 6.80161 8.1973 2.06673 -0.611223 -0.338494 -0.222794
176 1 1.73256 1.69613 7.37499 0.304026 -1.38564 -0.201861
177 1 5.05279 9.16453 8.33385 -0.338481 0.122235 -0.884064
178 1 8.88164 3.15951 4.60232 1.3288 1.01123 0.931199
179 1 5.16954 8.28843 4.24968 0.976514 1.34305 0.0939513
180 1 0.47425 9.07039 3.92205 -1.16008 0.356411 0.107403
181 1 5.94731 7.53122 1.4589 0.868249 0.267142 1.29801
182 1 3.98684 2.17924 6.2847 -0.302109 -0.0820028 0.339373
183 1 1.50302 7.06546 7.86111 0.971779 -1.16984 0.531678
184 1 4.2396 1.11138 7.97687 -0.345961 0.266532 0.126766
185 1 2.6912 5.91424 7.79598 1.15601 -0.839501 -0.637004
186 1 2.4479 4.60453 5.45834 0.696491 0.703963 -0.136673
187 1 3.68363 3.13887 8.34383 -0.238938 0.345422 -1.63036
188 1 3.43787 5.88406 1.23744 -0.47097 -0.330687 -0.590741
189 1 2.33565 3.33969 4.08577 -1.05602 -0.503245 0.307164
190 1 6.5054 4.55877 2.61808 -1.50751 0.24408 0.261133
191 1 4.47351 6.00168 8.34204 -0.0999011 -0.334899 -0.363855
192 1 8.66641 5.1514 7.54597 0.662901 0.456226 -0.470383
193 1 3.43161 4.61963 7.5156 -0.955565 0.0915227 0.359172
194 1 2.66528 3.42119 8.93991 -0.354237 -0.0585797 0.487757
195 1 8.97807 8.65488 4.30894 0.333386 -0.715993 0.0861671
196 1 3.24358 0.695224 1.65886 -0.252194 -0.119833 1.36395
197 1 0.58192 6.26106 5.78946 0.980413 0.0571263 -0.646975
198 1 3.08844 4.12019 0.308542 -0.760357 0.534519 0.952223
199 1 1.47657 6.22442 6.37632 0.833286 1.7081 2.03736
200 1 3.59851 8.77956 6.56176 0.540394 -0.813521 -0.463169
201 1 2.10034 8.10609 0.795718 -0.452235 -0.151454 -0.373574
202 1 8.06061 0.617263 3.74402 -0.730036 0.314728 0.388321
203 1 4.44017 6.05892 6.71069 -0.194774 0.880467 -0.156645
204 1 4.39087 3.19788 6.62883 0.44833 0.189334 0.385661
205 1 6.79947 7.95167 6.13672 0.0153926 -0.770085 0.456413
206 1 0.870333 1.78784 5.34257 0.517517 0.36127 -0.704797
207 1 7.84641 3.09723 0.571132 0.306122 -0.867841 0.219539
208 1 8.37976 3.5514 5.4933 -0.937247 -0.498078 -0.0262464
209 1 5.22915 1.206 7.56575 -0.0221567 0.528817 0.132851
210 1 1.34223 1.61729 8.90412 0.484096 -0.314628 -0.384696
211 1 9.20545 2.50584 2.76509 -0.556513 -0.258181 0.167061
212 1 5.31471 6.64682 3.31421 -0.00350748 -0.296697 0.878722
213 1 1.42612 2.93771 3.91282 -0.0476191 1.57868 -1.56982
214 1 7.86303 2.37893 8.72859 0.239402 0.343653 -0.518641
215 1 4.03487 5.51402 5.10756 0.079033 -0.733851 0.619315
216 1 4.73289 5.8973 5.74274 0.249353 0.359114 0.628844
217 1 7.31051 0.354888 0.102946 -1.30146 0.982742 -0.499114
218 1 5.36859 4.50191 1.35926 0.398282 0.518171 1.35938
219 1 4.99261 5.64412 0.802812 0.381593 0.510662 -0.455685
220 1 8.50175 1.22191 0.664877 0.871058 -0.302089 -1.24988
221 1 7.26723 0.243961 5.12897 -0.0916561 0.682504 0.362752
222 1 7.95639 4.9763 2.79003 0.665111 -0.485374 -0.723194
223 1 3.22268 9.26556 0.687761 0.361913 1.45919 -0.456409
224 1 7.68003 7.74751 3.4379 0.730291 0.433278 0.751846
225 1 6.94688 6.52828 6.94465 -0.0614261 0.11144 0.246896
226 1 0.907156 7.33213 2.34704 0.011727 0.59987 0.0739956
227 1 4.90153 7.46287 1.23916 0.48014 0.824361 -1.89748
228 1 6.55735 3.31126 8.79128 1.38233 0.365393 0.630821
229 1 0.861379 8.0946 0.785686 -0.976972 0.0882495 1.0936
230 1 5.22438 2.72034 0.360931 -0.31965 -0.616126 0.31036
231 1 0.354808 5.42363 8.96147 0.392928 -0.0223072 -0.206572
232 1 6.23669 5.13343 0.115372 -1.15023 -0.0833466 -0.606023
233 1 7.33843 8.0289 8.06477 -0.947109 1.11559 0.495838
234 1 3.06406 6.95017 9.09817 0.587041 -0.534716 -0.540601
235 1 7.12012 6.96282 5.98927 -1.32051 -0.553529 0.21436
236 1 0.525069 8.73177 8.14158 0.197447 0.282223 -0.236239
237 1 7.50544 1.12386 0.884611 -0.503266 -0.0940827 0.43822
238 1 8.45898 7.92289 9.24024 0.819599 0.0988371 1.15044
239 1 3.86224 7.51502 5.20923 0.554612 1.42031 0.583133
240 1 4.32743 2.911 5.58546 -0.665823 0.0996515 0.789924
241 1 2.84768 5.34565 1.95748 1.05609 0.323598 0.33593
242 1 8.28581 2.46375 5.19863 0.111688 0.0218176 -0.447426
243 1 2.23675 8.3808 1.82004 -1.22763 -0.435473 -0.907973
244 1 5.57038 7.60294 8.86079 0.339057 -1.50747 0.0303938
245 1 6.55184 5.9757 2.0483 -0.411157 -0.726838 0.208972
246 1 0.983837 6.74919 0.676774 0.23734 0.858688 -0.48294
247 1 5.53326 3.47968 3.82751 0.0217058 -0.354407 -1.06602
248 1 4.83607 8.05553 5.30738 -0.287405 0.8865 -0.862851
249 1 2.23551 4.95052 7.50886 -0.234167 -0.280087 0.392527
250 1 4.27926 6.54867 4.90928 -0.256126 0.0336269 0.528549
251 1 6.88427 1.84716 6.99978 -0.88484 0.687646 -0.29833
252 1 1.55446 2.01333 4.59683 -0.408227 -0.191737 0.513828
253 1 9.29763 3.93553 5.14227 -0.198367 0.849259 -0.0701219
254 1 6.80057 1.9242 2.24272 0.247362 0.14756 -0.163205
255 1 5.88798 3.44119 0.171129 -1.04931 -0.709971 0.841956
256 1 1.72094 3.48897 8.50269 -0.246697 0.3146 0.330544
257 1 4.58278 1.61503 0.820832 1.40146 0.187886 0.549259
258 1 2.07454 1.26363 2.77751 -0.811214 0.606866 -0.0737283
259 1 2.81378 5.0026 8.39394 -0.186522 0.353335 0.250655
260 1 2.54854 4.07672 7.93541 0.610234 -0.155123 1.31283
261 1 8.0054 5.46412 0.237279 -0.754539 0.482705 0.649126
262 1 4.80133 0.102885 1.86637 0.315166 0.206365 -0.922466
263 1 5.4405 4.91314 4.14404 0.922107 -0.953838 -0.415567
264 1 7.51413 6.04484 6.19519 -0.180916 0.102454 0.111765
265 1 4.54308 4.04935 4.02421 -0.650614 0.725948 -0.0934495
266 1 6.29317 6.29667 3.03999 0.828779 -0.879854 -0.281679
267 1 5.30278 2.93386 2.27553 -0.993394 0.0615728 0.287203
268 1 5.51497 0.764655 6.39692 -0.556889 -0.320877 -0.255899
269 1 4.2279 4.51171 1.60831 -0.690166 -1.31431 0.118359
270 1 8.24804 8.68114 3.53911 0.070557 -0.171815 -0.4792
271 1 6.35862 6.04657 8.83938 -0.585095 -0.631377 0.686983
272 1 8.9307 0.0999059 3.56047 2.05407 0.338187 1.52608
273 1 9.08472 1.48964 2.44997 0.690656 -1.15815 -0.409101
274 1 6.3367 8.27803 8.11083 0.795079 0.519841 0.0853904
275 1 3.1518 6.63272 3.44507 0.585686 -0.425877 -0.316712
276 1 8.92268 6.73815 3.77866 0.76926 0.366705 -0.377225
277 1 3.845 0.741629 3.40912 -0.245585 -0.527042 -0.0725185
278 1 2.41863 5.80893 6.81398 -0.169253 0.512196 0.0613437
279 1 2.28273 9.15629 2.72825 0.428496 0.488726 -0.745658
280 1 4.58728 1.41575 3.14669 -0.968347 -0.704529 -0.975619
281 1 5.87744 7.47449 3.18134 -0.0808093 -0.556457 -0.629807
282 1 8.54327 7.82693 2.76673 -0.859736 0.8867 0.918384
283 1 0.107171 7.37225 3.09289 -0.166424 0.444771 -0.213011
284 1 7.03551 7.60235 4.27765 -1.47797 -0.328298 1.5269
285 1 6.85293 8.28565 3.25163 -0.513305 0.804385 0.485621
286 1 0.860048 1.63661 7.88058 -0.313113 0.103808 -1.43305
287 1 3.18251 8.17378 5.82376 -0.204151 0.406278 1.30855
288 1 4.10321 0.310846 8.57133 -0.176829 -0.263832 0.197122
289 1 7.29507 1.46462 6.04663 0.87826 0.046878 -0.589782
290 1 2.25029 7.74207 7.58974 0.0725115 -0.167814 0.561589
291 1 4.88923 3.7865 9.34131 0.119098 0.0764292 0.9713
292 1 9.32971 8.49265 5.75931 0.872726 -0.726902 0.530657
293 1 2.08477 1.35387 3.96934 1.029 -0.0863218 0.148336
294 1 8.43717 5.66845 6.65569 0.619821 -0.533241 -0.942419
295 1 7.65035 5.7769 7.42164 1.01065 0.544265 0.265798
296 1 6.56773 6.72154 1.05522 -1.58038 -0.166443 0.246981
297 1 4.78108 3.87198 2.94811 0.465214 1.40898 -0.971656
298 1 4.41597 6.8978 5.85353 -0.46259 -0.387418 -0.351112
299 1 5.90221 5.89646 3.99339 0.819231 0.874317 -1.43435
300 1 7.50496 2.61733 2.18936 0.0755795 0.0178735 0.138719
301 1 2.61554 1.22286 7.09939 -0.235844 -1.16932 1.52503
302 1 8.40807 8.96952 6.28568 -0.0175858 0.274019 0.359422
303 1 1.34473 9.07985 0.495353 0.0617813 -1.19161 0.377015
304 1 7.8111 5.35452 3.81329 0.631475 -1.3625 -0.833767
305 1 3.53113 1.97923 0.539684 0.925558 -0.681577 -0.483905
306 1 6.14099 8.0585 4.02166 1.05073 0.831638 0.00239602
307 1 6.50062 8.656 1.02957 0.297228 -0.213023 -0.340496
308 1 8.93966 0.458633 6.77174 0.744966 -0.295278 0.0895532
309 1 0.505348 6.63031 7.70592 0.315383 -0.260083 -0.689657
310 1 5.43354 6.3419 6.47361 -0.868298 0.573658 -0.711596
311 1 7.98027 7.02982 1.03088 -0.675019 -0.0522495 0.817642
312 1 3.06738 4.86573 1.0237 1.53279 1.39957 0.340974
313 1 7.12135 0.151769 1.12184 0.72731 0.576154 -0.902922
314 1 7.69008 3.50229 2.782 0.0368238 0.331339 0.653421
315 1 4.19925 4.86372 5.85992 0.123186 0.376557 0.575087
316 1 1.92765 4.03585 4.75184 0.171222 1.03373 0.211809
317 1 0.0738674 1.21439 7.1904 0.281813 -1.65112 -0.0338574
318 1 9.03207 6.52476 6.30996 -0.500716 0.849674 -0.420651
319 1 5.62989 8.97191 6.66212 0.585644 -1.378 -1.13821
320 1 5.14512 4.85493 5.59005 0.547167 0.328912 -0.731108
321 1 0.668791 1.76272 2.33486 0.905719 0.627746 -0.730349
322 1 1.01702 6.75469 3.34611 0.423408 -0.254087 0.449187
323 1 2.8788 7.04576 2.52473 -0.501931 -0.412533 -0.681916
324 1 1.85725 4.55842 6.64262 0.478455 0.810902 0.208314
325 1 4.8706 4.77712 2.32626 -0.980395 0.0852242 0.640461
326 1 7.4117 1.74646 5.01585 -1.57181 0.80246 1.03322
327 1 5.03292 0.79924 8.55263 0.917973 -0.322076 0.451233
328 1 7.49448 4.02264 0.600877 -0.377312 -0.548703 -0.0419865
329 1 8.63982 1.61592 8.50496 0.668897 -0.216893 0.927478
330 1 3.75414 0.00770076 7.51365 -0.205833 -0.0300629 0.338473
331 1 4.12069 2.29098 4.70863 -0.0570657 1.93048 -1.12766
332 1 3.64627 1.63403 5.38682 -0.628881 0.313192 -0.328408
333 1 8.46546 5.28783 1.8411 -1.21807 0.543558 0.93118
334 1 0.516058 8.07054 6.56775 1.11623 0.828341 0.11435
335 1 8.42901 0.657688 2.73743 0.0604728 0.97656 0.276592
336 1 1.32743 6.21177 4.26576 1.1262 -1.51479 0.790283
337 1 5.52474 4.63108 7.62909 0.00711229 -0.0976353 -1.1185
338 1 1.16068 0.71995 8.22464 -0.945987 1.02654 0.209835
339 1 1.13125 5.11537 7.48199 -0.0349175 -0.320262 0.296345
340 1 2.90011 0.756589 3.88185 0.240662 1.21565 0.319132
341 1 8.78015 0.250399 7.79501 0.322492 0.205166 -0.385198
342 1 7.77219 5.85648 1.2414 0.396204 -0.87769 1.13493
343 1 4.36688 5.60332 1.69886 -0.918513 -1.75588 -0.412015
344 1 0.858928 0.390972 6.23207 0.544051 1.50902 0.0939687
345 1 6.18607 7.05696 6.40673 0.211672 0.781972 1.81505
346 1 7.04005 6.04313 0.369014 -0.380167 1.97444 0.931145
347 1 5.56462 4.31977 6.63265 -0.733683 0.0777793 -0.461943
348 1 7.44328 3.13759 6.85056 -0.488355 -0.946689 1.19211
349 1 7.49344 3.50687 9.03926 0.58597 -0.756162 -0.0894682
350 1 3.37473 3.03732 6.45643 0.236795 0.678124 -0.936028
351 1 8.09772 6.2933 3.34529 -0.145178 1.44297 -0.860058
352 1 0.0936366 9.06223 6.63316 -1.54285 1.04753 0.536565
353 1 9.16521 2.12926 4.60702 -0.738017 0.323151 1.74739
354 1 9.25912 7.18618 7.09984 0.778967 0.456512 -0.0326378
355 1 0.983734 6.21015 1.57776 -0.244067 0.0570015 0.0401273
356 1 4.60282 1.32461 6.10244 0.494166 0.993233 0.386492
357 1 1.01862 2.58516 8.5425 0.256086 0.467265 -0.918747
358 1 4.07197 8.46545 4.67811 -0.698195 -0.724805 -0.537742
359 1 4.87344 7.7315 7.01679 -0.615951 0.439946 0.376431
360 1 3.2838 4.36399 2.10825 0.0315757 -0.731455 -0.10623
361 1 5.10699 2.38241 5.05097 1.69017 -1.01757 0.374385
362 1 4.2508 0.882692 1.48183 -0.969312 -0.933136 0.164119
363 1 6.99654 4.25035 1.55602 0.834234 0.205799 -0.236102
364 1 0.910181 5.25562 6.38971 0.356473 -0.106807 -0.475524
365 1 0.730235 2.45768 1.11397 -0.051347 0.606974 0.0835856
366 1 5.77952 8.64999 1.79666 0.843921 0.967795 0.435316
367 1 1.5361 4.00718 1.28618 0.574104 0.917753 -0.924289
368 1 3.40093 2.652 5.27588 -0.49643 -0.0651552 0.0522707
369 1 0.412335 6.51923 9.26292 1.04342 -1.07811 0.269529
370 1 8.92627 8.87419 8.7951 0.430706 1.07873 0.396918
371 1 3.05726 5.11131 3.34895 -0.170934 -0.14269 0.170927
372 1 4.98067 2.04632 8.09424 -0.271144 -0.945754 0.402596
373 1 5.50623 6.66054 2.31853 0.63689 -0.0176089 -0.395116
374 1 8.48496 7.60829 5.25552 -1.0323 0.445733 -0.984482
375 1 4.88521 4.76598 8.46437 0.499731 0.633524 0.0678565
376 1 2.19928 8.63703 8.12255 0.501222 0.509555 -0.349404
377 1 2.20781 6.76824 7.15111 0.34874 -0.263163 -0.524183
378 1 5.30028 1.01457 1.74058 0.032264 1.39994 -0.0942935
379 1 6.54821 3.52477 6.21243 -1.37482 0.827596 1.2652
380 1 7.77296 5.02585 5.90191 0.909342 0.0867062 0.171674
381 1 3.89477 0.289592 2.44126 0.740877 -0.39491 0.429372
382 1 5.45104 6.58793 5.4593 0.437319 -0.530991 0.213462
383 1 9.10481 8.69633 7.64137 1.07662 -0.28972 1.37558
384 1 3.4835 9.32759 4.12835 0.113899 0.00634296 0.557725
385 1 4.12855 8.10686 9.29662 0.399676 0.30273 0.474027
386 1 0.443183 3.55898 4.31942 0.00366779 -0.467552 0.110589
387 1 0.227247 1.70339 3.31932 0.0663764 -0.843 -0.374373
388 1 6.81952 8.86505 0.108649 -0.237229 0.820013 -0.920815
389 1 5.9676 2.68163 5.69938 0.73043 -0.604726 -0.715932
390 1 2.15327 5.08473 2.86137 -0.0616098 -0.728788 -0.940077
391 1 5.92263 9.32288 0.434515 -0.708006 -0.774373 0.288158
392 1 4.40342 3.82226 0.862472 1.00219 -1.65423 0.24434
393 1 0.617185 5.65306 0.55482 -0.87704 0.421711 -0.277925
394 1 9.40473 5.56762 1.42922 1.16071 -1.07536 0.944146
395 1 0.455328 9.36714 9.16146 0.48953 -0.0891661 -0.195271
396 1 2.35706 2.43279 2.56707 0.597101 -0.534732 0.785935
397 1 5.85183 4.29401 8.99492 0.263556 0.703452 -0.14795
398 1 8.45567 3.68867 1.07213 1.46203 0.86479 -0.932818
399 1 6.96236 0.963728 3.69255 0.0568067 -0.665652 0.528097
400 1 2.61693 6.04188 2.82748 -0.545876 -0.782888 0.561856
401 1 3.93641 2.1415 8.267 0.85352 -0.0644788 0.0728859
402 1 1.24858 4.1422 0.117327 -1.34663 0.248554 0.320817
403 1 3.77463 3.41794 2.56086 0.11475 1.28008 0.65642
404 1 2.71425 6.92495 8.15051 0.100336 0.0308053 0.442354
405 1 3.39894 3.60727 7.44323 -0.175583 -0.764311 -0.0890961
406 1 7.50069 8.12584 0.358673 -0.314057 -0.996386 0.345093
407 1 6.53382 0.558097 8.209 0.143968 0.0404927 -1.25872
408 1 2.12292 2.48611 8.81906 0.533926 1.01572 1.17133
409 1 3.19649 2.83793 4.22287 0.64665 0.0543774 -0.0527995
410 1 0.354124 2.498 7.72687 -0.519351 -0.946822 0.673231
411 1 4.80382 7.62972 3.35546 1.02564 0.509608 -0.65485
412 1 1.44608 9.18463 4.74011 -0.0120262 0.0820482 -0.880785
413 1 1.52411 7.35202 1.32662 -0.281059 1.64329 -0.980442
414 1 6.79623 1.27753 8.96466 -0.299963 0.85626 -0.309623
415 1 8.63913 0.553477 8.70935 -0.202456 0.309069 0.382648
416 1 0.657843 1.7305 0.33876 -1.15726 -0.181678 0.928233
417 1 7.37341 2.94399 3.65618 -0.471853 0.135915 1.08116
418 1 2.82958 1.95252 6.18552 0.877803 0.00212902 1.36244
419 1 7.61199 3.48284 1.5318 0.454374 -0.757945 -0.562281
420 1 1.77852 5.26099 4.83669 0.453539 -0.8042 0.297089
421 1 6.43814 6.23708 5.8987 0.895463 0.228435 -0.614591
422 1 8.41757 3.33466 6.86464 0.522614 -0.476655 0.509272
423 1 8.2453 2.50086 4.08188 0.14466 0.491298 -0.51488
424 1 3.96956 6.86223 2.86128 0.589648 -0.114689 0.464819
425 1 2.36609 3.35093 7.04199 -1.58661 0.476795 0.0770487
426 1 3.54523 1.65686 7.40258 -0.405195 -0.606373 -0.518552
427 1 7.72254 4.05958 6.26671 1.10443 -0.677589 -0.437876
428 1 1.565 7.0928 5.82741 0.71915 0.74324 0.247451
429 1 6.84569 9.27506 2.14316 -0.87007 -0.466725 -1.1827
430 1 6.78678 4.5107 6.00703 -0.526511 0.131235 -0.15929
431 1 8.26684 1.64512 5.70304 0.221827 -0.769693 0.978471
432 1 5.05765 0.532905 0.852868 0.322072 -1.13413 0.186877
433 1 1.909 8.18645 4.44953 -0.624729 -0.696346 0.0600668
434 1 7.65075 7.37081 8.7933 0.540594 -0.771647 -0.606497
435 1 0.786556 3.45223 8.9832 1.01963 -1.09918 -0.347139
436 1 0.174994 6.20738 3.03139 -1.30021 0.119852 -1.61002
437 1 6.5759 7.10891 2.29406 -0.63282 -0.740116 0.220682
438 1 2.48173 8.07206 2.9344 -0.432428 -0.416285 0.984565
439 1 3.59488 7.76446 3.07231 -1.23873 1.07279 0.90039
440 1 5.53309 5.6176 2.75972 0.587654 -0.586948 0.66882
441 1 6.43373 2.79663 1.83054 0.106776 1.31832 -0.0967705
442 1 6.59202 3.09857 4.28542 -0.940749 0.0981917 1.01241
443 1 1.82971 5.67043 1.89162 0.526872 0.208505 0.484565
444 1 8.83189 5.66589 3.88229 -0.850735 -1.32415 0.11009
445 1 6.00038 2.37211 9.16126 -0.374459 0.183361 0.329625
446 1 8.34998 0.465259 5.70738 0.4633 1.19192 0.124201
447 1 1.41977 4.72659 2.27118 0.00727541 -0.184287 -0.184248
448 1 0.811708 8.37808 9.09305 -0.0896546 -1.23643 -0.170674
449 1 3.69563 5.69262 7.67924 0.0880489 0.362075 1.04026
450 1 3.7474 5.30813 6.65087 0.827388 0.666304 1.29832
451 1 4.64699 7.0947 8.51847 0.56741 -0.543656 -0.210384
452 1 4.66214 8.06675 8.26641 -0.434086 0.38944 -0.49044
453 1 2.43621 0.996661 6.04617 0.262713 0.617769 -0.0359252
454 1 2.62019 0.116635 7.45856 0.497987 0.194594 0.449714
455 1 8.75127 4.78651 5.41533 0.904609 -0.351116 -0.24913
456 1 7.7759 3.22399 4.75584 -0.39582 0.777918 -0.726269
457 1 6.77351 7.91903 8.95524 0.585326 -0.565418 0.476102
458 1 2.09855 6.55515 3.52711 1.45842 -0.390962 0.603971
459 1 8.48551 3.157 9.08805 -0.774125 0.605344 -0.481055
460 1 6.85726 2.49879 6.16943 0.432057 0.728974 0.207434
461 1 8.37719 4.32731 0.166592 0.874908 0.593485 -0.590605
462 1 3.9217 7.76508 0.919035 -0.12745 1.30438 -0.510104
463 1 4.30323 2.17739 9.33581 -0.42016 0.439479 0.350437
464 1 8.5092 4.12598 7.58512 -0.300229 0.0571522 0.527473
465 1 0.486155 7.82973 7.6505 -0.0410555 -0.651197 0.206389
466 1 3.6783 1.28888 8.76726 1.09609 -0.487702 -0.479519
467 1 6.40651 0.0374097 3.19069 -0.013798 -0.898575 0.115488
468 1 9.32904 6.69761 5.14677 0.341662 -0.658488 -0.192776
469 1 6.46088 0.758337 5.75803 -0.947398 -1.1262 -0.917839
470 1 8.6424 2.41135 7.3083 -0.178118 -0.448671 0.381238
471 1 4.80204 8.87186 5.93242 -1.1216 -0.75215 0.458844
472 1 8.12245 3.69495 3.67259 0.0633091 -0.626305 0.591412
473 1 4.93696 2.80178 8.80539 -1.16936 0.0254825 -0.599055
474 1 8.43804 0.911005 1.70132 -0.142985 -0.711509 0.569083
475 1 2.64501 2.92545 7.98308 0.878014 0.67664 0.210755
476 1 1.08869 0.893858 7.13894 0.749719 -0.0647585 0.767584
477 1 3.84879 1.90028 1.5976 0.135692 0.263422 0.845059
478 1 3.96354 9.18058 1.40634 -0.0233418 0.526591 -0.927804
479 1 1.04833 2.76166 2.89421 -0.60861 0.125595 0.450426
480 1 6.96144 2.68856 0.121045 -0.00738199 -0.430882 -0.362236
481 1 3.598 6.91059 1.7428 0.924938 -1.55746 0.973484
482 1 1.95674 5.35395 5.99633 0.446093 -0.379048 -0.72539
483 1 3.52621 7.50938 4.14 0.617129 0.664088 0.210338
484 1 4.87819 0.501268 5.51139 -0.117268 0.758565 -0.28058
485 1 5.41492 5.6103 8.74946 0.430885 -0.461485 -0.929827
486 1 8.48708 1.66454 3.31551 -1.36623 -0.970569 0.406126
487 1 8.74849 5.62968 2.84752 0.165483 0.450328 -1.7063
488 1 7.53258 6.28016 5.1074 0.613925 -0.934069 -0.378879
489 1 1.77411 1.51675 0.402574 -0.870902 0.50412 -0.0442886
490 1 2.88338 8.38916 3.86488 -1.02394 -0.272611 0.601516
491 1 7.31977 9.20597 3.62597 -0.272936 -0.773601 -0.837821
492 1 8.09427 8.03389 6.13159 -0.0198769 -0.978029 0.242209
493 1 5.95988 1.55342 8.29731 0.244789 -0.561713 -1.68493
494 1 6.72719 0.993862 4.7681 -0.639604 -0.101419 0.297217
495 1 5.56156 4.59332 3.17848 0.742179 -0.840833 0.301923
496 1 2.75368 2.30825 7.1415 -0.30252 0.91872 -0.573371
497 1 2.53518 0.935107 0.823529 -0.772059 -0.36796 0.564629
498 1 8.02114 8.89031 9.22786 -0.0207589 -1.23539 0.556795
499 1 4.80369 1.9588 4.02288 1.12246 -0.848738 1.22984
500 1 5.40596 5.5757 1.65977 -0.748624 0.514125 0.0230746
501 1 5.30318 7.40837 6.04627 0.741243 0.327274 1.25022
502 1 0.158802 3.46441 2.49103 -0.717714 -0.337798 0.225415
503 1 5.36606 5.68555 4.90418 1.33214 0.686826 0.811151
504 1 4.74689 1.74031 2.14939 0.536751 -0.376085 0.540936
505 1 9.13652 4.94549 0.475129 0.181919 -0.232029 -1.6423
506 1 2.09154 8.10928 5.52187 -0.751376 -0.433713 -0.329747
507 1 7.54536 0.48208 8.45169 -0.246245 0.573114 0.427706
508 1 3.09116 8.41302 1.20397 -0.0893328 -0.330553 -0.255859
509 1 0.130925 0.925967 8.16395 0.0502664 -0.0273237 -1.35234
510 1 0.846233 0.589684 5.26504 0.157004 0.312549 -0.155858
511 1 6.9747 5.40691 5.37462 -0.0145752 -0.836434 -0.219356
512 1 0.361877 6.15721 4.00905 -1.17002 0.649733 0.774292
513 1 2.16067 7.1591 4.88589 -0.218873 -0.348512 -0.427617
514 1 7.9983 7.13103 4.15047 0.0784775 0.449087 1.81987