ITEM: TIMESTEP
60540000
ITEM: NUMBER OF ATOMS
1000
ITEM: BOX BOUNDS pp pp pp
0.0000000000000000e+00 9.4000000000000004e+00
0.0000000000000000e+00 9.4000000000000004e+00
0.0000000000000000e+00 9.4000000000000004e+00
ITEM: ATOMS id type x y z vx vy vz
1 1 7.68602 0.423033 2.62442 0.0114726 0.226001 0.09685
2 1 3.09409 5.68058 9.3869 0.645953 0.576079 0.091337
3 1 3.37098 1.75221 4.58461 -0.0621399 0.324505 -0.384567
4 1 1.52539 4.51716 2.53156 0.172997 0.765559 0.795877
5 1 0.528332 9.23005 3.75588 0.366529 2.36362 -0.948645
6 1 6.38288 0.232443 5.19135 0.408148 0.0886968 -0.0595822
7 1 3.02913 6.44494 3.46896 -0.508265 0.38049 -0.100126
8 1 3.08543 1.64817 7.25862 0.834654 0.819176 -0.0978406
9 1 1.2611 6.06812 4.52456 -0.447166 -0.812961 0.31035
10 1 2.18913 3.91735 2.07763 0.138353 1.02214 0.175536
11 1 5.63599 1.31022 6.2892 1.41767 -0.141915 0.232249
12 1 7.77727 1.19415 1.66374 -0.805078 -0.55161 -0.322422
13 1 0.506473 0.829138 3.78956 -0.40697 -0.743896 2.73038
14 1 4.51329 4.65754 4.93032 -0.593297 -0.893701 -0.98571
15 1 0.233792 8.77751 8.07629 0.478486 0.582906 0.0748695
16 1 1.3735 8.16175 7.51718 1.16942 0.172957 -0.537507
17 1 7.55485 2.06852 1.02131 0.232918 -1.11718 -0.973392
18 1 4.13282 5.73098 0.440811 -0.911111 0.0257917 -0.554772
19 1 4.11704 6.26365 6.97171 -0.827005 0.503579 0.772348
20 1 -0.01029 4.69904 7.3134 -0.31779 0.683136 1.20729
21 1 0.0550882 5.00529 0.247049 -0.616529 0.0664192 0.0851458
22 1 9.10767 3.722 7.81311 0.169737 -0.370322 -0.664339
23 1 5.26928 0.722418 1.88582 -0.795509 1.12658 -0.689023
24 1 1.34926 6.87006 6.00365 -0.529364 0.249896 -0.414114
25 1 7.42002 1.42515 2.67219 0.545751 0.153376 -0.403826
26 1 8.77548 4.19148 5.09287 0.880707 -1.42041 -0.442222
27 1 0.414634 7.91788 2.52527 0.147412 0.249989 -0.144815
28 1 4.4342 1.52545 2.32332 0.955941 -0.323088 0.431802
29 1 2.2359 3.75619 3.92304 0.580398 0.359081 -0.546875
30 1 7.51266 3.55158 5.15166 0.0459662 -0.0913583 0.753474
31 1 3.51545 0.854179 0.694274 -0.350903 -0.538418 0.45105
32 1 8.52484 3.1691 6.84263 -0.235502 0.00784779 0.682153
33 1 4.46338 9.35318 1.59763 0.291364 0.821872 1.0788
34 1 6.51527 0.861654 2.61228 -0.315805 -0.0845955 0.276539
35 1 3.10554 0.181194 3.77304 -0.144824 0.733719 -0.785788
36 1 3.66222 2.84406 2.85228 -0.0615843 -0.193854 -0.0385895
37 1 5.35096 7.81718 8.26444 -0.841703 -0.377318 0.133663
38 1 1.71995 1.15227 1.63798 -0.419445 -1.06896 0.0201298
39 1 6.43356 7.98303 9.15645 0.246141 -0.6366 -0.616182
40 1 9.26448 8.23477 8.84272 -0.335242 -0.359885 0.53195
41 1 6.44499 2.69886 7.60669 0.989625 0.518533 -1.15636
42 1 0.909662 9.0784 4.70593 0.549117 0.0609573 0.611149
43 1 1.9375 8.35086 6.09909 -0.44545 -0.921629 -0.488203
44 1 2.67079 1.10321 5.86091 -0.164768 0.229658 0.919357
45 1 0.152058 0.346739 2.92935 0.551987 0.35415 0.0978323
46 1 7.48961 6.86515 1.74876 0.327803 -0.783518 -1.82214
47 1 0.646207 2.05397 0.736646 0.067208 0.157993 0.00416505
48 1 5.51146 7.86987 0.933636 -1.05301 0.295985 0.605458
49 1 5.29522 3.90368 5.58889 -0.611765 0.147713 0.586126
50 1 1.47544 2.53328 5.18366 0.520367 0.0955719 1.7671
51 1 0.115252 4.37733 4.11266 0.369809 -0.361863 -0.669694
52 1 6.88071 0.116325 3.32296 -0.136331 0.774065 -0.134994
53 1 2.37871 1.33938 4.22824 -0.381149 -0.13953 0.0419404
54 1 8.94288 5.7482 8.94837 -0.359993 -0.482513 -0.466272
55 1 2.86278 5.05641 6.34059 -0.162485 0.192366 -0.81232
56 1 0.827015 4.44699 6.34188 -0.582626 -0.665993 0.410814
57 1 2.31938 5.5042 7.07996 0.270194 -1.22733 0.460085
58 1 4.96344 7.62706 2.70863 -0.755014 1.50273 0.289501
59 1 6.50827 9.33065 7.56338 -0.0520052 -0.614969 0.542511
60 1 2.40295 8.2255 3.10824 -0.925058 0.417529 -0.950025
61 1 2.90887 0.530988 2.82138 -0.40631 0.364037 1.5486
62 1 4.3424 8.52016 2.29357 0.954585 0.334892 0.0995048
63 1 7.38561 3.00098 7.05729 0.233104 -0.432293 0.865862
64 1 0.240676 6.61635 9.40507 -0.945823 -0.335208 -0.017052
65 1 8.58007 2.99304 3.42294 -0.513419 -0.722722 -0.697907
66 1 3.08775 0.763239 6.77506 -0.0359048 0.917886 0.549357
67 1 6.63027 7.1296 8.36217 -0.1861 1.35661 0.0522917
68 1 4.24666 7.79254 7.97401 1.32239 -0.0247876 -0.588809
69 1 6.83669 5.07459 1.35341 -0.175631 0.0436908 -0.935581
70 1 7.75102 3.68334 3.25064 -0.891296 -0.984599 0.664687
71 1 6.67966 3.54731 0.502663 -0.020386 -0.558707 0.449868
72 1 6.53444 1.89407 4.02991 0.616039 -0.398444 0.259823
73 1 2.74022 8.14105 5.18161 0.31064 1.55124 -0.266511
74 1 3.24726 8.20386 1.39374 -0.0964887 1.14525 -0.283995
75 1 7.26718 1.07592 7.54252 -1.6929 1.1043 0.932372
76 1 8.93532 8.66967 1.40921 0.951469 0.0667711 0.102618
77 1 1.40552 1.73481 4.49013 0.224691 -0.411254 0.563
78 1 2.18514 6.34312 2.96269 -1.23018 -0.878507 0.616523
79 1 5.09765 2.45719 8.73531 -0.322521 -0.111257 -1.04081
80 1 1.32495 9.09713 8.06115 -0.146283 -0.520863 0.0833711
81 1 2.68821 8.22473 6.99968 -0.0333684 -1.28826 -0.412181
82 1 6.02742 1.10438 3.62763 -0.377143 0.813621 0.597613
83 1 4.59019 6.50558 4.25499 0.640566 -0.175914 0.266485
84 1 1.7972 5.73123 6.04393 1.94431 -0.768597 0.913853
85 1 0.530561 2.35272 9.0294 0.843032 -0.414313 -0.852375
86 1 5.27572 1.41866 0.845276 -0.619371 -0.0162565 0.863045
87 1 3.25765 3.8721 3.89752 -1.20929 0.0367415 0.934018
88 1 8.43958 1.10466 7.22666 1.04196 -1.206 0.654871
89 1 5.51469 5.03434 6.3303 -1.14772 -0.341683 -0.298185
90 1 4.76007 5.02776 1.08698 -0.153087 0.0330746 0.0807326
91 1 7.72494 6.9802 5.35732 -0.0269926 0.399507 0.523434
92 1 7.42578 0.315534 8.18344 -0.999628 0.21022 -0.145757
93 1 2.96382 0.691358 4.70177 -0.0772642 -0.0787368 -1.17317
94 1 1.28614 4.98866 5.43827 -0.213382 -0.598956 0.557317
95 1 8.86474 7.51946 3.58236 0.0341159 -0.613561 -0.226821
96 1 5.91258 7.0441 7.68225 0.355676 -0.475949 -0.010629
97 1 2.73678 5.4124 1.09683 0.73155 -0.504231 0.42592
98 1 6.63176 8.09206 0.818722 -0.210924 -0.0792189 -0.039671
99 1 3.21077 0.166434 5.7726 0.608902 -0.148205 -0.306352
100 1 7.92626 7.91405 7.02405 -1.0292 -0.298361 -0.491481
101 1 5.40579 6.67145 5.75715 -0.376842 -0.662717 -0.681044
102 1 3.77822 9.16355 2.94429 1.26882 -0.511443 -0.2418
103 1 3.16002 8.39762 3.86991 0.63214 1.23714 0.149168
104 1 2.7846 6.96506 2.43634 -0.0783578 0.726953 0.57412
105 1 8.95728 0.692708 5.03495 0.344319 -0.998811 0.109893
106 1 6.93254 1.87212 8.13066 -0.247562 0.0395416 -0.560406
107 1 5.92075 4.94637 0.276798 0.0176699 -0.276001 -1.0355
108 1 8.74349 1.36457 4.10357 -0.202028 -1.03223 1.21199
109 1 6.19731 2.54606 2.20365 -0.585982 -1.46095 0.940281
110 1 0.970971 4.12629 7.37151 -1.19043 -0.394333 -1.79092
111 1 8.46443 4.00238 8.68591 0.77363 0.43622 0.925528
112 1 5.95823 8.80908 1.02861 0.109543 0.544978 -0.47175
113 1 4.6241 3.40398 1.05389 0.266004 0.115783 -0.146726
114 1 1.52578 1.92896 2.61205 -0.373991 0.732207 -0.735123
115 1 7.29563 9.37831 4.46817 -0.895276 -0.230474 -1.80657
116 1 7.86991 2.26089 8.71628 -0.68196 -0.227917 -1.94303
117 1 8.43122 7.12426 7.68359 -0.54547 0.262947 0.576027
118 1 7.65299 1.04695 6.54624 -1.81416 0.246144 0.127293
119 1 4.13114 2.17034 8.93483 0.457815 -0.418827 0.630747
120 1 0.700362 7.62568 9.16421 -0.597528 -0.601462 -0.799128
121 1 5.42855 0.510837 5.53166 1.15432 1.40021 -1.23052
122 1 2.11091 7.00964 8.68646 -0.778875 0.534025 -0.507793
123 1 2.89106 6.52213 4.49841 -0.152376 -0.414246 -1.43263
124 1 4.97166 2.2453 6.59245 -0.58266 -0.565225 0.534987
125 1 5.38772 5.64495 5.46799 -0.530632 -0.363315 -0.833098
126 1 7.47319 4.61606 3.45324 0.247566 -0.218526 1.11821
127 1 3.87497 9.08927 4.27821 -0.0844325 1.34271 0.451404
128 1 4.69336 5.11954 8.33175 -1.25366 -1.11909 0.587789
129 1 1.19295 6.11251 0.399063 0.0140557 -0.681398 0.0341237
130 1 4.44939 0.187126 5.7733 -0.971745 0.598475 0.960491
131 1 7.88939 2.64649 1.86531 0.0872616 0.244709 0.728518
132 1 7.53773 1.88374 5.98779 0.0645731 -0.636913 -0.514669
133 1 7.08759 8.22742 2.69995 -0.818985 0.183241 0.726377
134 1 9.34917 5.44134 3.7381 -0.0195074 0.642235 0.224327
135 1 7.27704 7.4645 3.4774 0.810673 0.668415 -0.732642
136 1 8.77825 8.54191 6.58311 0.0445726 -0.351338 -0.492962
137 1 1.10122 5.09369 0.376912 1.77548 0.412469 -0.341835
138 1 5.68346 3.17905 9.28758 -1.70523 -0.56075 1.46565
139 1 0.126567 0.981441 7.28256 -0.292084 -0.547275 0.330334
140 1 3.65607 3.63905 5.79348 0.828536 -0.590568 0.638741
141 1 3.16478 7.77449 7.73911 0.302577 0.00945861 0.992449
142 1 3.99175 5.05792 9.14586 0.630518 1.06537 1.28735
143 1 4.97189 5.0184 -0.015227 -0.135449 0.483175 -0.521832
144 1 0.257429 1.46946 4.61337 -0.402213 -1.04568 1.45424
145 1 8.11085 5.84949 8.43056 -0.80391 0.347804 0.886683
146 1 4.43874 1.01126 1.28767 -0.465945 -0.431066 -0.736477
147 1 5.53527 3.23331 6.99145 -0.858126 0.773929 0.499621
148 1 0.76715 4.97475 7.98669 -0.230011 -0.421477 0.718193
149 1 3.34514 8.20655 2.63239 0.360683 -0.332072 -1.02606
150 1 6.58418 7.64455 4.279 1.47081 1.01811 0.564597
151 1 0.272661 8.67748 6.12851 -0.0402238 -1.2153 -0.19393
152 1 5.43145 7.73574 9.24624 0.461833 -1.26133 -0.00633517
153 1 1.60132 6.06107 8.81128 -1.64044 0.404586 0.712582
154 1 3.95422 6.86888 0.275463 -0.968392 -0.0493246 -0.290269
155 1 0.512015 6.3402 3.80973 -0.473719 -0.584672 -0.129433
156 1 4.59931 8.36731 5.10112 0.30446 0.0694682 0.886057
157 1 6.6817 4.75494 7.74994 0.759472 0.0762973 -0.347378
158 1 2.35387 5.43583 8.13358 -0.449452 0.279555 -0.674607
159 1 0.111045 6.97739 7.56278 -0.75815 0.355139 -0.859658
160 1 3.61075 3.15099 8.47161 -0.855196 -0.419652 1.20615
161 1 2.20824 3.01105 5.81755 -0.0486472 0.258523 1.51139
162 1 8.54074 3.23526 9.37015 -0.46034 0.0873357 -1.014
163 1 1.97947 3.4964 4.92307 0.886347 0.0376056 0.253806
164 1 3.43423 8.77302 0.522493 1.32407 0.140158 0.425982
165 1 5.73524 3.11199 0.989777 0.82693 0.868482 -0.820098
166 1 5.949 7.92747 2.63151 0.761602 -0.60625 -0.870554
167 1 2.33516 7.22175 3.52037 -0.950907 0.243593 0.208207
168 1 7.36756 4.20128 1.45706 1.06706 -0.101982 -0.815484
169 1 2.91152 6.21652 8.52275 0.200108 0.318823 1.25148
170 1 0.847309 3.77644 3.75373 1.47356 0.584697 0.280083
171 1 6.19941 6.15806 9.34672 0.32077 -1.08649 0.397063
172 1 2.05259 2.01537 7.82565 -1.35165 -0.141368 -0.39699
173 1 8.40182 4.27612 1.72039 0.419677 0.815519 0.965378
174 1 2.4636 4.11567 6.89863 0.533642 0.698566 -0.104042
175 1 7.1294 5.6581 7.78933 1.05143 0.430957 1.20891
176 1 2.69497 9.17218 6.54229 0.990553 -0.0874376 -0.686639
177 1 3.34995 7.74529 0.468708 0.198802 0.0445407 0.140213
178 1 7.454 3.55859 2.24708 -1.27477 0.714175 0.385752
179 1 6.24027 1.24005 7.16574 0.164399 0.451505 0.262957
180 1 0.414756 8.13641 3.60445 -0.189355 -0.492595 -0.335031
181 1 7.9573 6.47545 2.67989 1.41671 -1.32016 -0.0910353
182 1 5.63861 3.15657 8.15379 1.72594 0.425527 -0.276947
183 1 3.55607 3.7083 0.863835 -0.298122 0.191898 -0.0118237
184 1 3.96056 8.80118 8.03719 0.0472592 -0.627947 -1.02794
185 1 2.37129 6.84692 6.22014 -0.447451 -0.465961 0.0226301
186 1 2.75781 4.14599 4.81403 0.803119 0.502026 -1.11131
187 1 2.2847 9.34588 5.48005 -0.959339 0.312952 0.0166927
188 1 2.23867 6.28917 0.744152 0.290833 0.150333 0.209808
189 1 4.06682 6.06892 3.05993 0.0350807 -0.1885 0.619513
190 1 4.81669 7.54486 1.61009 -0.76932 0.60587 0.529833
191 1 5.0852 5.88042 7.76248 0.418206 -0.217028 0.427418
192 1 9.35567 2.8885 0.411996 0.353428 0.398516 1.44957
193 1 2.70531 7.85307 8.75584 -0.0242408 -0.121473 0.513174
194 1 8.0682 6.63264 0.745425 0.798765 -0.970421 0.256196
195 1 9.05393 0.354666 3.96689 -0.466492 -0.567196 0.0535642
196 1 8.56599 1.84519 1.57115 0.214503 -0.638703 -0.423799
197 1 6.2285 7.20378 6.10115 -0.395891 0.656114 0.0353641
198 1 9.2763 1.19176 1.05711 -1.04384 0.139487 -0.925415
199 1 8.85796 7.97218 4.65047 0.270052 -0.0500507 0.171833
200 1 4.10589 0.819072 7.02721 0.223442 -1.70692 0.0762098
201 1 4.57868 1.80587 3.2247 0.124381 0.898394 0.118451
202 1 8.86605 8.23255 2.66381 -0.347255 1.69382 0.432458
203 1 5.64748 8.65717 8.90947 0.880322 0.726325 -0.0188565
204 1 4.13417 0.800439 9.26975 0.319138 0.780216 1.07255
205 1 6.09465 8.58675 6.92939 0.67738 -1.34559 -0.810987
206 1 1.0911 0.731201 4.6368 0.631514 -0.688588 0.331711
207 1 6.49643 2.46131 1.17338 -0.201528 -0.617337 0.270576
208 1 0.316404 5.24421 5.49078 0.228138 2.0162 1.37778
209 1 7.38541 0.0479338 7.0813 1.39879 -0.447609 -0.557797
210 1 0.73604 1.25354 9.36355 0.76097 -0.316364 0.402902
211 1 8.57472 0.200497 0.866735 -0.414797 0.413122 -1.04564
212 1 7.25886 7.36224 0.862849 0.573384 0.698409 0.992223
213 1 1.88935 2.24429 3.67347 1.19235 0.273452 0.0271165
214 1 8.87062 1.95171 8.62279 -0.54659 0.0067136 0.223191
215 1 4.03585 5.088 2.73681 1.17897 -0.0987854 0.285388
216 1 6.34698 7.99751 5.42864 -0.386554 -0.16859 -0.264847
217 1 3.68234 1.08529 5.41909 0.335293 0.0679848 -0.165448
218 1 3.13847 2.56044 1.94284 0.0937759 0.290693 -0.694292
219 1 5.5483 4.14421 1.76965 -1.49544 -0.45023 0.155442
220 1 0.0618604 2.76405 8.25566 -0.146456 0.452354 -0.234354
221 1 7.78566 8.88276 6.37246 0.977042 0.0873081 -1.02359
222 1 6.11235 5.98944 2.76903 -0.210671 -0.400215 -0.266279
223 1 0.582283 0.345249 7.8923 0.331151 0.571796 -0.0212733
224 1 6.21737 5.82652 4.83604 -0.39796 -0.224981 -0.128976
225 1 7.99402 6.12189 6.34385 -1.10617 0.187159 -0.850801
226 1 1.32037 7.73427 3.36845 -0.207802 -1.38516 1.03913
227 1 5.4501 7.61288 3.71717 0.675727 -0.147375 0.965018
228 1 8.12433 0.555735 9.06334 -0.410349 0.932684 -0.110458
229 1 2.53556 1.54887 1.06067 -0.163523 0.594074 -0.77937
230 1 3.69493 5.24699 6.79932 0.0565833 0.516151 0.264598
231 1 5.10987 6.60409 6.86496 0.625036 0.217295 1.23342
232 1 6.52535 3.37232 2.78587 -0.0638253 -0.149538 0.041863
233 1 8.6724 9.22356 3.00144 0.0839352 0.893669 -0.271709
234 1 6.54945 9.00311 0.0920195 -0.995529 -1.3275 1.14252
235 1 7.94862 7.81057 6.00054 -0.629547 0.289226 -0.689361
236 1 1.25461 5.29954 6.96902 0.605035 0.390527 1.68416
237 1 6.00252 1.43606 1.85135 0.192898 0.902664 0.197168
238 1 6.69397 6.53227 7.19908 -0.404887 -0.277913 0.376
239 1 3.75498 9.16643 6.59091 -0.447255 0.494126 -0.0937754
240 1 4.61098 2.99207 5.58243 0.00416604 -0.941725 0.228037
241 1 3.77414 3.8485 3.02248 0.539523 -0.14422 1.1436
242 1 6.44549 3.48604 1.6777 0.0973098 -0.443649 -1.58715
243 1 1.44593 7.03334 0.0107734 1.05341 -0.289789 -0.58853
244 1 5.43349 7.55929 6.69927 -1.55516 -0.782041 1.04298
245 1 6.33183 2.75307 3.54577 -0.30702 0.454586 0.248289
246 1 7.01949 8.59659 3.7413 1.08001 0.0390158 -0.543028
247 1 3.87694 2.63621 4.52896 -0.0758022 -1.53937 0.689051
248 1 5.20646 8.84713 6.26165 -0.0357896 -0.410733 -1.3828
249 1 3.47066 4.27442 6.68807 0.169954 -0.40445 0.242205
250 1 5.242 6.66635 3.3818 0.142357 0.228115 -0.0293288
251 1 7.90861 2.06096 7.71016 0.179431 -0.678851 -0.0806919
252 1 1.57786 3.98988 5.68734 0.349995 -0.924853 0.331558
253 1 8.98119 5.44717 2.77096 -1.03014 0.483842 -0.147707
254 1 5.31369 0.342103 0.889866 -1.1598 -0.702375 1.11138
255 1 5.69894 5.00582 2.57048 -0.378475 -0.718365 0.0484811
256 1 8.36744 2.91482 0.986975 0.0717847 0.571446 -1.69481
257 1 5.72068 0.565149 4.47446 0.404233 1.12761 -0.243809
258 1 2.52338 7.97374 2.02068 0.618085 -1.07189 -1.63745
259 1 3.62142 6.65702 6.00854 -0.444671 -0.176059 0.20244
260 1 2.84558 4.4115 1.37547 0.33011 0.245551 0.623507
261 1 9.23658 7.26032 8.52383 0.209975 -0.270172 0.18741
262 1 1.59616 1.57209 0.674712 -0.188735 0.528939 0.290934
263 1 6.86384 5.33931 3.07348 -0.554181 0.477476 -0.488594
264 1 6.43691 7.61522 6.96888 1.14757 0.593311 -0.518676
265 1 4.85052 3.56817 4.73332 0.0419284 0.806378 0.821483
266 1 7.0105 6.39915 3.10366 0.259434 -0.0767242 -1.72785
267 1 5.4883 2.25176 1.36102 0.0704407 -0.0531444 -0.944482
268 1 4.529 9.27891 7.29365 -1.00067 -0.527024 0.799504
269 1 2.02384 5.46888 0.175843 -0.358003 -0.00909597 0.74242
270 1 0.943924 8.69806 2.81638 -0.48161 0.0187628 -0.422566
271 1 5.56728 6.6272 1.32986 0.128028 0.775878 -0.730457
272 1 0.508258 5.92152 2.79853 -0.285068 1.09264 0.946757
273 1 5.49487 4.14466 3.88516 -0.718173 -0.463286 -0.549025
274 1 3.236 7.22627 6.8199 0.300661 0.170878 1.20333
275 1 4.50375 6.50895 1.14292 0.113796 -0.750487 -1.67231
276 1 9.22822 7.55976 1.60523 0.0494931 0.56309 1.10628
277 1 5.58214 0.240599 3.34114 0.000684051 0.183704 0.156768
278 1 1.41317 4.276 4.47705 0.735355 0.545827 1.65946
279 1 9.23984 5.763 1.74345 -0.365938 -0.0607083 0.21036
280 1 4.07277 0.779176 3.13469 0.761706 1.3464 0.701447
281 1 7.84541 7.65026 2.53308 0.778072 -0.00966929 0.0322263
282 1 9.33414 4.14653 2.29377 0.840994 0.132184 0.298989
283 1 7.99143 8.76325 2.2284 -1.1943 -0.0352395 -1.0949
284 1 8.03703 8.20696 3.43906 -0.212883 0.94336 -0.665241
285 1 7.92473 9.18434 3.61995 -0.430546 1.13789 0.256962
286 1 1.47802 0.706926 8.57611 1.5573 -1.1786 -0.0718336
287 1 3.1112 9.02558 7.56341 -0.884886 -0.880243 -0.169073
288 1 1.91699 7.63994 5.34553 -0.216633 -0.736292 0.569513
289 1 7.66323 1.79247 4.19651 0.499418 -0.21426 -0.406757
290 1 2.50188 6.65483 7.3984 0.351261 0.0558351 -0.218879
291 1 6.07209 4.0415 8.59176 0.0323976 0.383714 -0.0887632
292 1 2.02892 6.52387 5.24371 0.370621 -0.699565 1.02843
293 1 0.490306 2.0892 2.68287 -0.305802 0.219084 0.684071
294 1 0.317246 5.84096 7.53478 -1.18227 -0.350253 -1.90605
295 1 8.55687 5.13071 5.69917 0.251729 0.665504 0.397717
296 1 7.4464 8.32265 0.101107 1.24224 1.08432 0.861121
297 1 5.04201 5.60286 4.48261 0.316282 0.906507 -0.00534741
298 1 2.93542 5.36631 4.73189 1.55842 0.0059971 0.391417
299 1 5.54637 8.94034 5.12387 -0.7093 -0.534771 -0.10127
300 1 8.60512 4.01046 0.695993 0.944955 -0.489992 0.254894
301 1 2.88103 9.07167 4.73003 0.372334 -0.718828 -1.88662
302 1 8.07308 0.116986 5.25153 -0.0960824 -1.57903 0.916772
303 1 0.859648 1.12438 2.76246 0.523896 0.0236443 -0.0574646
304 1 7.23082 6.13324 4.93397 -0.216619 0.832284 1.09481
305 1 0.981555 9.05165 0.41379 0.323213 1.16014 0.453844
306 1 2.87108 9.06986 2.25769 0.475759 -0.385775 -0.217462
307 1 5.3963 1.17649 2.76123 -0.380198 0.533275 0.6816
308 1 0.109943 -0.00729784 6.92818 1.25372 -0.683924 -0.962395
309 1 9.18179 5.9716 5.92455 0.567927 -0.000406557 -0.958737
310 1 6.5083 4.02719 4.54667 0.463537 0.23126 0.389138
311 1 8.29947 7.895 8.67723 -0.857498 0.244817 -0.413712
312 1 3.41577 6.32957 0.927096 -0.654156 1.29199 -0.189883
313 1 7.27103 3.11195 1.12454 -0.905108 0.317036 -0.250843
314 1 8.46246 3.97936 4.02574 0.188515 0.139422 0.0440994
315 1 4.63727 5.70955 6.23889 0.0739694 0.522344 -1.07574
316 1 1.6242 3.63122 6.71205 0.520849 0.0588897 0.480822
317 1 8.34181 1.1906 0.579421 -1.39209 -0.685009 -0.321143
318 1 8.97899 5.13971 4.73494 -0.151465 0.220965 1.29581
319 1 2.5762 0.067022 0.480302 -1.04275 0.191089 -1.26307
320 1 3.94076 5.78272 4.67141 -0.91597 0.344825 0.515105
321 1 1.19368 4.16627 1.60494 0.689493 1.41032 -0.905038
322 1 2.27186 5.9117 3.952 0.362234 0.375913 -0.535436
323 1 0.59274 4.69829 3.12394 0.246645 -0.271509 -0.256397
324 1 1.90697 4.79256 6.347 0.542891 0.143654 -0.608999
325 1 6.39046 8.35985 1.81205 0.329966 0.285125 -0.0563121
326 1 6.03847 2.15618 6.82881 -0.215509 -0.140145 0.607299
327 1 4.86833 1.55854 9.22388 -0.631028 -0.543829 -0.183514
328 1 8.24199 7.50669 1.2537 -0.175852 -0.744246 0.201958
329 1 9.37999 8.99248 0.404378 -0.353608 1.57531 0.290345
330 1 3.46685 5.03778 1.89703 0.424756 0.115619 -1.553
331 1 3.92289 0.840495 4.32869 0.22093 0.734187 1.10169
332 1 4.92786 0.944981 3.71581 -1.01123 -0.579103 0.458922
333 1 0.780943 3.73662 2.73408 0.36107 -0.178186 -0.289916
334 1 1.0215 7.86866 5.83859 -0.63342 0.808822 -0.250829
335 1 2.16827 2.86416 2.34457 -0.0599393 0.357653 -0.634397
336 1 7.3107 7.13956 6.53563 0.349695 0.91356 -0.0894686
337 1 8.20452 2.18879 6.74067 0.362859 0.582021 -0.0190178
338 1 8.94031 2.1085 7.5902 0.598557 -0.402565 0.384895
339 1 0.806504 3.09468 7.09992 -0.599703 0.681221 1.91681
340 1 5.45149 8.7286 2.06056 -0.939742 0.41017 0.996608
341 1 6.4649 3.41741 6.64253 0.612252 -0.83675 -0.497206
342 1 6.27137 4.30676 1.09825 -0.956343 -1.90235 -0.620486
343 1 6.92877 6.73597 4.15772 0.608449 -1.33754 -0.377684
344 1 1.00794 1.56819 5.50965 0.615581 -0.0446499 -0.878508
345 1 8.92736 6.28021 8.06463 -0.548521 -0.685328 0.92794
346 1 8.86836 9.24535 8.90086 -1.40599 0.320697 1.23689
347 1 6.23842 6.11769 8.17738 -0.403444 -0.721213 -0.524967
348 1 7.149 1.916 6.97769 1.05892 -0.042839 0.0358434
349 1 2.59528 4.65312 0.203944 1.04284 1.22738 0.458603
350 1 3.35874 3.27754 6.88342 -0.724419 0.268138 0.08943
351 1 5.9709 8.79241 3.86423 0.0745914 0.118414 -0.123598
352 1 6.36603 8.00163 7.93222 -0.261822 1.02193 0.39238
353 1 0.104781 3.72469 6.86267 1.71718 0.234456 0.0152104
354 1 0.276943 6.92148 5.80037 0.184855 0.11027 0.189708
355 1 1.18286 6.70097 2.57974 0.0809583 -0.245043 -0.0146981
356 1 5.31243 2.27226 7.6706 -0.20432 1.07124 -0.176422
357 1 9.25341 3.50391 1.47622 0.446672 -1.27399 -0.0493664
358 1 4.92438 7.20944 4.94287 0.338288 1.02183 0.125399
359 1 3.59308 6.77314 7.78703 -0.206213 -0.0202632 0.0373914
360 1 3.76321 2.68212 0.973622 -0.620863 0.238335 -1.03949
361 1 6.66313 1.36706 6.20175 -1.06544 -0.418896 1.02741
362 1 1.82148 9.11707 2.23114 0.245586 0.113741 0.455882
363 1 8.8594 2.29224 2.65345 -0.611318 -0.122188 -0.0263298
364 1 2.17563 1.10066 7.47023 0.317552 -0.0107774 1.27288
365 1 2.54764 3.62858 0.409001 -2.42998 0.392922 -1.36615
366 1 5.08113 8.67541 0.502406 0.0994873 -1.40434 -1.27723
367 1 1.52609 2.71015 0.497856 -0.0286812 1.09924 0.561225
368 1 2.42198 2.37094 4.6971 -1.07092 1.77344 -0.683658
369 1 8.19174 7.56685 0.229809 0.538544 -0.252291 -0.433742
370 1 1.36606 6.97684 7.86067 -0.496215 0.819442 1.28831
371 1 3.01589 3.18564 4.95861 -0.0123119 0.299812 0.911895
372 1 5.97185 0.194309 8.70107 -0.113536 0.87569 -0.660572
373 1 6.54636 4.5073 2.14646 -0.349221 -0.660397 0.215887
374 1 8.85675 0.0743161 5.99815 -1.20775 0.569892 -0.422706
375 1 2.43995 6.22798 1.79535 -0.764916 0.593338 0.214479
376 1 4.4893 2.26821 1.50431 -0.283162 1.35616 0.715316
377 1 1.62105 6.3518 7.01749 -0.403512 -1.25641 0.736457
378 1 3.67296 6.49907 2.06853 -0.865459 -1.78085 -0.0913253
379 1 7.85814 4.80713 7.80054 -0.268292 -0.529105 -0.585623
380 1 7.71434 2.91568 6.01379 -1.07165 -0.347618 -1.27625
381 1 5.24576 3.10424 3.63942 0.00195376 -0.342453 0.0210351
382 1 5.32616 7.8544 5.60407 -0.736284 -0.502833 0.468956
383 1 8.92591 8.00443 7.75 0.183081 -0.222457 0.595509
384 1 2.63433 0.644589 1.71818 0.847525 -0.191905 0.0391653
385 1 4.47641 7.38993 8.87224 -0.00316186 -0.507117 -0.0966734
386 1 8.43323 4.54419 2.80914 -0.343777 0.335018 -0.0594005
387 1 0.603929 8.33915 1.20241 -0.108078 1.2557 -0.147901
388 1 4.55121 7.6861 0.487488 0.99985 0.27289 0.0507505
389 1 6.35711 3.44387 5.50613 0.822333 0.337455 0.0142615
390 1 3.32115 5.45502 3.58616 -0.512547 1.3722 -0.516473
391 1 0.187107 8.90631 2.15946 -0.177904 0.585892 0.577513
392 1 4.1698 4.23525 1.52297 0.71503 -0.490162 0.0932892
393 1 6.3129 7.38479 1.51234 -0.855457 -0.368967 -0.00669065
394 1 7.79941 5.32947 4.69375 -1.56115 -0.564351 -0.631864
395 1 9.23839 1.76758 0.207705 0.176844 0.461917 1.85669
396 1 2.74291 3.33288 1.44412 0.740451 0.529011 -0.763424
397 1 5.96208 4.04305 7.47566 0.137241 -0.205421 -0.0856509
398 1 7.76704 4.80059 0.752314 2.15044 -0.372694 0.0270349
399 1 7.73481 0.200577 1.54299 -0.732262 -0.378151 0.203031
400 1 1.79222 3.64129 3.00894 -0.66285 -0.246382 0.253813
401 1 6.69795 4.36935 9.27217 0.125047 -0.524336 -0.994179
402 1 1.63694 2.24867 1.48075 -0.312621 -1.52802 -0.173936
403 1 2.26871 5.06793 2.09163 -0.303648 -0.47428 0.153052
404 1 2.81377 7.12916 1.32195 0.395077 0.307597 0.549422
405 1 3.72248 5.60547 5.72775 0.698353 0.350056 -0.133633
406 1 4.2259 8.43996 1.11 -0.590767 0.822358 0.515063
407 1 6.95165 8.99166 1.23749 0.487673 -1.20297 1.29719
408 1 2.64291 2.53215 0.796408 -0.280472 -0.20928 0.42431
409 1 4.52218 1.78535 4.26831 -0.249006 -1.17977 -0.660923
410 1 8.26305 1.19805 8.23924 1.43022 -1.0212 0.11761
411 1 6.22172 8.87288 2.85488 0.058793 0.616788 -0.0704718
412 1 2.8963 7.07368 5.35226 0.16717 -0.205283 -0.860458
413 1 0.846108 0.879911 1.06135 0.0970206 -0.0681383 -0.692228
414 1 6.5121 1.42039 9.06475 -0.059996 -1.63782 -0.833208
415 1 6.76371 8.90317 8.46602 -0.478692 -0.242145 -1.34309
416 1 8.4283 8.60578 0.153613 0.0342355 -0.516697 -0.898691
417 1 7.63003 2.71968 3.66732 -0.131012 0.609728 0.675289
418 1 3.25154 1.18716 3.62984 0.323457 -0.0522726 -0.276909
419 1 7.23134 2.46925 2.68238 0.173079 -0.724182 0.476128
420 1 2.73348 3.8144 5.96453 0.88887 -0.723231 -0.595399
421 1 6.99409 8.15039 6.17678 -0.5412 0.763711 0.895047
422 1 6.90393 3.66674 3.69113 -0.581283 0.410171 -0.498893
423 1 8.59602 2.32144 5.81447 0.558523 0.165484 -0.398698
424 1 4.79365 6.70945 2.32767 0.55633 0.638696 -0.678886
425 1 1.06478 0.390928 6.98995 -0.175145 -0.123801 0.136621
426 1 2.31025 1.27191 8.57708 -0.407659 -1.21054 -0.913301
427 1 6.84386 5.03289 5.07074 0.431257 -0.0919171 -1.09869
428 1 3.88291 8.23096 7.1114 0.975341 0.373563 0.468473
429 1 6.10109 0.264069 6.70024 -0.200762 -0.539028 0.774452
430 1 7.47754 4.33087 4.42117 0.434769 -0.380342 -0.429363
431 1 0.272961 3.0164 3.40239 0.443135 -1.33187 -1.44314
432 1 1.53042 7.94885 2.37247 0.27684 0.773023 -0.911484
433 1 1.89057 8.70263 4.86488 0.250439 -0.36654 0.49963
434 1 7.40877 5.0237 8.7153 -0.462699 0.224043 0.138255
435 1 7.71781 6.98437 8.4146 0.360691 -0.169484 -0.514721
436 1 8.6159 6.88225 5.94127 -0.719373 -0.301574 -0.985049
437 1 5.53124 3.61504 2.82058 0.858495 0.490703 -1.52574
438 1 2.2365 5.31555 3.10466 0.257483 -0.171417 -0.82111
439 1 5.21068 8.68379 3.09708 -1.04962 0.844542 -0.37378
440 1 5.23736 5.89074 0.510577 1.44626 -0.0202952 0.0923624
441 1 7.3893 0.918476 0.705653 0.182099 -0.463382 -0.586537
442 1 6.22608 4.32628 3.16117 0.769276 0.267094 -0.460709
443 1 2.80481 3.50458 3.07904 -0.721741 -0.2519 1.21461
444 1 8.49477 5.95428 4.26766 -1.27864 -0.514494 -1.22883
445 1 7.58587 5.49942 5.66276 0.133799 0.45076 -0.0613157
446 1 8.31123 3.89423 6.01546 0.708147 -0.451142 -0.856532
447 1 8.96722 5.97499 0.578403 -0.781462 0.787868 -0.366921
448 1 2.5203 8.36908 0.294796 1.42568 -1.01949 0.62318
449 1 4.60098 7.13272 6.00069 0.464569 0.378991 -0.275779
450 1 3.37569 8.17188 6.18678 -1.75772 1.29239 -0.155841
451 1 5.17684 4.12929 6.68191 0.44842 1.84358 1.14899
452 1 4.64206 6.36584 9.06507 -0.557945 -0.125469 -0.0353029
453 1 2.14782 1.64125 6.59641 -1.1265 0.375895 -0.534338
454 1 1.4387 6.39986 1.45602 1.87591 -0.0608744 -0.141023
455 1 0.369976 4.16927 5.37945 0.659223 -0.744509 -1.19373
456 1 0.407343 5.0374 2.19534 -0.0601392 0.505764 -0.479757
457 1 7.22638 7.2604 9.22516 0.848994 -0.0605628 -0.996811
458 1 2.14786 8.05696 4.13024 -0.365011 0.139979 0.728639
459 1 7.7206 4.71196 6.52488 0.13761 0.307796 0.0973428
460 1 6.50852 4.99169 4.06011 -0.584333 -0.682581 0.735674
461 1 8.64434 5.33818 6.74045 1.13643 0.659458 0.269961
462 1 4.00346 9.27246 9.00126 -0.163942 -0.789001 1.42629
463 1 3.1394 0.569949 8.91439 0.612114 -0.202885 -1.02887
464 1 8.32303 3.11146 4.53095 0.44749 0.034035 0.149669
465 1 1.31136 5.83586 7.90759 1.80247 0.0613755 1.26688
466 1 3.76301 2.30926 7.98119 0.0194336 -0.205289 0.448478
467 1 5.46776 2.10524 3.55847 -1.35925 0.459428 -0.401383
468 1 8.96693 8.6918 3.83334 0.604416 0.141829 0.622999
469 1 7.40002 0.956758 5.47907 1.59861 0.448843 0.466875
470 1 7.34418 2.95112 8.08552 1.16839 0.811645 0.0837087
471 1 4.21862 2.02417 5.32551 0.38723 0.367642 0.170577
472 1 0.159423 4.6293 1.31018 -0.461204 0.16226 -0.661895
473 1 1.33801 2.26565 6.25953 -0.989864 -0.403673 -1.10768
474 1 9.13649 8.00671 0.653936 0.0510039 0.33423 1.04469
475 1 0.632233 0.267026 9.00189 0.456309 -1.48664 -0.0260228
476 1 8.87955 0.137478 7.83389 0.531243 -0.608425 0.112262
477 1 9.20025 1.38116 3.11238 -0.732666 0.676307 0.348701
478 1 5.01296 8.38636 7.1852 -0.734624 -1.01756 0.0710904
479 1 1.47365 3.85839 0.63327 0.2304 -0.67093 1.27888
480 1 3.48831 1.61204 2.67722 0.418097 -0.367229 0.205779
481 1 3.59078 2.09046 3.60373 -0.478975 -0.223531 0.689087
482 1 6.69586 3.23543 8.8691 -0.0338198 0.295119 -0.937264
483 1 3.74092 7.63911 5.4329 -0.0263764 1.10094 -0.139597
484 1 4.73076 0.0720188 4.74449 0.60608 -1.36516 0.342278
485 1 6.33853 5.98315 0.934736 0.378748 1.12435 0.441926
486 1 6.35489 7.08566 0.397345 -0.373972 -0.598678 0.103502
487 1 6.78631 7.30675 2.4847 0.115901 -0.67515 -0.493577
488 1 7.22992 7.33566 7.52869 -1.15999 0.989108 -0.628873
489 1 0.332743 1.73702 8.13919 0.894649 1.10986 -0.822315
490 1 3.07865 7.48157 4.37733 -0.907256 -0.145205 -0.456142
491 1 7.32652 7.93379 1.73845 0.142803 -0.27186 -0.22681
492 1 5.79714 1.52172 8.01696 -0.297132 0.653874 0.682121
493 1 7.55266 1.43792 9.17356 -0.125248 -0.386612 -0.672594
494 1 6.10438 2.47612 5.0711 -0.206519 -0.0048352 -0.300742
495 1 7.19607 1.0577 3.55533 0.0660335 -0.234076 0.533599
496 1 2.65165 3.35399 8.70114 0.181141 0.31782 -0.402666
497 1 2.33703 0.171145 8.20998 0.0645407 0.682211 0.689962
498 1 6.95833 9.1964 2.22562 0.287788 -0.353369 -1.01939
499 1 3.99516 7.50467 2.45356 0.397553 0.873943 0.693652
500 1 4.21671 4.18981 8.54983 -0.169159 -1.21056 0.33304
501 1 6.23732 8.8501 5.89957 0.496757 -0.425461 -0.294101
502 1 0.685636 5.17628 4.44934 -0.891392 0.883899 0.393131
503 1 3.81318 7.34384 1.38285 -0.560006 -0.295608 0.635397
504 1 5.14325 3.05698 1.8879 -0.384116 -0.0705972 -0.385025
505 1 7.26105 5.75974 3.91183 0.406501 -0.529589 -0.214852
506 1 1.16113 8.91496 5.70263 0.173704 0.482435 -0.708866
507 1 6.88407 2.25239 0.18154 0.104956 0.25912 -0.0948773
508 1 6.31228 1.90995 2.99941 -1.13852 0.0975381 0.261042
509 1 0.742891 7.29998 6.87758 0.128422 -0.021252 -0.396619
510 1 0.378289 7.1626 3.2302 0.442244 0.47332 0.237711
511 1 6.62362 6.94754 5.08254 0.935376 -0.00337877 1.08455
512 1 4.34976 5.22533 3.73364 -0.468036 0.23403 0.0883681
513 1 1.9548 7.11936 4.46157 0.658792 0.436727 -1.41506
514 1 7.99964 7.47956 4.28787 -0.527172 0.817817 0.425555