ITEM: TIMESTEP
50630000
ITEM: NUMBER OF ATOMS
1000
ITEM: BOX BOUNDS pp pp pp
0.0000000000000000e+00 9.4000000000000004e+00
0.0000000000000000e+00 9.4000000000000004e+00
0.0000000000000000e+00 9.4000000000000004e+00
ITEM: ATOMS id type x y z vx vy vz
1 1 8.55514 6.46172 2.70116 -0.291629 0.631482 -0.601991
2 1 5.59488 6.16509 0.691314 -0.391361 0.62075 -0.114016
3 1 3.68191 3.51442 3.81783 0.449775 0.869704 -0.121327
4 1 1.94727 7.78459 2.85854 0.0127794 -0.326406 -0.245725
5 1 0.743267 0.142068 2.40485 -0.84636 -0.250159 -0.251966
6 1 5.74035 7.58755 4.75317 0.171287 -1.3009 -1.06969
7 1 3.29583 7.82218 2.17628 -0.0541002 -0.114647 0.852423
8 1 3.92491 0.194863 7.39917 -1.54572 -0.76778 -0.12314
9 1 1.87665 7.30149 5.19358 -0.0379997 0.192675 -0.0603318
10 1 2.00229 6.61 1.44671 -1.08208 -0.702884 0.411938
11 1 6.20319 0.820307 5.02902 -0.126248 1.22529 -0.258977
12 1 8.76032 0.636529 0.499772 1.3834 0.0846968 0.928134
13 1 1.39551 2.26503 1.2274 -0.393571 -0.272003 -0.250581
14 1 3.84151 3.4685 4.86225 -0.222203 -0.772299 -0.0140575
15 1 0.610674 9.08606 7.79652 -0.676497 -0.085315 -0.0609475
16 1 1.61056 0.446609 6.38286 0.390241 -0.038228 1.29099
17 1 6.81362 3.76604 1.10621 -0.893027 -0.483209 -0.00923336
18 1 4.43772 6.90891 8.65992 -0.205305 0.299502 -0.0562791
19 1 3.91316 4.9356 7.70905 0.182646 -0.669652 0.00228655
20 1 8.71205 5.79251 8.3656 0.328194 -0.0676302 -0.173803
21 1 0.0740052 0.711677 1.32211 -0.135389 -1.12308 0.200882
22 1 7.77297 4.51713 9.13723 1.65992 1.56961 -0.152951
23 1 4.97038 1.75181 0.514858 -0.246833 -0.106637 -0.806133
24 1 3.70159 7.04703 5.06402 0.079583 -0.757144 -0.1475
25 1 7.05482 2.23067 1.8019 0.212988 0.201654 -0.301907
26 1 9.31308 3.15083 4.45813 -1.71724 0.230739 1.13585
27 1 0.880414 6.98909 1.7995 -0.700917 0.997487 -1.44986
28 1 5.17484 2.48175 1.22858 -0.5461 -0.412987 -1.00232
29 1 1.59972 4.1231 4.90694 -1.04131 -1.22912 -1.03455
30 1 0.614117 3.13404 6.7368 0.944685 0.257989 0.775531
31 1 2.40847 1.56128 1.17874 0.00708243 -1.25139 0.994592
32 1 8.30259 4.17116 7.37324 -0.571622 -0.889764 1.61082
33 1 6.36825 8.15834 0.55048 0.457127 1.70292 -0.978092
34 1 5.34745 9.18721 3.62809 -0.207542 -0.015894 0.998736
35 1 2.07741 0.737068 1.65583 -0.158232 -0.0112821 0.186587
36 1 2.58771 2.79081 1.14443 -0.172712 -0.253921 -1.41762
37 1 6.30024 7.47313 9.23523 1.34789 -0.0200863 0.806673
38 1 0.657851 0.73635 0.46785 0.781782 -1.53392 0.697457
39 1 5.60581 7.38101 0.627281 -0.179952 -0.360263 0.917734
40 1 8.27409 1.12498 9.03462 1.20793 -0.583735 -0.58771
41 1 7.30709 8.86839 5.81999 0.0399374 0.21835 -0.103504
42 1 9.34377 0.714659 5.31105 0.973372 -0.162682 -0.198898
43 1 2.35147 0.0615202 5.65749 0.0078542 -0.376372 -0.860765
44 1 2.1688 2.15966 5.69403 -0.528217 0.431287 -0.173391
45 1 7.57023 2.50791 0.406752 0.762869 -0.520624 0.356422
46 1 0.880496 5.59667 3.63876 -0.740122 0.382277 0.476125
47 1 1.44345 5.38443 9.29529 -0.0261938 0.475734 0.0381123
48 1 7.01502 5.15812 2.7063 0.227551 0.814745 1.56373
49 1 2.53771 5.204 6.79431 0.4636 0.300027 1.03808
50 1 1.85514 6.08893 5.02971 0.836739 -0.694309 -1.40871
51 1 1.23254 6.01483 1.93342 0.60358 -0.0913064 0.235174
52 1 5.19365 0.742275 2.14094 0.00557118 -0.562605 -0.24421
53 1 2.80249 1.33457 2.1579 -0.132187 -0.41432 0.941819
54 1 8.79936 5.92372 1.12252 -0.0338974 0.45836 0.0106
55 1 1.43482 5.23181 6.64494 0.146019 0.611973 0.165816
56 1 0.424767 3.87679 7.73508 -0.734909 0.0822308 0.794019
57 1 2.23888 5.76688 7.63945 0.239339 -0.0808101 0.198843
58 1 6.00134 6.64719 1.666 -1.25619 0.620801 0.867253
59 1 7.20064 7.5611 7.33327 -0.175874 0.276467 0.0256039
60 1 1.21771 8.23322 3.59353 -0.57829 0.259388 -0.692378
61 1 2.17257 2.19965 1.97541 -1.21987 -0.548713 -0.706172
62 1 2.67325 7.4077 1.54671 -0.232804 -0.25032 -0.511106
63 1 6.60594 1.33728 5.86062 -0.634751 -0.0554799 0.15296
64 1 0.817667 8.12957 1.74912 -0.197037 0.10156 0.455589
65 1 9.05494 1.4829 4.34196 1.03943 -0.630677 -0.389729
66 1 3.34994 9.19098 5.10602 1.39413 -0.0430366 0.0708072
67 1 4.69759 8.66951 3.00765 1.38812 0.692825 1.04318
68 1 5.18056 7.38449 7.96592 -1.52918 -0.249804 -0.37034
69 1 6.48821 3.68512 3.20902 0.535174 0.423852 0.212888
70 1 6.90296 3.01702 3.8235 -1.2797 0.414935 0.504083
71 1 7.03115 3.64103 8.6085 0.11372 0.288913 0.100298
72 1 5.37828 1.68387 3.78601 -1.17809 -0.933436 -0.397843
73 1 2.7679 8.67206 5.95934 0.096172 0.692678 0.101816
74 1 5.5324 7.54232 1.79497 0.761755 -2.55931 -0.388117
75 1 7.77207 1.47021 7.07667 0.257206 0.722076 1.11298
76 1 7.13616 1.31028 2.18533 0.614977 0.851766 0.474588
77 1 0.863774 4.1435 4.04588 0.194154 -0.714336 -1.21961
78 1 1.68599 7.58595 1.77052 0.301248 -0.791498 -0.527511
79 1 5.90264 1.22546 6.60281 0.636924 0.342652 -0.109748
80 1 9.17632 7.4831 8.88227 -0.0589882 0.435438 -0.0754923
81 1 1.6664 8.29777 5.57957 0.143507 0.724287 0.440293
82 1 5.42689 8.15305 3.89676 -1.12785 0.51634 0.381939
83 1 5.09197 4.77348 5.24674 0.406474 0.0469525 -0.736318
84 1 0.773533 6.91168 5.81199 0.688394 -0.339103 -0.843478
85 1 1.49142 2.64412 8.59163 0.0607381 1.39251 -1.71294
86 1 4.20537 2.49288 0.633194 0.460368 -0.442743 0.934098
87 1 4.5859 2.98048 3.00925 -0.689478 -0.630162 0.600338
88 1 9.13209 1.06933 7.09652 0.460839 0.0947695 0.258842
89 1 1.63289 4.74096 3.10388 0.764929 0.0463116 0.717917
90 1 5.8195 3.35 1.36397 -0.402135 0.365107 -0.333176
91 1 7.28928 6.0535 6.07417 1.23675 0.793362 -0.359658
92 1 7.5675 8.40778 7.9394 0.727886 1.0158 0.453117
93 1 2.41485 8.67616 4.904 -0.619945 1.04943 0.0328328
94 1 0.784885 6.55213 2.78248 0.0823829 1.21003 -1.2761
95 1 9.19994 6.62793 3.7678 0.812374 0.94718 0.489561
96 1 4.9722 8.41421 7.3796 -0.182832 1.00785 0.458904
97 1 1.00418 3.55451 1.02571 0.431522 0.296999 -0.784939
98 1 5.47509 8.49028 2.23691 -0.392891 -0.909671 -0.708029
99 1 2.68265 0.180352 4.4106 -0.0813905 -0.512081 1.30491
100 1 6.46004 8.23714 5.19923 0.757137 -0.932299 -2.39156
101 1 4.41379 4.89262 3.41093 0.130989 -0.447935 1.32375
102 1 4.07749 7.8276 2.87801 -0.156925 0.49967 0.41134
103 1 2.65633 9.28224 3.47357 -0.0103665 -0.25067 -1.50523
104 1 2.19676 8.36233 3.88895 -0.590258 0.414763 0.649412
105 1 7.3359 1.10096 5.15329 -0.497184 -0.539328 0.317192
106 1 7.76842 1.37704 6.04782 0.376547 -1.40279 0.238212
107 1 8.35396 7.56647 2.79253 0.0820202 -0.863265 0.784357
108 1 0.388679 1.64022 5.16551 -1.22078 -0.181328 -0.515331
109 1 6.59859 2.7663 0.984485 0.142403 0.0138294 -1.09078
110 1 9.33674 4.33028 6.86823 -0.417421 0.186676 -1.25747
111 1 6.59512 5.04425 7.61618 0.559051 -0.432574 -0.96068
112 1 6.59692 0.595341 0.409253 0.989283 0.565963 0.789529
113 1 4.29543 4.25661 8.52475 -1.09213 0.377775 0.792298
114 1 0.914471 1.79035 0.275955 -1.27241 0.853003 0.251857
115 1 5.96292 0.459391 4.11412 0.404946 0.0100533 -0.378349
116 1 5.47243 2.88063 8.23859 -0.271981 -0.481413 1.09961
117 1 7.50487 8.76266 0.659404 -0.159208 1.22944 -0.0405967
118 1 8.10311 2.34902 5.94657 -0.377062 -1.03815 -0.728912
119 1 5.37624 0.187492 6.3867 -0.408635 -0.45722 -0.630855
120 1 0.755967 6.20889 0.0178233 1.03381 1.25869 -0.269019
121 1 5.88041 8.91067 4.5903 1.00226 -0.466414 -0.365436
122 1 0.755804 7.24868 8.84756 -0.215115 0.494031 0.392718
123 1 2.8126 7.73925 5.56327 -0.237761 -1.23419 0.127078
124 1 4.81319 1.03603 6.43138 -1.62852 -0.00962521 0.492273
125 1 6.28419 6.93405 6.39476 -0.0833442 -0.435553 -0.405684
126 1 0.271603 4.30752 0.986031 -0.189726 -0.612116 -0.501673
127 1 3.19622 8.54046 4.13044 0.346731 -0.455472 -1.5235
128 1 4.77648 5.3739 8.34813 -0.66248 -0.76658 0.0519295
129 1 3.6516 5.26897 0.860491 -0.824439 -0.262039 0.966521
130 1 3.55418 0.382633 3.80561 -0.432456 -0.362373 0.240378
131 1 -0.0258529 1.83846 2.54472 -0.37258 1.00555 -1.11244
132 1 7.05539 2.86435 5.41194 0.488953 0.74194 1.06214
133 1 6.31277 8.2422 1.71391 1.47426 -0.579362 -1.08791
134 1 0.817988 5.81195 4.81484 -0.535196 0.0785017 -0.998974
135 1 3.6923 8.84588 3.21669 -0.722883 0.412905 -1.32046
136 1 0.0659431 1.69 6.07191 -0.0155808 0.410522 0.208357
137 1 2.21186 4.87098 0.575973 0.903625 -0.452929 0.743047
138 1 8.16069 3.22531 8.92181 0.396027 0.360234 0.368537
139 1 0.639139 2.73158 5.68756 0.0487651 0.313771 0.961777
140 1 3.15488 4.54518 6.11115 -0.66103 0.120653 -0.42904
141 1 3.54826 8.76135 8.07079 0.268916 0.557168 -1.45637
142 1 3.3642 3.24187 0.644205 0.0385942 -0.262167 -0.431794
143 1 4.59697 5.73922 0.678176 -0.88501 -0.226354 0.318919
144 1 0.5548 3.94827 5.99939 -0.738759 -0.41431 -0.661068
145 1 8.69557 4.17614 0.596978 -0.888071 -0.106524 0.04153
146 1 6.50996 1.44804 9.22646 -0.837523 -1.52352 1.78492
147 1 5.11531 1.43934 7.39133 -0.82573 -0.78311 -0.979365
148 1 8.1835 4.83473 8.17232 0.335732 -1.5842 -0.232904
149 1 1.92201 8.80386 2.92552 1.29411 0.62134 0.189358
150 1 5.5042 0.726089 3.197 0.396773 0.133817 -0.365754
151 1 0.67792 0.0724478 4.66767 0.510153 0.469213 -0.55353
152 1 6.22387 0.152257 8.98817 0.49449 -0.330393 0.358623
153 1 1.46541 6.12189 0.728913 2.2042 0.378937 1.24404
154 1 4.72145 7.73981 0.790332 0.367771 1.03769 -0.331853
155 1 9.19388 9.1428 2.86001 0.17793 1.73393 -0.945056
156 1 4.45463 6.96342 3.19279 -0.551983 -0.868617 0.450814
157 1 5.96114 4.38932 6.93628 0.397173 1.01765 0.675578
158 1 3.09991 6.51149 9.06179 -0.0138031 1.51181 -0.155221
159 1 1.34135 7.54677 6.37504 -0.562873 -1.21538 -0.835784
160 1 4.89395 0.452864 7.32827 -0.580092 -0.0785728 0.601297
161 1 1.05159 4.02979 6.9119 0.893085 0.29964 -1.25304
162 1 8.49186 2.14821 9.14708 -1.20823 -0.231639 -0.233716
163 1 0.801014 2.68132 4.50752 0.558254 0.537 -0.428109
164 1 5.42946 8.44852 1.15301 0.813781 -0.409054 -0.693084
165 1 6.78665 3.08752 -0.0344466 -0.341183 -0.362 -0.456832
166 1 5.41427 5.25909 3.72556 -0.797423 0.623183 -0.0589194
167 1 3.89242 6.85322 2.21165 -0.856021 -1.01302 -1.07203
168 1 6.68209 4.12892 0.077077 -0.607994 -0.958917 0.333121
169 1 2.01594 6.79567 7.33472 -0.766187 1.2252 -1.08111
170 1 0.0302628 2.50036 3.61737 0.137905 0.864522 -0.796294
171 1 7.48567 6.79683 2.72193 -0.297044 1.85664 -0.853062
172 1 2.63335 4.05837 9.33472 -0.491836 0.91475 0.792481
173 1 9.14441 5.73633 9.32427 0.153265 1.01458 0.513226
174 1 9.09819 4.54174 5.54724 -0.431163 0.258936 0.0886606
175 1 7.09954 6.41005 1.50931 -0.191202 0.256203 -0.160138
176 1 2.52203 0.0329683 6.6745 1.48782 0.305009 -0.134112
177 1 5.46874 8.23612 0.0796641 0.318066 0.912203 0.719701
178 1 7.68102 3.1905 4.44199 0.175926 0.649026 -0.0359108
179 1 5.34649 0.279891 5.24315 0.369915 -0.33933 -0.509402
180 1 8.99528 9.06941 4.76413 1.24232 0.557367 -0.529006
181 1 7.30992 6.51631 4.24695 0.146262 -0.997372 0.350967
182 1 5.25941 2.76251 5.47489 0.675217 0.12456 -0.884101
183 1 2.38138 5.11709 8.90654 0.0212176 1.54582 -0.416143
184 1 3.60956 0.485606 8.52782 1.60773 0.296853 -0.198716
185 1 3.46085 7.02627 6.80865 0.532962 0.780594 -0.449407
186 1 3.21646 5.5559 5.98089 1.78696 -1.28901 -0.231988
187 1 2.93397 1.45153 6.06172 -0.116629 -0.72269 1.38252
188 1 3.6908 6.35613 0.56649 -0.962362 -1.11629 -0.984579
189 1 3.44986 4.49011 3.56942 -0.150328 -0.245546 -0.512742
190 1 6.08967 4.41393 1.62166 -0.154911 -0.42975 -0.633706
191 1 4.26869 5.03348 9.20786 0.717372 0.0545984 -1.05629
192 1 9.15704 4.63543 8.10702 -0.849384 0.0117162 0.879412
193 1 3.49678 7.31823 8.54251 0.274531 0.320819 1.13028
194 1 1.80237 9.28751 8.36869 0.0185167 0.0912774 -1.19049
195 1 7.63077 0.317491 3.874 0.151389 -0.583054 0.402843
196 1 2.6182 0.932302 3.37021 -0.0259689 0.261901 1.07113
197 1 6.93494 5.7651 8.39631 0.0140018 0.972934 -0.274604
198 1 2.97973 2.061 0.457144 -0.0441295 -0.839916 -1.87757
199 1 0.0334448 6.45847 4.9373 -1.05889 0.0614733 -0.898623
200 1 4.54681 9.17985 8.12207 -0.0683469 -0.00777006 -0.494027
201 1 4.06592 1.09099 2.17662 -0.607041 -0.539051 -0.426691
202 1 8.16017 9.15179 3.15756 -0.149168 -0.237939 0.714709
203 1 5.32327 7.59004 6.9159 1.48485 -0.533041 0.329698
204 1 4.74274 2.4517 7.2942 0.818633 0.28379 -0.277628
205 1 5.35103 8.46847 5.28061 0.163542 -1.91487 0.814305
206 1 0.780439 1.60342 4.22443 0.838329 -0.612591 1.60244
207 1 7.67065 3.69143 0.324478 0.239512 0.663478 -0.155651
208 1 7.57146 4.1732 5.26744 0.635602 -1.88707 0.551894
209 1 6.5772 0.422654 6.44184 -0.39529 0.048615 -0.440565
210 1 1.32419 0.795044 8.16341 0.209891 0.629207 0.166739
211 1 8.75799 2.13913 0.945479 0.287178 -0.158877 0.597865
212 1 5.99076 7.03223 2.84133 -0.846509 -0.213979 0.904754
213 1 2.63401 3.02612 3.46608 0.0672341 -1.8129 -0.11892
214 1 8.69933 2.55773 8.06546 -0.20571 -1.09068 -0.365821
215 1 3.58089 5.40142 4.00961 -0.360782 -0.162209 -0.577081
216 1 5.19814 6.12816 4.28456 1.60411 -0.0669175 -0.860264
217 1 4.09064 1.26315 7.10493 0.0763984 -0.977857 -0.765482
218 1 3.37472 3.32503 1.71824 1.09995 -0.503397 0.165015
219 1 5.21743 3.2601 0.469044 -0.705793 -1.26795 0.418695
220 1 9.28628 2.09505 7.2758 -0.0390367 -0.146479 0.661261
221 1 6.23119 9.21301 5.55414 0.230893 0.299232 0.479455
222 1 7.94082 4.61687 2.15212 0.918579 0.569421 0.26777
223 1 2.23484 1.54915 7.99872 0.642607 -0.680452 0.108681
224 1 7.68582 6.93198 5.18143 -0.252831 -0.942336 -0.98316
225 1 6.71724 5.32246 6.53656 1.0916 0.768283 -0.189365
226 1 1.68999 7.43176 4.15543 0.401563 -0.0211464 -1.04389
227 1 5.3318 7.0818 3.92548 0.592241 0.591441 -0.0280124
228 1 7.30691 2.63325 8.64519 -1.08707 0.00480308 0.37313
229 1 3.09113 0.858956 0.696438 1.08678 0.802562 -0.875405
230 1 4.64941 3.48011 7.49186 -0.0776838 0.543125 -0.724098
231 1 6.23919 6.10148 7.67505 -0.866666 -1.75579 0.889148
232 1 8.68831 5.50469 2.18707 -0.0522586 0.223772 0.59276
233 1 6.79668 7.71241 8.28821 -0.149352 0.0666712 1.61606
234 1 5.16648 9.21749 8.99624 0.0227886 -0.183523 -0.203403
235 1 7.28506 7.20137 6.32897 -0.0939186 0.0499011 0.0114884
236 1 1.93213 6.2359 8.48416 1.27524 0.912714 -1.05883
237 1 7.46694 1.73621 9.143 -1.54279 -0.521071 1.22879
238 1 6.54464 6.80438 0.665666 -0.3543 0.769783 -0.562787
239 1 3.88046 7.62963 5.94888 -1.42192 0.353485 -0.139011
240 1 3.9798 2.65902 5.51873 -0.678656 -0.42341 0.969214
241 1 3.36067 5.18529 1.84684 0.397924 0.395463 0.984617
242 1 7.07001 2.99043 2.65591 0.484977 1.94071 0.92005
243 1 1.72851 8.51065 1.18456 0.370582 0.201634 -1.23281
244 1 6.20886 7.2138 7.55779 -1.02887 0.090052 -0.620789
245 1 5.46472 4.19116 3.43 -0.201391 0.955718 0.362033
246 1 1.48983 8.88867 0.0092573 1.72568 -0.1225 -0.0878614
247 1 4.37431 3.89593 3.21307 2.21801 -0.837108 1.15081
248 1 4.37897 8.9225 5.07714 -0.389158 -0.681288 0.547572
249 1 2.13637 5.592 5.90415 0.688923 -0.379944 0.114953
250 1 4.47715 5.3114 4.55747 0.0685542 0.536836 0.2865
251 1 6.59134 1.67245 7.29031 0.288635 -0.460041 -0.153009
252 1 1.58813 2.67605 3.90254 -1.95239 -0.304069 0.622829
253 1 8.1841 3.78536 3.70975 -0.168863 -1.09272 0.18866
254 1 3.48568 1.6398 1.45182 0.140946 -0.997789 0.160184
255 1 6.97892 1.66554 0.940075 0.28402 0.425258 0.533104
256 1 1.19961 2.87071 0.257362 -0.715111 1.34932 0.426781
257 1 5.18733 0.833076 1.10714 0.405954 -1.08338 0.225451
258 1 2.3956 8.35489 2.05824 -0.567553 -0.0397686 0.106005
259 1 4.04972 5.95236 7.83452 0.438576 -1.50045 0.629674
260 1 2.55907 2.96059 0.0754714 -0.986512 -0.929732 -0.705009
261 1 7.81231 5.4667 8.84153 -0.256494 -0.371295 -0.187638
262 1 4.53015 1.21845 9.03784 -1.02236 -1.84438 -0.433347
263 1 6.01846 4.52089 4.53273 -0.27296 -0.0216833 0.56551
264 1 7.12508 5.98657 7.10791 -0.847217 0.481604 -0.563956
265 1 5.0282 4.47911 4.30233 0.793882 1.43302 -0.280367
266 1 6.0492 6.62775 4.57381 0.061034 0.925716 0.794634
267 1 6.33639 3.64676 2.24331 0.0337446 -1.31511 -0.145791
268 1 4.84202 8.1732 6.2682 -0.989768 -0.183043 -0.72072
269 1 3.8123 4.23307 0.324702 -0.0600813 0.352586 -0.245509
270 1 8.00361 0.0812399 2.1752 0.383261 -0.552781 -0.675708
271 1 6.75307 7.23178 2.02418 0.0646021 -0.570662 0.242888
272 1 8.58206 0.759304 3.40303 -0.0676621 0.15359 0.643986
273 1 7.74551 2.20621 2.54682 0.490294 -0.433712 -0.0365761
274 1 5.51486 6.52396 6.97633 -0.993371 -0.239457 -0.845884
275 1 4.42422 6.06744 2.59479 -0.0862437 -0.773884 1.40514
276 1 8.13642 6.76039 3.60965 -0.152802 0.0439022 0.72748
277 1 4.30367 8.52749 4.0223 -0.845705 -0.155026 -0.187834
278 1 1.56645 4.68736 5.81989 -0.161519 -1.02661 1.32761
279 1 0.884594 7.56743 2.67333 -0.812752 0.193221 0.0294433
280 1 3.17968 2.40842 2.1764 -1.0705 0.525539 -0.450336
281 1 6.29434 7.63592 3.63803 0.141881 -0.553802 -0.199685
282 1 9.30351 8.17174 2.40621 -1.38445 0.702404 -0.117099
283 1 0.213895 8.14661 3.39516 -1.51096 0.116102 0.586783
284 1 6.65133 6.6257 5.41734 0.317546 0.0737748 -1.07075
285 1 7.12794 8.32103 4.24695 -0.170102 0.243405 0.582559
286 1 2.93055 0.257015 7.67523 0.340704 -1.38467 0.990598
287 1 3.19279 0.890756 6.87388 -0.424025 -0.170785 -0.327081
288 1 3.3026 7.82487 7.5981 0.651332 0.80312 0.951513
289 1 6.24942 2.29074 3.89986 -0.610897 1.09086 1.21946
290 1 3.0682 6.39136 7.66738 0.293404 0.62438 0.864492
291 1 4.98584 4.14181 9.29035 0.819975 0.355869 0.256829
292 1 0.612857 8.31947 6.11242 0.708353 0.0709561 0.344136
293 1 0.945307 2.14814 3.32682 1.89172 -0.612421 -0.562685
294 1 0.136804 5.94305 7.56306 -1.19851 0.187246 0.173818
295 1 7.64889 5.06605 7.10545 -0.287004 -0.0348941 0.465142
296 1 7.76511 7.39966 1.79018 0.737465 0.0811533 0.915737
297 1 5.83979 3.51115 4.12489 -0.155481 -0.661083 -1.38505
298 1 3.87288 6.43267 5.89399 0.0261939 0.279043 -0.882063
299 1 6.48289 6.5895 3.66569 -0.0424912 0.468855 -0.852992
300 1 0.564674 3.71245 2.0453 1.04266 -0.187039 0.55299
301 1 3.07138 0.794437 5.26317 -0.649635 -0.754438 -0.519704
302 1 7.56414 0.463608 6.19134 0.483629 -0.112996 0.301959
303 1 1.55001 9.21796 1.93807 0.554169 -1.88049 -0.344925
304 1 8.48337 3.92832 4.76162 -1.39656 -0.286319 -0.419957
305 1 2.52628 9.26574 1.16993 -0.238832 1.65049 0.480598
306 1 6.01738 9.27744 2.79566 -0.330651 0.194417 1.05903
307 1 6.65955 9.1567 1.15247 -0.578017 0.0481838 -0.148919
308 1 0.983928 0.749102 7.19763 0.0815216 -0.362084 0.5789
309 1 8.78448 6.95422 7.96696 -0.895689 0.815093 0.647144
310 1 5.70495 5.41796 6.99608 0.439476 0.0937043 -0.690074
311 1 8.2179 7.37511 9.28793 0.374267 0.526475 -1.35299
312 1 4.10515 6.1308 1.5663 -0.89693 1.98216 0.583268
313 1 7.34969 0.75348 1.22153 -0.483501 0.936758 -0.963299
314 1 7.65218 4.97061 3.65789 0.433666 -0.265751 1.17279
315 1 4.24869 5.48584 5.60458 -0.335392 -0.371367 0.238769
316 1 0.687939 3.62111 5.01166 -1.07953 1.45725 -0.190684
317 1 9.10258 1.7 8.42484 -0.945696 -0.632098 -0.170881
318 1 0.47303 6.07146 6.53106 0.514076 -0.31028 -0.229587
319 1 1.53342 9.27869 7.40905 -0.662859 0.726754 -1.51579
320 1 5.29195 5.77829 5.24511 -0.289926 -0.794468 -0.26353
321 1 0.197934 2.46217 1.68258 -0.791067 1.29736 0.337843
322 1 0.835225 7.08423 3.65577 -0.461988 0.675537 0.231254
323 1 3.6245 5.36346 2.90432 0.477466 -0.368258 0.738698
324 1 1.80186 4.60162 7.40388 -0.921962 -0.516644 0.382155
325 1 5.51343 5.14827 1.12234 0.653308 -2.55815 -1.49138
326 1 5.53485 2.01592 4.69116 0.359454 0.0323188 -0.0560368
327 1 5.58001 9.18044 7.95311 -0.634895 -0.338895 0.258405
328 1 6.51772 5.742 1.0763 -0.0242489 0.0698061 -1.05124
329 1 9.16731 8.99123 8.66969 -0.218505 -0.0402747 0.894571
330 1 4.05638 6.06595 8.99328 -1.13548 -0.522143 0.682903
331 1 3.51908 2.55063 4.30025 0.202641 -0.228934 -0.301085
332 1 3.44135 1.53351 2.90095 0.797263 -0.125484 0.0263427
333 1 9.29373 4.70036 2.39956 0.988334 0.238475 0.112616
334 1 0.55398 7.05545 6.95909 -0.699688 -1.49086 -0.0480144
335 1 9.00134 1.46779 1.70817 0.128934 -0.771834 -0.506297
336 1 8.69564 7.34971 5.25826 0.202423 0.378572 0.637714
337 1 7.35858 4.18511 7.76045 -0.43827 -0.0228057 -1.29856
338 1 1.47706 2.5621 6.41926 -1.14055 -0.119859 0.352873
339 1 2.43546 3.10461 6.12694 0.096434 1.04873 0.26655
340 1 3.44086 0.424153 2.71102 0.57223 0.492777 -0.357286
341 1 7.30311 2.43343 7.39971 0.344916 1.399 0.168558
342 1 8.38211 5.23094 0.388401 -0.171329 1.41841 0.242222
343 1 4.45867 5.87986 3.56985 0.345203 0.491125 -0.225899
344 1 1.11454 1.84958 5.87272 -0.255931 0.366362 0.327485
345 1 6.90556 4.73753 8.61484 0.298281 -0.50382 0.124036
346 1 7.38287 7.93148 2.52686 -0.126417 -1.00238 0.299616
347 1 5.68743 3.44908 7.39159 -0.437456 -0.0365883 -1.11214
348 1 7.11031 2.12036 6.35888 1.12129 0.962036 0.343999
349 1 1.44306 5.13472 8.27178 -1.16647 -1.19155 0.410382
350 1 3.67694 3.92069 7.65986 -0.75097 0.110038 0.061881
351 1 7.34507 7.409 3.60907 -0.242112 0.830599 0.763607
352 1 4.26301 7.93446 8.09249 0.366951 0.888627 -0.48559
353 1 8.51682 2.3711 4.28782 -0.0755041 -0.284994 -0.744843
354 1 9.02622 6.59692 6.90605 -0.282018 1.15259 -1.54099
355 1 8.99639 9.33774 1.94377 1.42424 -0.444095 0.999616
356 1 5.54757 1.57388 9.08791 -0.828904 -1.41092 0.578174
357 1 0.419184 2.30405 8.8435 0.324598 -0.374732 1.13567
358 1 4.50099 6.40589 5.13426 0.160162 -1.78201 0.447886
359 1 4.1624 6.96511 7.67085 0.479966 -0.780092 0.816018
360 1 3.27916 0.502561 1.72479 0.647304 -0.214188 1.03933
361 1 6.55826 1.82805 4.77702 0.0804695 -0.114154 -0.87826
362 1 0.899881 8.61541 2.61729 0.598304 -0.291964 -1.31576
363 1 7.67111 3.08454 1.2372 0.407009 -0.256714 0.231154
364 1 0.837848 1.69158 7.87871 0.916277 1.7216 0.294797
365 1 1.96233 3.58233 0.680119 -0.562485 -0.158589 1.2977
366 1 4.72277 9.31941 0.544597 0.0031226 0.578121 0.00507754
367 1 3.91849 4.33879 1.45633 -0.309437 0.759891 -0.64073
368 1 2.12795 3.36258 4.43766 1.481 0.0550704 -0.106404
369 1 0.177662 7.39992 1.20171 -1.01249 0.781845 -0.422376
370 1 1.50708 7.57231 8.11406 1.63704 -0.755061 -0.331201
371 1 2.98744 3.96427 4.49029 -0.291545 -0.512367 -1.34342
372 1 5.92816 0.692424 7.39842 0.206911 -1.05598 0.272046
373 1 7.69414 5.85971 2.3008 -0.51276 -0.075112 0.0448801
374 1 9.28971 8.15545 5.29606 -1.11882 1.77872 -0.250469
375 1 5.13389 6.76662 2.3272 0.427707 -0.497318 -0.842995
376 1 5.9047 1.54017 8.1176 -0.283092 0.119877 -0.614648
377 1 2.30746 7.15153 6.36174 -0.564729 0.37038 0.467794
378 1 4.51571 8.62335 1.57853 0.472033 -0.148219 0.750152
379 1 6.2001 3.44071 5.71155 0.614267 -1.34776 1.01798
380 1 8.45101 4.69611 6.43971 -0.607046 -0.0948637 -0.10568
381 1 3.54696 2.55042 3.1785 0.981693 -0.295781 0.0483764
382 1 4.83051 7.33096 5.62001 -0.663406 -0.556633 0.0784507
383 1 9.28127 8.47044 7.47545 0.369893 -0.881819 0.986248
384 1 2.45879 0.104604 2.3546 -0.768781 -0.311933 0.875622
385 1 5.31591 7.30186 8.99214 0.585862 -0.0315926 2.16258
386 1 9.23255 3.9205 3.74388 -0.690909 -1.83442 -0.992761
387 1 8.26638 1.2481 2.42761 1.26405 0.541206 0.285939
388 1 6.4306 6.03246 9.27446 -0.956008 -0.423528 0.237749
389 1 5.42243 3.68949 5.12011 -1.05787 0.366843 0.188647
390 1 1.60033 6.23184 3.98626 0.901601 -0.646008 0.26755
391 1 7.34985 0.716618 8.85863 0.348779 1.14676 0.457038
392 1 4.36715 3.62067 2.13703 0.888775 0.928529 0.527391
393 1 8.63302 6.94221 0.941774 -0.377864 0.174269 -0.470399
394 1 8.56663 4.84577 4.04066 -1.0877 -0.875996 1.1986
395 1 9.18331 0.6088 8.95382 0.418123 0.453283 0.353556
396 1 1.98835 4.28129 1.43626 -0.63993 -0.646191 0.291872
397 1 5.89706 3.40118 9.04359 -0.192769 0.211051 0.79505
398 1 8.53214 3.0828 0.482799 -1.74091 -0.132321 0.50129
399 1 8.04329 1.4103 0.632529 -2.14502 0.615471 1.55062
400 1 1.69045 5.75063 2.92494 0.902574 0.475643 1.06465
401 1 4.40767 2.95681 8.31026 0.990952 -0.0594587 -0.178981
402 1 1.4125 3.08812 1.84643 -1.31511 -0.953009 0.838882
403 1 2.93099 4.2029 1.99132 0.54915 0.18544 -0.167137
404 1 4.63341 6.7242 0.274221 -0.0539923 0.391171 -1.58119
405 1 2.87088 4.92665 7.70589 0.233165 -1.35447 0.239622
406 1 5.71908 9.34629 1.66568 0.221887 0.465878 0.100302
407 1 7.11509 0.675209 7.30689 0.350247 -1.65191 0.434706
408 1 2.33853 1.24641 0.102609 -0.592156 0.0624316 -1.28544
409 1 2.99491 2.99055 5.18948 0.0137251 0.434488 0.780294
410 1 8.93121 0.081286 7.83975 -0.585583 0.225085 0.687047
411 1 5.1903 7.68876 2.89678 0.501154 0.608498 -1.30073
412 1 0.672435 9.15604 3.54692 0.367508 0.434098 -1.01693
413 1 2.94874 8.31776 1.17063 -0.712454 -0.3098 1.05882
414 1 6.57817 0.649796 8.14478 0.993761 0.794036 -0.973894
415 1 8.24014 0.0425346 8.90121 0.912527 -0.353909 -0.320827
416 1 0.20755 0.843914 7.98035 -0.925152 -0.989165 -0.82932
417 1 4.6449 1.30964 2.96436 0.725496 0.564643 0.606921
418 1 2.48316 2.30549 4.17435 0.560859 -0.283995 0.509497
419 1 5.57034 1.67765 1.65589 -0.514888 -0.225444 -0.159971
420 1 2.33136 4.81263 4.99193 -0.866932 0.974184 -0.205669
421 1 5.85623 5.93768 6.11892 -0.0493066 0.313908 -0.556118
422 1 7.55626 4.1541 6.40616 -0.317357 1.96452 0.324463
423 1 7.98399 2.7372 3.41633 0.155686 -0.442333 -0.569942
424 1 2.51581 6.20091 3.40364 0.165674 0.23364 1.02962
425 1 1.87847 1.60622 6.56067 1.07132 -0.525667 -0.0971656
426 1 2.49209 2.27419 8.73165 0.74068 0.0500731 -0.68545
427 1 6.59895 4.40499 6.07591 -0.306312 0.0319368 -0.29957
428 1 4.12558 7.91948 6.9818 0.649454 -0.766197 -1.02659
429 1 6.82356 9.27606 4.4062 -0.350915 0.112642 0.042616
430 1 7.67639 5.09412 6.0032 -0.5725 -1.54142 1.00113
431 1 7.64581 2.15367 4.884 -0.30521 -0.15974 0.123563
432 1 2.88947 8.14438 3.01636 0.624578 1.10729 0.715561
433 1 1.35484 8.49437 4.59816 -0.182672 -1.20348 -0.0717383
434 1 7.34585 5.94582 0.428846 -0.13751 0.540396 0.0971191
435 1 7.79297 5.53037 1.30026 -0.344246 0.808612 -0.386587
436 1 9.09543 6.51732 5.89455 0.120753 0.399987 0.211264
437 1 6.22019 5.60174 3.16333 -0.162965 0.813975 0.553738
438 1 2.62105 7.01285 2.50831 0.927299 0.233893 1.18562
439 1 3.56763 7.52419 3.75683 0.50418 -1.47673 0.706934
440 1 7.03962 4.84515 1.57359 -0.476468 0.229379 -0.20068
441 1 6.0953 2.5469 1.99628 -0.698442 -0.225096 0.184912
442 1 6.60202 3.72098 4.81619 -0.200383 1.03027 0.155841
443 1 2.16451 5.02769 2.22999 -0.0269761 0.519153 -0.0854402
444 1 8.43491 5.68278 3.3633 0.263366 0.760142 0.24404
445 1 6.49846 3.00633 7.87213 0.281521 0.459293 -0.644422
446 1 8.60824 1.78533 6.61946 -0.0145672 -1.11607 -1.19519
447 1 0.42484 6.34761 1.0873 -1.4232 -0.624921 0.873302
448 1 2.59313 7.53331 9.17694 0.417623 -0.0108376 -0.0545795
449 1 4.94526 6.30488 6.10931 -1.0393 -0.0585212 0.194715
450 1 3.01603 7.90254 6.64607 0.470424 0.470604 0.646038
451 1 5.25376 3.82169 8.26194 0.954524 0.300132 -0.801944
452 1 5.22475 6.21865 8.89707 0.920213 0.44765 -0.230504
453 1 1.49105 3.5976 6.02591 -0.207815 -1.65662 -0.159231
454 1 1.42558 7.87695 9.32277 0.0631486 0.106637 -0.0129622
455 1 9.34448 5.55152 5.31665 -1.77176 -0.697286 0.0011897
456 1 1.60882 4.03712 2.37001 0.0311201 -1.4395 -0.283144
457 1 7.80988 7.44708 8.33134 -0.831394 -0.318669 1.02866
458 1 2.49583 5.64559 4.31104 0.463345 0.170554 0.0873121
459 1 8.85953 3.54977 8.16619 0.760941 0.0235784 -0.774648
460 1 6.14462 2.25006 5.69044 0.789024 -0.628511 -1.3082
461 1 8.63436 4.12645 8.91922 -1.16831 0.0729463 2.44066
462 1 4.16975 8.92253 9.09459 -0.661347 -0.256778 -0.827093
463 1 3.16765 1.48874 8.88191 1.26533 -0.645614 -0.161312
464 1 7.34126 3.0671 6.36817 -0.24564 -1.10975 -0.548696
465 1 0.960979 6.66558 7.94759 -0.737149 -0.00895039 -0.0857567
466 1 5.00198 1.95692 8.28053 -0.0941824 -1.3127 -0.507167
467 1 4.50748 1.71592 1.43089 0.262493 0.274023 0.0307387
468 1 8.01585 7.78364 4.4896 0.688831 0.313583 -0.461942
469 1 5.546 1.36828 5.61957 -1.43365 0.794825 1.0065
470 1 8.26554 2.71719 7.00398 -0.342042 0.0635132 1.44379
471 1 3.23076 2.41062 6.25434 -0.503042 -1.10433 -0.5815
472 1 8.78664 2.6801 2.73995 0.433631 1.15232 0.307221
473 1 3.88468 2.01657 8.40526 -0.91946 0.216595 -1.34373
474 1 7.78798 0.382166 0.414079 -0.675309 0.19418 -0.939834
475 1 1.60226 1.64522 8.81253 -0.360268 -0.0382966 1.37647
476 1 0.820055 0.0636706 8.85386 -0.0834204 -0.128375 -0.942047
477 1 1.48731 0.16583 0.857224 -0.905572 -1.23372 -0.882645
478 1 5.2639 8.34583 8.39615 1.15967 -0.113857 0.413117
479 1 0.988442 4.66164 1.6894 1.10571 -0.386174 1.29397
480 1 5.35862 0.663846 0.105605 0.167214 -0.611164 0.223682
481 1 3.38846 3.61453 2.7238 1.32405 -0.909218 -1.14533
482 1 9.11288 3.341 7.23804 -0.0836096 0.0347343 -1.09505
483 1 2.60264 7.25147 3.516 -0.516608 -0.299404 -0.394301
484 1 4.71572 0.146537 4.39533 -0.0549086 0.292902 -0.796638
485 1 5.89005 5.45957 8.53835 -0.154769 0.703435 0.214903
486 1 6.71759 0.282317 3.33821 1.13799 -0.816703 0.325126
487 1 7.39161 4.25656 3.00403 -0.28289 -0.467819 0.472472
488 1 7.0923 6.69942 7.9134 -1.08449 1.05213 0.466998
489 1 0.655849 1.23614 8.88314 -1.16455 -0.0048589 -0.153071
490 1 2.79615 7.66826 4.54013 0.810287 -0.163405 0.22536
491 1 7.88518 8.26655 3.50157 -0.281909 0.623101 1.26363
492 1 8.44417 9.41489 5.75527 -0.876335 0.862817 -0.639104
493 1 6.92175 1.62364 8.23504 -1.51037 0.202335 -0.049472
494 1 4.66404 1.85255 5.4481 0.116673 -0.771928 -0.624423
495 1 6.05915 2.78683 3.0241 -0.26568 0.175243 -0.526662
496 1 3.29673 2.81434 8.11933 0.510867 0.666211 -0.200131
497 1 3.2402 9.14157 0.319207 0.121921 -1.44665 -0.152991
498 1 7.70973 0.103806 7.98039 -0.614098 -0.45523 0.380157
499 1 4.28306 0.0442946 2.2924 0.206493 0.378068 0.748306
500 1 5.24834 5.95802 1.67561 -0.10604 -1.60146 -0.454396
501 1 4.71838 7.87446 4.73748 -0.739541 -0.450513 1.29341
502 1 0.744999 4.19335 2.95402 -0.0710053 1.1743 0.125771
503 1 5.4519 6.27486 3.25079 0.264434 0.197266 1.24384
504 1 5.94137 1.43578 0.699686 -0.357326 0.734118 0.206966
505 1 8.78507 7.33608 1.87728 -0.767312 0.558149 -0.258119
506 1 1.18799 9.2123 5.65489 0.235992 -1.35374 0.160666
507 1 8.28724 8.75715 7.28391 0.259234 -0.694144 0.203181
508 1 6.34409 8.67115 3.60658 0.0622659 -0.513656 0.587159
509 1 0.247335 7.60963 7.80755 -0.736191 0.138701 0.356185
510 1 8.49527 0.625993 4.68916 1.02656 0.963534 0.999446
511 1 7.30278 5.7423 5.08353 0.705741 0.995002 0.876153
512 1 9.30237 5.60154 4.22338 -0.393606 -0.62937 0.81604
513 1 0.877741 7.74056 5.15244 0.693759 -1.03448 0.553576
514 1 8.3299 7.01324 6.26413 -0.491454 0.984179 0.699196
515 1 8.15697 6.04594 5.57906 -0.216195 -0.695543 0.0298557