ITEM: TIMESTEP
81930000
ITEM: NUMBER OF ATOMS
1000
ITEM: BOX BOUNDS pp pp pp
0.0000000000000000e+00 9.4000000000000004e+00
0.0000000000000000e+00 9.4000000000000004e+00
0.0000000000000000e+00 9.4000000000000004e+00
ITEM: ATOMS id type x y z vx vy vz
1 1 4.41236 7.1539 3.33451 0.209906 1.56176 0.103125
2 1 2.48666 5.06208 0.837477 -0.412431 1.13862 -0.127245
3 1 2.37858 3.20992 6.4298 -0.89015 0.0848752 1.08898
4 1 1.87219 6.87729 1.03006 -0.799745 -0.389286 0.284954
5 1 1.12007 0.854895 4.54681 -0.944121 0.259564 -0.798358
6 1 4.81924 6.093 4.44559 0.733391 -0.380903 -0.103747
7 1 6.10416 4.95434 6.04536 0.120834 -0.560493 0.37588
8 1 8.93755 2.73881 6.91226 1.4259 -0.166055 0.133024
9 1 0.0181664 7.22695 6.3715 0.695813 0.908284 -0.740737
10 1 0.0517233 5.4186 9.10427 -0.137138 0.270678 0.535568
11 1 4.12326 0.473857 5.22656 -0.297513 0.270187 0.227112
12 1 6.86742 2.55778 8.37331 -0.496712 0.155637 0.751505
13 1 8.59909 8.84931 6.96232 -0.80986 0.194607 -0.531422
14 1 2.76284 3.39694 8.80901 1.05684 0.242199 -0.309049
15 1 0.771474 8.82107 8.05334 0.301236 0.712691 -0.465677
16 1 8.23839 8.62658 0.0363936 0.450939 -0.463049 1.04687
17 1 6.30863 1.18647 2.36535 -0.33385 0.224375 -0.862178
18 1 5.97667 6.72279 5.81247 -1.74866 0.661305 -0.369963
19 1 8.64246 7.0592 1.28759 0.550996 1.08955 -0.123794
20 1 7.54388 2.50026 1.10454 0.685944 -0.166321 0.282967
21 1 8.14996 3.65228 8.24957 -0.116737 -0.345171 -0.148123
22 1 7.87726 0.859955 0.0970187 0.69109 -0.284389 0.320094
23 1 7.33944 1.78539 7.7609 0.116069 -0.600815 -0.872176
24 1 0.813393 5.04688 8.43958 -0.1181 -0.394077 -0.717938
25 1 5.81582 8.92224 3.34588 0.105192 -0.905797 0.0385317
26 1 4.88637 2.01797 4.56011 0.89673 0.277776 -0.462005
27 1 4.64248 1.59619 7.93836 -0.394788 -0.14262 -1.33907
28 1 5.29225 1.17154 2.17079 0.736999 -0.052583 -0.571388
29 1 0.673232 4.59476 9.31669 0.797271 -0.85301 0.540942
30 1 0.159577 2.89927 2.71556 1.41452 -0.521286 0.424869
31 1 0.490144 0.914198 1.24176 0.102619 -0.714577 0.885555
32 1 5.61026 5.81345 5.39028 0.276548 -0.825435 -0.421356
33 1 6.81966 8.51908 0.415842 -0.733175 -0.485357 -0.331536
34 1 4.51118 7.23051 0.76929 -1.55002 1.72895 0.823875
35 1 4.04249 6.38385 5.06531 0.366795 -0.72842 0.235574
36 1 2.2407 9.02178 2.73734 0.885629 0.852278 0.285079
37 1 6.91527 4.23427 9.37405 0.0412019 0.108173 0.164959
38 1 8.35464 0.771795 2.67231 0.504804 -0.555492 -0.432254
39 1 6.48841 7.43419 2.25821 0.136724 -0.297833 0.938428
40 1 4.09172 0.132948 9.09254 0.157826 0.64709 -0.463565
41 1 5.13579 0.496765 6.47485 -0.606877 0.0287559 0.751484
42 1 1.27771 8.91002 3.19723 -0.461671 0.132943 -0.0868569
43 1 4.82145 0.527492 8.43908 -0.393386 -0.181582 -0.208036
44 1 2.29667 0.378136 6.0078 -0.158696 -1.58994 -0.191924
45 1 1.03024 8.53087 6.99939 0.613446 -0.385576 0.427791
46 1 0.918608 5.11447 2.58449 -0.253212 -0.901267 -0.594677
47 1 7.83079 9.28294 0.87912 -0.14677 0.667917 1.09182
48 1 3.49442 9.02446 4.70423 0.302732 -1.1204 -0.10183
49 1 0.644112 3.08296 6.65459 -0.193246 0.00304518 -0.684446
50 1 8.64019 2.6439 4.39212 -1.21311 0.0815418 1.06218
51 1 6.46459 6.58526 2.95156 -0.0047675 0.943854 -0.331347
52 1 5.5948 7.16485 1.09516 -0.834021 -0.638738 0.486376
53 1 2.01069 8.27033 6.82132 0.445821 0.339533 -0.142199
54 1 6.7546 9.18321 6.00453 -0.332514 0.255154 0.182975
55 1 1.63378 5.06064 3.49088 0.512077 -0.792821 0.433664
56 1 1.41487 7.38712 5.21011 -0.018249 -0.0926432 0.752624
57 1 3.14548 5.40054 5.67317 1.86993 -0.0488861 -0.829391
58 1 4.80044 5.1365 1.70352 -0.271664 -0.575774 0.881038
59 1 7.094 7.263 7.37937 -0.738165 0.232096 -0.635464
60 1 2.91664 0.52797 4.93602 0.61207 1.12035 -0.872938
61 1 3.53096 7.55987 2.72752 -1.02437 -0.0997705 0.104162
62 1 6.77831 0.715991 1.56315 0.487125 -0.394115 -0.188487
63 1 0.298528 3.89976 4.25851 0.0704267 -1.22884 -0.460235
64 1 0.471666 8.74442 0.885754 -0.187096 0.0543933 -0.508993
65 1 7.88085 0.669374 4.36832 -0.158002 -0.402802 0.858737
66 1 1.41535 1.92374 9.28398 -0.104569 0.298847 -1.58826
67 1 8.76669 7.68482 7.21282 0.449819 -0.0367453 0.978772
68 1 4.18631 6.76975 7.61081 0.139409 0.780603 -0.977222
69 1 8.15485 6.97634 2.91303 0.894278 1.20841 0.764323
70 1 7.88448 5.48018 3.38936 -0.851883 -0.324211 0.804773
71 1 7.00115 9.29716 7.16126 0.514343 -0.281326 0.108556
72 1 2.52801 2.23156 0.948868 0.752381 0.530738 -1.11992
73 1 3.3589 5.53669 3.10985 0.217804 -0.364306 -0.283621
74 1 3.43045 0.95287 2.2817 1.34389 -0.440623 -0.172874
75 1 5.46428 2.52241 0.772447 0.0880799 1.27563 -0.0957783
76 1 7.59351 6.22722 9.02285 0.536551 -0.429753 -0.456649
77 1 0.902797 3.76759 5.08279 -0.680744 0.775015 -0.301242
78 1 3.80163 7.15879 1.65147 0.11048 -0.350582 0.35348
79 1 6.66971 0.701215 7.6835 0.836291 0.805982 -0.512285
80 1 0.530539 1.37645 9.03749 -0.18323 -1.37172 -0.128709
81 1 2.67572 4.20527 6.71153 0.691987 -0.0388236 -0.483841
82 1 4.16886 8.95457 2.66176 -0.0975155 0.467392 -0.421691
83 1 5.62267 7.95439 5.83232 0.488011 -0.551054 -0.783567
84 1 0.624263 3.9495 6.07064 0.321289 0.137999 0.92223
85 1 5.78847 3.06834 8.23398 -0.14453 -0.546567 0.422311
86 1 3.36394 4.33893 7.56026 -0.776558 0.754952 0.127231
87 1 2.05268 2.80207 3.68613 -0.374979 -0.7773 0.131585
88 1 8.4349 1.93257 2.01573 0.239598 0.000718886 -0.663428
89 1 6.37769 3.89127 1.64861 -0.0214365 -1.06299 0.702421
90 1 5.43917 6.64034 2.75375 -0.44377 1.75484 -0.207635
91 1 0.859782 7.00093 3.04247 -0.44409 0.539438 1.03982
92 1 7.82836 1.22264 8.49475 -0.246221 -1.26886 -0.834902
93 1 4.14845 0.841415 6.25995 -0.818243 -0.71875 -1.04856
94 1 1.31236 4.74602 5.3833 -1.34572 -0.401601 0.681145
95 1 7.6059 7.89701 5.79839 0.888272 0.431361 -0.359154
96 1 5.56974 7.54397 7.40156 -1.28119 1.50068 -0.613678
97 1 0.738653 5.02798 0.855405 0.777204 -1.73035 -0.337572
98 1 5.86453 8.14057 1.33729 -0.475837 -0.340163 -0.66191
99 1 6.92315 8.27957 6.59572 -0.866141 0.906794 0.270462
100 1 6.34549 7.62031 0.513948 -0.700985 0.486361 0.591537
101 1 7.05572 4.56886 8.38889 0.0108117 -0.278598 0.346048
102 1 2.77055 3.87933 2.32034 0.0451745 -0.591983 -0.0167933
103 1 5.58075 8.90961 6.06829 -0.365089 -0.841344 0.436681
104 1 5.8533 5.75159 4.42196 1.28568 0.834593 -0.77265
105 1 2.39343 7.41785 3.93903 -0.345609 0.310446 -0.00104667
106 1 8.92797 1.47025 5.74963 -0.942693 -0.549837 -0.310607
107 1 4.54861 5.15671 2.82574 -1.06703 1.70284 -0.601923
108 1 8.85872 8.8011 3.5097 -0.00918842 0.637792 1.45077
109 1 6.01843 2.25767 8.96936 0.392719 -0.15233 -0.301876
110 1 7.38217 5.17403 9.17712 0.604038 -1.1256 0.794173
111 1 6.95044 9.13089 8.20428 -0.335327 -0.116482 -1.02078
112 1 7.2 3.30939 0.538242 -0.962362 0.815461 -0.0726947
113 1 2.76965 3.1074 0.346976 1.27442 0.348511 -0.750553
114 1 4.6343 3.80664 2.88622 0.485435 -0.910379 0.0687986
115 1 5.4489 1.18072 4.91065 -0.686826 0.0151482 0.626913
116 1 6.45841 2.06492 0.590666 0.247626 0.230167 -0.338947
117 1 7.91246 9.21956 7.78127 0.727534 -1.24957 0.391504
118 1 8.36228 2.6871 0.485924 0.341346 -2.63929 1.33168
119 1 4.27971 2.70602 5.62877 -0.307118 0.366086 0.219485
120 1 2.27716 7.80983 5.89563 -0.929441 -0.922604 -0.929579
121 1 3.42548 0.0136804 5.94031 -0.102435 -1.10352 -0.736186
122 1 3.22655 7.5949 5.48963 0.840651 -0.437486 0.785914
123 1 3.52275 5.66722 0.128509 0.277756 0.395525 0.708087
124 1 0.625468 8.95826 6.03515 0.301032 -0.398564 -0.666748
125 1 5.0173 5.29771 6.07597 0.88361 1.22142 0.207207
126 1 7.73904 4.3659 2.1504 0.758934 -0.34116 -0.886634
127 1 3.6277 8.44929 5.58764 -0.116739 0.520944 -0.0632702
128 1 8.39281 6.07901 5.744 -1.14579 0.226907 -0.345464
129 1 9.08523 9.20274 9.16065 1.25592 0.430613 0.505793
130 1 1.94246 2.0512 2.88667 0.25568 -0.506479 -0.0538904
131 1 8.35284 2.88279 1.65166 0.601228 0.74844 -0.442286
132 1 9.28937 7.93671 1.33302 -1.17915 1.0059 -0.821167
133 1 6.56111 2.27278 3.92768 0.286677 0.59303 0.885185
134 1 9.06556 6.40316 0.580461 -0.703763 -0.097985 -0.656671
135 1 7.85049 7.42338 3.92249 0.454562 1.56785 -0.544856
136 1 7.46033 0.623732 6.25574 -0.322929 -0.537675 -0.291221
137 1 2.46673 6.50247 7.25124 0.461444 -1.2729 0.901702
138 1 5.14125 7.2631 6.36805 -0.077807 -0.504931 -0.281125
139 1 2.14033 0.747448 7.28881 0.744168 0.616646 -0.0243047
140 1 9.2433 4.35069 1.37822 -0.182544 -0.223722 -0.272347
141 1 1.98423 0.279901 3.5198 -0.438115 -1.32661 1.02357
142 1 5.42705 0.00563145 7.53933 -0.0460346 -0.368435 -1.32462
143 1 4.86824 3.97419 9.40989 1.15522 -0.0323835 1.45175
144 1 1.67329 1.79376 4.43831 -0.394013 -1.08969 0.339329
145 1 7.71477 5.4671 8.21119 -0.24632 -0.345813 0.529185
146 1 4.4734 0.437549 1.87416 0.729777 0.327079 -0.179482
147 1 6.20941 3.57784 7.28902 -0.206063 -1.67324 -1.22436
148 1 2.09108 8.51519 3.60219 0.355025 -1.33056 -0.271636
149 1 3.27646 0.39536 3.91895 -0.386186 0.475338 -0.663214
150 1 1.24455 8.13995 4.13611 0.661986 0.0711735 -0.482071
151 1 7.0085 8.51826 5.18424 0.819255 -0.178574 -0.476325
152 1 6.05993 8.64319 6.90806 -0.944282 -0.055971 0.0010889
153 1 3.76696 6.48033 0.823302 -0.627585 -0.567445 -0.101728
154 1 3.23211 5.6995 1.28047 -1.11679 0.364315 0.841777
155 1 8.70671 8.17375 4.3766 0.920309 0.243163 -1.40587
156 1 7.453 6.73156 5.61486 0.946147 0.093436 -0.426547
157 1 7.15882 3.56241 8.31611 -0.360826 -0.140429 0.765785
158 1 2.81169 7.13224 9.00977 -1.36553 0.835722 0.443077
159 1 1.9947 6.6959 5.86382 1.24571 -0.415307 -0.742625
160 1 8.52793 4.62959 6.93512 0.493012 0.138114 1.5843
161 1 0.943251 2.12381 7.26309 -1.12432 0.944457 -0.437757
162 1 1.00097 4.4235 1.71053 1.12718 -0.578374 0.606067
163 1 8.09888 8.56508 5.1224 -0.387804 -1.44485 -0.806576
164 1 3.23994 0.500203 6.86599 -0.39583 0.117922 0.58136
165 1 2.32092 6.31284 4.14067 0.628063 0.0226026 -0.235221
166 1 6.08425 6.58706 8.66831 0.781811 0.644422 0.0432076
167 1 3.18959 0.192383 2.95114 -0.708694 0.0358063 0.166484
168 1 5.98223 4.55334 0.829366 -0.191548 0.056505 1.25976
169 1 1.01874 5.75301 9.32217 0.175336 0.540248 -0.550799
170 1 0.0949938 3.0275 5.00804 0.550399 0.647955 1.15511
171 1 3.81586 7.34854 9.16032 -0.358723 -0.550084 0.712788
172 1 1.80625 5.12222 8.59612 0.465591 -0.954918 0.445287
173 1 4.41217 4.19158 1.99393 0.194854 -0.675271 0.340483
174 1 3.68364 5.35567 8.46979 0.0347757 1.04484 -0.659977
175 1 7.28572 5.99063 7.44373 0.0856056 -0.230273 0.425591
176 1 3.88521 1.47786 7.2138 0.0053132 -0.840386 -0.672494
177 1 5.16768 6.24392 1.80706 0.00695872 0.627528 0.113022
178 1 6.55796 3.02379 2.21898 -0.0422544 0.499666 -1.01864
179 1 6.02601 3.84669 3.66409 0.362565 0.943139 -0.0145521
180 1 2.37609 7.24101 5.01822 0.585636 -0.0183721 0.0250453
181 1 7.68965 5.65968 0.887513 -0.52866 -0.422592 -0.0685718
182 1 2.2371 1.36584 6.22298 0.0273072 0.205999 -0.270371
183 1 3.32345 4.32343 8.92268 -0.378009 0.204977 1.02626
184 1 5.38736 6.72708 7.92512 0.0936714 -0.644604 0.773571
185 1 0.218381 9.06776 7.1838 -0.141208 -0.174192 1.09843
186 1 0.854951 3.63496 2.29918 0.702171 0.833525 -0.295016
187 1 0.933067 2.41527 5.16649 -1.3912 0.83907 0.198023
188 1 0.876387 6.59967 2.08656 0.3011 0.183699 0.0657828
189 1 3.45332 7.44136 3.7685 -0.413388 0.0501538 -0.348562
190 1 5.46491 5.56441 2.4751 -1.59472 0.237991 -0.777148
191 1 4.49649 2.98153 4.65118 0.723926 0.190011 0.803258
192 1 1.80123 1.60739 0.860209 -1.22654 0.320593 -0.0942791
193 1 4.31203 1.50982 0.948186 0.158337 -1.12797 0.00848909
194 1 1.09732 8.43755 5.1587 0.926551 0.141547 0.343597
195 1 6.65457 9.36637 2.48015 0.58556 -0.133226 -0.598414
196 1 0.0273265 0.0632614 1.44456 -0.518256 0.102621 -1.283
197 1 5.36586 4.15955 1.62827 0.183482 -0.145073 0.171998
198 1 8.39881 1.59319 7.71811 -0.376879 1.00182 0.380248
199 1 7.55681 0.0234822 5.37389 0.477681 -0.715557 1.10026
200 1 3.21956 9.09468 0.347674 0.391404 0.598085 -0.293861
201 1 4.60333 1.52258 5.47408 -1.14207 -0.143417 -0.0862607
202 1 1.87973 6.91455 3.14563 0.783005 0.137785 1.04473
203 1 5.97286 0.384696 5.74526 -0.94411 0.323648 -0.295463
204 1 5.81589 8.82631 0.595644 -0.384488 0.948217 0.405994
205 1 4.78057 1.52128 6.67082 -1.55981 -0.748221 -0.516146
206 1 3.84959 0.176634 7.81572 -0.521229 0.124541 -0.747531
207 1 6.81315 2.38265 2.9247 0.24843 0.510783 0.31675
208 1 9.23584 4.37612 3.44077 -1.24959 -0.475396 0.270482
209 1 6.63927 7.51958 5.6169 1.49378 -0.646961 1.5896
210 1 2.47478 2.67199 7.30118 -0.269201 -1.13294 0.297773
211 1 6.99138 0.295794 0.540785 -0.210471 0.570833 -0.543465
212 1 5.40898 7.53154 4.27637 -0.942506 0.489645 0.632792
213 1 1.34102 7.1785 4.13654 0.787229 -0.320941 -0.535585
214 1 7.7671 2.41701 3.35001 1.44398 -0.801143 1.04117
215 1 4.62386 6.09312 3.26239 0.801158 0.785823 0.759148
216 1 7.17557 4.9191 6.05085 0.655811 0.275267 0.837943
217 1 1.56911 1.36592 7.88673 -0.795929 -0.501468 0.820796
218 1 3.00401 2.18036 3.43522 0.838607 0.29589 0.513105
219 1 7.26587 4.22008 1.04698 0.492174 0.198774 -0.556098
220 1 0.706769 1.88301 0.716255 0.0553553 -0.41918 1.03297
221 1 6.1669 8.51872 7.9849 0.717756 -0.177032 0.138043
222 1 4.31404 5.49604 0.821125 -0.414489 0.84677 0.13658
223 1 3.22305 0.930715 7.77618 -0.4488 -0.0291132 1.26505
224 1 6.83676 5.98535 4.63066 0.356301 -0.701108 -0.546604
225 1 1.6368 3.56072 8.29671 0.03664 0.585781 0.0325163
226 1 2.82792 1.7498 5.30026 -0.350563 -0.0668098 -0.277088
227 1 7.62347 5.57237 5.25493 0.586073 -1.64345 -0.13429
228 1 0.0365004 0.546912 5.72924 0.108734 -0.303276 0.982082
229 1 9.18774 0.898861 8.20685 -0.00342705 0.208091 -0.561923
230 1 6.51743 1.48598 8.27985 0.252967 0.110506 0.851611
231 1 5.58603 4.34077 6.84109 0.433472 1.21863 0.460086
232 1 3.56303 4.78236 1.07425 0.522921 0.19712 0.283168
233 1 9.07119 8.57978 2.11153 -0.348284 1.40829 -0.403661
234 1 7.55644 7.38186 2.17392 0.879021 0.0636379 0.555475
235 1 6.93466 6.97525 9.2345 0.480159 0.226867 -0.621972
236 1 8.12346 4.5839 4.87217 -0.0509666 -0.0532308 0.0664195
237 1 7.47188 2.62116 4.37186 -0.490295 0.455192 0.475184
238 1 7.69832 2.83443 7.84541 0.369129 -0.0630796 -0.933584
239 1 6.65619 5.89712 5.77105 -0.671402 0.733922 -0.424741
240 1 9.10867 1.81346 8.60506 -0.622234 0.331048 -0.518638
241 1 2.74251 4.75949 2.92233 0.494258 0.065902 -0.107128
242 1 5.18437 4.62936 8.69474 -0.207744 -0.18809 0.389332
243 1 7.14239 7.4225 3.08843 -0.240619 -0.98325 0.0919253
244 1 6.64626 4.24887 4.38503 -0.128396 0.020537 0.745057
245 1 5.99165 2.80533 3.19994 -0.165263 -0.0640144 0.00331385
246 1 8.94131 1.66745 4.07435 0.729692 0.106701 -0.00358564
247 1 5.56704 3.07158 1.7037 0.108721 -0.449714 0.138743
248 1 6.16782 7.48656 6.62303 0.682369 0.12975 0.609739
249 1 5.7433 4.81118 4.25517 1.69744 -0.679519 0.175693
250 1 5.01593 3.73888 4.14509 -0.56133 -0.811543 1.64319
251 1 6.48265 3.20531 5.54414 0.880821 -0.385224 -0.491818
252 1 9.00094 5.51323 3.4363 0.55057 -0.321333 -0.59064
253 1 3.1401 8.83591 2.0529 0.687135 0.0836269 -0.225114
254 1 6.4342 2.97478 1.14522 0.164816 -0.357333 -0.621827
255 1 6.03412 4.63441 2.48397 -0.00675046 -0.143487 0.726155
256 1 1.28253 3.79578 9.4021 -0.0935524 0.993043 0.724157
257 1 6.79942 0.385729 4.7041 -0.577954 0.306854 -0.118046
258 1 3.15447 8.55563 3.04472 0.20065 0.640423 0.639388
259 1 4.69481 3.8342 5.39323 -0.120657 -1.53311 -0.172025
260 1 3.73339 4.31385 2.77442 0.754981 -1.09476 -0.050658
261 1 1.05607 6.80478 0.392423 -0.27136 -0.28228 -0.133617
262 1 7.03025 0.665527 8.74556 0.667678 -0.532565 -0.125897
263 1 9.04844 6.19344 4.82181 0.329374 -1.24374 0.140678
264 1 7.53498 4.99759 6.97763 1.2081 0.664629 0.110395
265 1 3.34951 1.98773 1.54995 0.502201 -0.385455 -0.109182
266 1 0.290115 7.39393 9.08675 -0.588034 -0.215535 -0.793268
267 1 5.17548 1.95727 1.55237 0.68854 -0.374812 -1.35847
268 1 6.40444 1.13054 0.0518046 -1.032 0.319324 0.515643
269 1 1.94147 6.35829 1.90548 1.24417 -0.207987 0.72292
270 1 0.276325 0.0718628 3.90301 -0.206014 -0.926063 -1.1689
271 1 2.39277 7.80031 0.901851 -0.624 -1.06049 0.875896
272 1 2.10591 3.94294 0.528632 -1.60091 -1.42159 1.23388
273 1 7.28799 4.9441 2.87472 0.457729 -0.285407 0.511582
274 1 3.631 3.47754 8.15377 -0.0992388 -0.172505 -1.95519
275 1 6.01279 0.463713 0.863183 -0.602491 0.663004 1.73836
276 1 8.13756 8.39012 1.74748 -0.897422 0.459867 -0.227314
277 1 5.72286 1.10499 3.19433 -0.222466 0.525359 0.140012
278 1 2.68454 3.36695 4.46007 -0.131048 -0.721183 0.418994
279 1 0.404331 3.93645 0.667542 0.267021 0.395435 0.926581
280 1 3.90986 1.03526 8.54463 -0.997708 -0.535146 -1.28743
281 1 5.8201 8.82094 2.38191 0.812815 -0.279913 -0.675296
282 1 1.2018 9.19144 4.20334 -0.348664 0.348955 -0.420779
283 1 1.83583 7.18034 6.7795 0.810516 0.898952 0.633396
284 1 7.14557 7.20508 4.70037 -0.359771 -0.571475 -0.0294855
285 1 9.37335 2.31901 6.00102 0.739644 -0.409897 0.699769
286 1 2.82224 1.50073 6.99827 0.568236 0.517255 -0.604473
287 1 4.86457 7.89176 5.03134 -0.0975579 -1.009 -0.0608316
288 1 1.00665 7.43907 1.35739 0.344497 -1.18598 0.19464
289 1 7.18186 1.83134 9.12705 0.801446 -0.923679 0.0991896
290 1 4.4614 3.86466 7.38517 -0.556437 -0.59802 1.13635
291 1 6.97235 4.27549 7.33362 0.252461 -1.25316 0.374886
292 1 5.24934 3.29918 6.85515 -2.35145 -0.0773676 -0.921336
293 1 8.15778 3.27714 3.77596 0.567139 0.926496 0.981941
294 1 9.05173 3.29317 7.84251 -0.452802 -0.550358 0.397688
295 1 6.55265 3.93534 6.38223 -1.61016 0.837245 -0.551541
296 1 6.89209 6.75485 0.972935 -0.306558 -1.47379 -0.215295
297 1 8.90486 7.15125 4.2227 -0.454526 0.71047 -1.51719
298 1 1.62605 3.96071 6.19284 0.636184 0.882791 -0.585847
299 1 3.1371 1.01604 5.89224 0.330233 -0.0872124 -0.40567
300 1 0.0881617 1.87916 2.35274 -0.936325 0.504262 0.307347
301 1 5.50211 9.07515 8.56066 -0.983417 0.281481 1.39255
302 1 8.55878 9.26105 4.40204 -0.0505406 0.253696 0.83858
303 1 4.00042 3.79606 4.47101 0.434448 -0.22048 -0.702954
304 1 1.35674 6.01095 8.44193 1.50244 0.129197 -0.00352256
305 1 4.62552 8.1764 6.00642 0.586053 0.740243 -0.796303
306 1 1.5021 8.34658 0.992977 -0.0992337 -0.00862085 0.204197
307 1 5.1888 0.113343 5.12344 0.0988256 -0.903959 -0.87616
308 1 2.33736 8.30284 8.52356 1.04564 0.263255 -0.797033
309 1 8.74138 6.38251 8.85737 -0.872781 -0.433414 -0.0260476
310 1 8.52328 5.95677 2.59944 -0.41907 0.548392 -0.190246
311 1 0.904519 7.88304 0.385036 -0.448649 0.104812 0.562389
312 1 5.63179 5.88058 9.30808 1.72303 0.345166 0.113464
313 1 5.49318 6.56317 3.79221 -0.728893 -1.70512 0.333972
314 1 7.49491 1.62839 2.62249 0.80561 -0.107538 0.0158977
315 1 3.99617 5.15984 7.42309 0.87359 0.23747 -1.42799
316 1 8.58026 4.96071 8.51792 -0.386487 -0.300203 -0.833395
317 1 7.48045 6.28502 2.89367 0.174813 0.36894 -0.404978
318 1 9.29786 3.10638 3.70731 -0.68258 -0.710044 -0.951027
319 1 2.92218 1.82051 2.45936 -0.232601 -1.04989 -0.222973
320 1 3.22497 6.90493 4.61781 -0.010243 -0.177214 -0.0886869
321 1 0.69694 2.89453 0.44192 -0.199316 0.0765514 0.905868
322 1 3.82659 8.53416 7.36878 1.20676 -0.455506 0.456269
323 1 0.541253 2.81245 1.59657 -0.514625 -0.625176 0.712469
324 1 2.13513 6.69908 8.24852 0.0499098 0.284198 -0.253243
325 1 7.9137 6.60264 0.519507 1.23285 -1.32709 0.635972
326 1 5.46103 2.72865 4.15525 0.533029 -0.38193 1.23894
327 1 2.60619 2.83219 2.76671 -0.302364 0.49507 0.33871
328 1 7.34745 4.13592 3.60298 -0.258739 -0.78862 0.7664
329 1 8.21749 0.260793 8.74632 -0.471334 0.305464 -1.20959
330 1 3.62945 2.97017 1.01191 -0.794429 0.548632 -0.0555224
331 1 1.11684 0.5881 5.8801 0.881897 -0.0720563 -0.632899
332 1 1.60517 3.28987 7.08298 -0.0933364 -0.551961 -0.809115
333 1 1.2518 3.47001 1.11199 0.570277 0.379714 -0.726449
334 1 2.54404 5.98573 6.39236 -0.166439 0.1523 -0.389025
335 1 8.49058 5.5708 0.123888 0.4121 0.372679 -0.653476
336 1 5.89082 5.76025 3.3779 -1.43948 -0.0659267 -0.0214808
337 1 7.47949 9.28624 1.88143 -0.600532 -0.786947 -0.882958
338 1 7.15709 1.59136 6.75895 -1.04272 -0.211549 -0.428903
339 1 6.6634 5.93857 0.0663339 -0.0734496 -0.0895389 0.589368
340 1 3.70749 7.74343 6.33897 1.12878 0.407699 0.628602
341 1 6.40041 7.49232 8.09638 -0.57809 0.672564 -0.267659
342 1 9.37215 2.22954 7.73002 -0.652162 -0.0705457 -0.736831
343 1 5.29969 7.92051 3.35832 0.0837889 -0.802771 0.743303
344 1 0.681397 4.03185 8.24485 -0.340273 0.0715468 -0.586947
345 1 7.95381 6.42141 4.70085 0.825296 0.322463 -0.193373
346 1 9.18297 3.08005 1.04083 0.927079 0.191072 -0.781965
347 1 6.23525 6.09501 7.64337 -0.404079 0.759499 -1.02497
348 1 7.4347 1.04146 5.30166 -0.0781807 0.168158 1.32914
349 1 4.39659 2.55255 1.94703 0.875918 -0.132726 -0.287731
350 1 1.4889 3.08621 5.69919 -1.47201 0.133317 0.140715
351 1 6.36642 9.20855 9.1829 0.322108 1.44769 0.0652633
352 1 5.57565 5.41858 6.93113 -1.37939 -0.837544 1.60566
353 1 8.92435 5.15581 5.34409 -0.576015 -0.423915 1.98763
354 1 2.04851 5.69905 7.79455 0.537192 0.0164477 0.489804
355 1 8.66657 7.79278 3.25025 -0.323226 0.0530765 -0.842505
356 1 7.93505 2.25861 7.01696 0.170432 0.195667 -0.178328
357 1 1.22609 5.79157 5.73741 -0.752407 -0.158074 0.394603
358 1 5.19159 2.36581 6.20384 -0.38578 1.8238 0.858153
359 1 1.36201 6.61248 7.57535 0.20407 -0.347925 -0.595546
360 1 5.52924 1.47215 0.399749 -0.74236 -0.00920899 2.42171
361 1 8.48303 0.489706 5.19155 0.38036 -0.1984 -0.202248
362 1 2.31234 1.41626 0.0119039 0.649138 -0.703871 -0.0446597
363 1 9.15803 5.31204 0.930352 -0.546296 -0.492009 0.193076
364 1 0.189658 2.10044 3.40905 0.587733 0.735341 0.206903
365 1 4.54019 5.89973 8.12368 -1.0377 -0.494144 0.477051
366 1 4.02741 9.03889 1.41273 0.480932 -1.61461 -0.815904
367 1 9.29704 3.76529 6.91394 -0.570229 -1.00074 -0.600025
368 1 3.81883 6.52561 3.90173 0.109471 -0.534605 0.0796237
369 1 8.32326 7.90482 0.832545 0.555553 -0.125991 -0.135251
370 1 1.38814 0.862823 1.65994 -1.32211 0.734276 0.0611623
371 1 0.414725 1.08032 3.5519 -0.364606 -1.15846 0.507097
372 1 5.54485 4.65245 5.23065 0.828328 -0.663333 0.183187
373 1 6.64423 2.50932 7.34093 -1.06278 0.227164 -0.402058
374 1 7.87753 0.908209 1.74199 1.47686 0.0392118 -0.475002
375 1 3.38914 7.45946 0.731281 0.952826 0.347505 -1.13943
376 1 3.83325 3.94726 0.452064 0.210788 -0.377013 0.171991
377 1 4.5299 7.74909 7.08735 1.00844 0.468024 0.37732
378 1 3.68319 6.4505 2.73822 0.345699 -0.948196 -0.607615
379 1 7.6901 5.55662 2.0741 0.221377 0.683392 0.772257
380 1 9.33076 4.05283 5.22498 0.859041 0.556226 -0.175808
381 1 3.21724 3.36766 7.20529 0.168215 -0.21768 -0.768204
382 1 4.48206 9.16794 5.90005 0.337913 -1.06735 0.0925348
383 1 2.23733 0.704205 1.20133 -0.849763 -0.529132 0.752672
384 1 4.4189 0.397804 4.29024 -0.721555 0.528276 0.211937
385 1 4.50177 5.80355 9.18122 0.633142 0.797861 -1.29898
386 1 6.97819 8.01166 3.92859 -0.332599 -0.00604318 1.42638
387 1 9.18409 3.49092 1.96406 0.541081 -0.191344 0.231631
388 1 2.30801 8.98461 0.994564 -0.62908 -0.160564 0.646984
389 1 6.41567 1.16387 6.27484 -0.794689 -0.271436 0.398758
390 1 1.7502 5.4573 4.5065 -0.0472841 0.314372 -0.071489
391 1 7.31475 8.38226 2.41279 -0.115772 0.0458013 0.0976685
392 1 2.67777 6.09598 0.520528 0.621684 0.611637 1.5948
393 1 5.60173 0.293461 4.15284 -0.246331 -0.429155 0.56061
394 1 4.4825 2.96465 3.57153 0.392602 -0.0638808 -0.529584
395 1 5.73468 0.312683 1.79696 0.488174 0.651275 -0.813306
396 1 3.53941 2.1883 0.347627 -0.291629 0.00769924 0.0133984
397 1 6.40592 4.74871 3.40328 0.118669 -0.292152 -0.791968
398 1 9.19147 4.3762 7.77241 0.500942 -0.210452 0.504827
399 1 7.08973 8.97134 3.27895 -0.158109 -0.169262 1.5025
400 1 0.939476 4.24446 3.33231 0.00602711 0.379221 1.5354
401 1 5.59822 5.54075 8.2496 0.577277 0.163113 -0.245728
402 1 2.09129 4.45766 4.12198 -0.285953 0.0870172 -0.491938
403 1 0.95429 3.24917 3.22369 -1.0354 -1.50385 -1.26038
404 1 2.46418 1.2074 3.12185 0.780364 -0.107404 -0.0648649
405 1 1.88467 3.87919 5.06242 -0.546902 0.582744 0.01541
406 1 5.11379 0.883419 1.09368 -0.607495 0.277787 1.20841
407 1 7.00047 7.92946 1.43295 0.398214 0.0225876 1.22711
408 1 2.0632 1.64952 1.81954 -0.15873 -0.469255 -0.817273
409 1 9.06044 4.38301 6.09423 0.21697 -1.0655 0.574942
410 1 5.85146 4.01214 9.33588 -1.24771 -0.214832 0.0755091
411 1 5.08287 2.73394 2.64926 -0.0851319 -0.588221 -0.369658
412 1 2.32619 5.80321 3.10421 -0.172193 -0.0419471 0.150525
413 1 1.32142 8.23594 8.76785 -0.746805 -0.550508 -0.226845
414 1 6.5063 8.86268 1.39719 -1.31041 -0.156738 0.359465
415 1 7.72801 8.30266 8.51085 0.0109873 0.377258 -1.09955
416 1 8.79315 8.86068 0.906181 -0.214796 -0.222244 0.541767
417 1 8.51363 2.77395 2.63833 -0.327205 1.65336 0.67763
418 1 5.59823 1.06774 7.6148 0.318145 0.0608066 0.555802
419 1 0.960031 1.48517 2.76545 -0.524252 -0.598012 0.922923
420 1 8.40762 5.67458 7.32261 -0.675369 -0.398383 -0.29808
421 1 3.22945 7.81855 8.39175 -0.863375 1.09579 0.902143
422 1 6.21272 1.15027 4.23585 -0.0550022 0.353447 -0.129567
423 1 6.86671 3.22776 3.62167 0.0424582 0.493128 0.149589
424 1 3.54219 3.21273 3.09368 0.273601 -0.896932 -0.739204
425 1 7.55665 3.76281 4.48658 -0.253521 -0.772544 -0.620424
426 1 0.829109 1.9945 8.26467 0.223442 0.622004 0.678884
427 1 7.37329 3.40256 1.67754 0.468966 0.518662 -0.986938
428 1 2.09051 8.31485 1.83401 0.127771 -0.243605 -0.282795
429 1 5.7719 2.09614 7.8993 0.841508 0.432131 0.321953
430 1 7.94825 1.32084 3.55829 -0.585962 0.465202 0.0474938
431 1 0.232297 4.86061 6.93826 0.412026 0.40727 -0.0799901
432 1 0.779484 8.40927 1.77731 0.123758 0.511648 1.18664
433 1 7.08915 2.47955 6.34403 0.643302 0.624802 0.141516
434 1 7.59062 3.36735 2.86174 -0.118325 -0.814125 -0.615521
435 1 8.17963 7.50877 5.03984 -0.0549949 -0.0667656 1.27856
436 1 1.26747 7.11968 8.70722 -0.13495 0.177412 -1.58484
437 1 2.81748 5.83708 2.1882 -0.0359818 0.0586854 0.602882
438 1 2.73567 6.84686 2.37666 -0.0544503 -1.14525 -0.248496
439 1 4.18432 3.06299 6.75193 -0.284533 -0.595558 0.186519
440 1 3.19382 0.334786 1.43903 0.684114 -0.306359 0.668465
441 1 5.36137 1.32884 8.80083 -0.887565 -0.444601 -0.193248
442 1 2.66866 0.0234109 7.87437 1.74144 -0.888822 -1.21963
443 1 1.6148 4.85356 0.198779 -0.0952756 0.599263 -0.126847
444 1 6.61124 5.55616 6.80721 -0.858864 -0.809684 -0.447424
445 1 0.511375 7.09839 7.94951 0.401463 -1.3004 1.00567
446 1 8.53064 2.63919 8.51796 0.0137604 -0.706154 -0.0608287
447 1 0.1362 4.3955 2.39818 -0.0757111 0.793766 1.13316
448 1 0.315452 8.56294 2.88566 0.15989 -1.92864 0.352202
449 1 6.50139 8.89694 4.1261 0.546735 0.426703 0.146959
450 1 1.97279 8.55808 0.125395 -0.503744 0.180262 -1.11103
451 1 8.01145 4.58171 7.78368 0.413801 -0.612081 0.372028
452 1 9.23622 6.4665 2.0822 0.00509182 -0.488638 -0.654055
453 1 4.60095 0.910789 0.0547579 0.752954 0.672396 0.279095
454 1 2.79178 6.75151 1.31743 0.504947 -0.560601 -0.337533
455 1 2.09848 8.16224 4.76755 -0.889396 0.275228 1.25157
456 1 1.52861 6.01975 6.67584 -0.626391 -0.628258 0.861682
457 1 7.22068 4.07869 5.45179 0.0118897 -0.372472 -0.386375
458 1 3.75583 7.87537 4.64116 -0.3697 -0.534127 1.35411
459 1 6.95754 2.21389 5.16423 -0.168323 0.49186 -0.24376
460 1 2.6534 2.24362 4.38428 -0.609552 0.96908 0.501857
461 1 8.26589 3.69726 5.54237 1.52931 -0.265002 0.625161
462 1 6.5656 5.61638 2.51067 0.623124 0.370265 0.170325
463 1 1.17275 0.948559 0.392462 -0.151064 -0.986067 0.285674
464 1 9.1781 8.19993 0.261128 -0.0111001 -0.0535437 -0.107708
465 1 8.95901 5.415 6.35428 -0.731437 0.107541 0.18307
466 1 2.44055 9.20935 6.87624 -0.205186 0.485166 0.188681
467 1 4.99485 2.40478 8.54002 0.472444 0.114641 1.28765
468 1 7.79628 7.93083 6.84147 0.488653 0.323668 0.166124
469 1 7.44291 5.01243 4.17835 0.429806 -0.293681 -1.22848
470 1 0.19601 6.22751 5.85754 1.08357 -0.470837 0.67124
471 1 8.63856 0.507281 0.816011 -0.394327 -1.36555 -0.156802
472 1 8.1351 2.97832 6.24445 0.197305 -1.15899 0.309089
473 1 4.65747 4.11795 6.42156 -1.85813 -0.467787 0.164229
474 1 4.05121 9.3784 6.83298 -0.907698 0.507581 0.404131
475 1 8.48254 0.0981186 1.71688 0.239882 0.362428 0.429298
476 1 2.20455 5.10167 6.99725 -0.439968 1.11124 0.744283
477 1 0.607483 9.35806 5.09185 -0.302164 1.04087 0.500063
478 1 4.90467 6.29878 0.681822 1.1926 0.492349 -2.02672
479 1 0.734211 3.00326 7.80192 -0.254093 0.77806 0.305237
480 1 0.168178 7.21961 0.687966 0.688784 1.07872 0.205147
481 1 5.21773 2.11294 3.38524 -0.49432 0.40244 0.739262
482 1 4.62625 3.37126 1.36072 0.704413 0.101217 0.192764
483 1 3.24973 5.14902 6.7388 -0.435813 0.93482 0.806992
484 1 2.48237 1.09538 4.13788 -0.46401 -0.263623 0.148299
485 1 7.90614 7.25254 8.8654 -0.496802 0.280978 -0.816875
486 1 5.77865 8.26055 9.16208 -0.466984 0.783338 0.117676
487 1 7.7397 8.90026 6.28272 0.252166 0.646026 -0.715045
488 1 7.93516 7.55071 7.85216 0.610693 1.302 -0.57484
489 1 0.340759 0.300479 0.365811 0.174839 -0.409453 0.133824
490 1 4.87106 8.70385 1.9795 0.10682 -0.973857 1.19654
491 1 4.86857 7.61288 1.72033 -0.688354 -0.175522 0.286768
492 1 3.5824 1.22112 4.50523 -1.21827 1.45228 0.408881
493 1 8.67239 3.76197 4.51089 0.13571 0.682558 0.0259614
494 1 5.49065 1.36089 5.97556 -0.982521 -0.0664248 1.04517
495 1 3.52225 1.26169 3.33755 0.16457 0.11576 -0.11355
496 1 3.39357 3.02421 6.16145 -0.569176 -0.472935 -0.756486
497 1 2.39325 3.80616 7.62111 -0.576683 0.0162662 0.382071
498 1 1.18432 2.27455 3.50267 -0.122656 -0.0952736 -0.222045
499 1 3.41053 8.79999 8.31169 -0.270205 0.572785 -0.526152
500 1 6.47434 3.22794 9.02384 -0.966958 -0.568001 -0.0580189
501 1 5.03836 5.3648 3.80607 0.0442116 0.391239 -0.352921
502 1 0.453004 0.481694 6.70257 0.130503 0.560379 -0.669249
503 1 6.12784 0.264966 6.7394 -0.597288 -0.200157 0.0987804
504 1 6.76873 6.58654 6.60484 -2.02605 0.639116 -0.150773
505 1 4.10689 5.36024 5.07862 0.148146 0.633891 -0.981094
506 1 9.20208 6.88608 3.03472 -0.0295138 0.446023 0.918691
507 1 9.20687 2.07158 1.2911 0.00762918 -0.874235 0.278722
508 1 6.04225 1.41137 1.356 0.211794 -0.252456 -0.538114
509 1 4.39029 8.91744 8.32576 0.00239875 0.804066 -0.42137
510 1 1.4849 7.51821 2.26859 -0.633531 0.903017 -0.668367
511 1 8.00802 0.0340191 3.44353 -0.693369 -1.27145 0.606307
512 1 6.70891 3.90166 2.81353 0.404171 -0.0247974 -0.265249
513 1 8.50365 6.03026 1.44703 -0.404112 -0.376176 -0.0669532