ITEM: TIMESTEP
87200000
ITEM: NUMBER OF ATOMS
1000
ITEM: BOX BOUNDS pp pp pp
0.0000000000000000e+00 9.4000000000000004e+00
0.0000000000000000e+00 9.4000000000000004e+00
0.0000000000000000e+00 9.4000000000000004e+00
ITEM: ATOMS id type x y z vx vy vz
1 1 4.63231 7.10959 2.905 0.245365 -0.413603 0.0280397
2 1 2.29789 5.64113 1.5176 -0.467398 -0.40495 1.43669
3 1 2.90151 4.41281 6.16888 1.01391 -0.257465 0.487295
4 1 2.23509 6.71151 0.0588115 -0.255922 0.644593 -0.692095
5 1 2.2897 9.397 3.24438 0.0308052 0.420754 -0.323427
6 1 3.72346 5.95795 5.28167 0.421065 0.281728 -0.0461128
7 1 6.70446 5.35111 6.49316 -0.441587 -0.143903 0.0676984
8 1 8.5763 2.24749 6.19534 -1.23981 0.0248248 -0.568521
9 1 1.39512 7.31103 5.52033 1.05213 -1.04014 -1.18954
10 1 0.373636 6.28531 9.29217 0.731941 -0.488507 0.847922
11 1 3.8202 0.719657 6.06335 -0.673792 0.102344 -0.470928
12 1 7.75691 2.2524 6.83444 0.34724 1.59356 -0.420508
13 1 8.01526 8.03404 7.40678 0.761905 -0.0919231 -0.0577768
14 1 2.93087 3.99672 8.13311 0.529296 0.868812 -1.20996
15 1 9.15976 8.50505 8.71663 0.14926 -0.352254 0.181229
16 1 9.2225 7.28701 8.68677 0.633698 0.131376 -0.136107
17 1 6.12173 9.38012 1.89223 0.476281 0.0392595 0.43226
18 1 5.98639 7.59509 5.50204 -1.06334 1.40184 0.000584285
19 1 8.52804 6.65482 1.52346 -0.596342 -0.287481 0.586373
20 1 7.01005 2.98441 1.51857 -0.390449 0.244966 1.29179
21 1 8.39629 2.40251 8.97858 1.05599 -1.87734 -0.614752
22 1 7.27066 9.23095 9.27489 0.415523 0.466458 -1.24802
23 1 6.9507 0.400494 8.30299 0.429546 -0.0651536 -0.485474
24 1 1.78846 4.63995 8.68217 0.80161 1.53054 -0.345034
25 1 5.22607 8.63629 1.91893 -0.487694 -0.523334 -0.116099
26 1 6.88254 1.20558 3.51348 -0.163939 -0.683492 0.763343
27 1 6.44923 2.7015 8.65704 0.0173793 1.77195 0.103975
28 1 5.43404 2.06963 2.93143 -0.172601 0.0778392 -0.769855
29 1 0.623477 5.21848 9.10762 0.581862 -1.45577 1.01395
30 1 0.369677 1.15613 3.74839 -0.537225 -1.15943 -0.118142
31 1 0.409533 0.916621 2.59792 -0.65684 -1.3935 -0.202641
32 1 5.75017 5.21539 6.12537 -0.0312179 -0.271648 -0.173626
33 1 6.72103 7.36126 0.644967 -0.0560194 -0.0848412 -0.288528
34 1 3.32972 8.11228 9.34654 0.123944 -0.0718028 -0.963894
35 1 4.27488 5.15027 4.87196 -0.213332 0.542367 1.23883
36 1 3.03291 9.22407 2.58135 -0.245666 0.457116 0.591617
37 1 7.93515 4.91162 8.03464 -0.657576 0.0620507 -0.920801
38 1 0.210242 0.766283 0.970517 -0.622679 -0.692836 -0.344796
39 1 5.30274 8.25356 2.90724 -0.442599 -0.0665527 -0.89751
40 1 4.54952 0.825043 8.47176 1.12709 0.662077 -0.154329
41 1 4.71354 0.308883 6.34039 1.00337 -1.54034 1.16914
42 1 1.43892 0.249802 4.10945 0.173299 -0.177105 -0.546198
43 1 5.42041 0.364071 9.16118 -0.384841 0.113004 -0.0923049
44 1 3.39478 9.26076 3.51542 0.104815 -0.156741 -0.611713
45 1 1.52729 7.18499 8.84228 -0.200466 -1.30765 0.389441
46 1 1.19999 4.59673 2.94788 -0.338863 0.324729 1.01483
47 1 7.10797 8.87302 1.80847 -0.858733 -0.526372 0.375477
48 1 3.74953 1.06349 5.01863 -0.131259 1.36467 0.352406
49 1 0.963835 2.07641 6.12582 -0.0474259 0.389466 0.438016
50 1 8.15823 2.41904 4.23987 0.149003 -0.746433 1.80634
51 1 7.89279 7.12429 2.31169 0.0495837 0.107663 1.22998
52 1 5.01599 8.0434 1.0639 0.613143 0.489147 -0.0631771
53 1 0.634092 8.74364 9.23205 1.69926 -0.362169 -1.51618
54 1 5.97064 0.0184283 5.37221 0.0167977 0.216307 0.136835
55 1 2.17809 4.78218 2.91694 -1.44007 -0.202001 0.379198
56 1 2.33398 7.22576 4.90051 -0.414186 -0.427311 -1.10072
57 1 3.32881 4.92663 5.22139 -0.422834 0.422926 -0.695148
58 1 5.05214 5.51662 2.05666 0.199457 1.29205 -0.318693
59 1 5.85017 6.63356 6.75783 0.343773 0.36817 -0.0398669
60 1 2.6925 1.54552 5.65272 -0.301424 -0.56182 0.109105
61 1 3.71213 6.69718 3.41343 -1.40526 0.533657 0.471238
62 1 5.91092 8.70702 1.11989 1.04563 -0.877011 -0.19466
63 1 0.291189 3.96974 5.80628 0.693551 -0.142179 -0.692813
64 1 8.96535 8.45546 1.46066 0.289549 0.569766 -0.357202
65 1 7.14529 1.2543 2.37192 0.732487 0.970806 0.0824582
66 1 1.0474 1.85032 8.50682 0.110277 -0.544538 0.823834
67 1 0.658333 6.35578 6.69201 0.610378 -0.117375 1.0061
68 1 4.55157 7.5753 7.09527 0.126206 0.25539 1.62455
69 1 8.92773 6.89221 4.00664 -0.898849 0.748915 0.394787
70 1 9.04875 5.89143 3.90763 -0.34374 0.0813918 0.596623
71 1 7.01432 8.3345 7.28492 0.318416 1.46409 1.11721
72 1 2.75711 2.82164 9.35283 0.0656449 0.176985 0.325915
73 1 4.03069 5.75078 2.15994 0.617164 -0.636646 0.218396
74 1 4.24336 0.540708 3.02734 -0.327666 0.599696 0.252073
75 1 4.75934 2.56927 2.48774 0.119551 -0.0790671 0.0826591
76 1 8.04593 6.40125 6.89236 -0.0312284 -0.209386 0.0458831
77 1 1.47497 4.26065 5.71923 -1.13445 0.312542 0.501237
78 1 4.42936 7.209 1.7099 -0.128133 -0.100131 -0.858123
79 1 6.31263 9.21336 7.65605 -0.212087 0.0906591 -1.01016
80 1 0.0482328 2.29549 8.85316 -1.44256 0.599231 0.44081
81 1 3.62609 4.00434 6.97527 1.78691 0.806378 -0.135817
82 1 4.1604 0.518699 0.901663 0.650901 1.62309 -0.130289
83 1 5.02151 7.122 5.43474 -0.382185 -0.827306 0.903143
84 1 0.847392 3.01015 7.15123 -1.16757 -0.232695 0.831189
85 1 7.65622 2.9966 8.58831 -0.830496 0.596745 -0.526992
86 1 4.69648 4.58363 7.77382 -0.2913 0.569671 1.19999
87 1 2.31496 2.40602 4.96427 -0.209726 0.681651 0.0717958
88 1 8.61202 0.904453 0.412681 -0.754166 0.172997 0.0232123
89 1 6.32717 6.91834 3.31648 0.322807 -0.155788 -0.0186158
90 1 5.4425 6.53926 2.87802 -0.0470241 -0.329586 1.19495
91 1 0.237466 6.69196 3.21841 -0.256985 -0.0703572 -0.696367
92 1 7.91859 0.626177 8.88405 0.328876 -0.353731 -0.535198
93 1 3.76626 9.01103 6.20291 -0.0890795 -0.854064 0.158549
94 1 1.73367 5.24686 5.24999 -0.562282 0.551193 -0.639405
95 1 7.76121 7.75942 5.28619 0.446134 0.674529 -0.0657385
96 1 5.71729 7.47085 7.34568 0.157337 -0.9595 -0.492398
97 1 1.22577 4.75689 0.50197 -0.825684 -0.838713 -0.477428
98 1 5.97389 7.55762 1.2913 -0.582338 0.220393 -1.38705
99 1 6.18567 8.51252 5.88641 -0.159341 0.644326 0.471119
100 1 6.01053 6.84113 0.162229 1.02518 -1.42471 0.0115622
101 1 5.15617 5.36949 8.27687 0.589856 -1.02875 0.208315
102 1 2.62276 3.00036 2.16996 -0.142028 0.743085 -0.588425
103 1 4.58932 6.78745 4.51851 -0.203361 0.419155 -1.27479
104 1 5.74414 6.70854 4.82835 0.226018 0.772034 -0.230018
105 1 0.0994959 7.57946 5.52309 1.00661 -0.490055 0.0099873
106 1 9.06379 -0.0555631 5.39365 -0.612235 -1.38534 -0.28698
107 1 4.38614 4.32825 3.0797 -1.24457 0.0773481 0.310624
108 1 7.98062 8.08369 2.98683 -1.17681 0.0110856 0.792495
109 1 6.04646 3.69273 8.4812 1.2628 -0.33791 0.787964
110 1 7.07555 6.4643 0.311667 -0.31202 1.42054 1.1319
111 1 6.02101 9.1005 8.65029 -0.366164 -0.2106 -0.776445
112 1 6.9213 2.97777 0.174643 -0.0589941 0.48916 0.103046
113 1 3.50884 5.12866 0.223406 -0.385723 -0.0937295 0.236946
114 1 5.40718 3.18331 3.10138 -0.985226 0.673644 1.03552
115 1 4.40764 1.67042 2.65141 0.247064 0.471389 -1.32144
116 1 7.34492 2.10316 8.97172 -1.45731 0.141205 0.486113
117 1 8.11644 8.58038 8.27801 -0.34212 -0.40727 -0.0555387
118 1 7.87725 3.36013 0.925655 -0.618328 1.56783 0.469892
119 1 3.99719 2.99011 7.08041 -1.25976 1.30199 -0.465316
120 1 2.03598 7.5334 8.01838 0.111639 0.211566 0.913381
121 1 3.8624 1.9748 4.29207 -0.139148 -0.0359768 -1.10428
122 1 1.95345 8.20317 5.18684 -0.105681 -0.0621566 -0.368205
123 1 4.678 6.36583 0.183327 0.616319 -0.36092 0.282323
124 1 8.69872 8.42813 6.7564 -0.793997 0.36753 -1.57339
125 1 5.65006 3.90108 6.50672 0.165982 -1.11632 -0.387734
126 1 7.58492 4.62193 0.690011 -0.0530232 -0.182728 -0.470899
127 1 4.06765 8.60486 5.25083 -0.0958691 -0.155494 -0.723259
128 1 7.60036 6.32754 5.16898 0.0686135 0.0260973 -0.810614
129 1 8.65264 7.77313 9.35035 0.614015 0.511143 0.30149
130 1 3.50292 2.53186 1.09679 -0.0708994 -0.700979 0.910899
131 1 8.14998 1.6457 2.44035 -0.167442 0.834126 -0.225576
132 1 9.38216 7.26374 1.78371 -0.536443 -0.715101 -0.40749
133 1 5.63076 2.52633 3.93924 -0.227613 0.621037 -0.00607083
134 1 9.24705 7.03543 0.340151 0.87481 0.588334 1.01184
135 1 7.78031 7.07453 4.42252 -1.65812 0.114396 0.317071
136 1 6.50466 0.808135 6.6646 -1.39556 -0.471818 0.211023
137 1 2.3754 6.78111 7.35109 -0.704433 0.70869 0.298406
138 1 4.30344 7.89192 6.05639 0.27055 0.406179 -0.394019
139 1 1.05978 1.16519 7.67125 0.262788 -1.34721 -0.370349
140 1 0.462462 4.06292 0.711896 -0.142295 -0.327945 -0.296594
141 1 1.89233 8.66638 3.94738 -0.060036 0.703023 -0.179714
142 1 6.23172 0.93319 5.6664 -0.312586 0.143812 0.0611436
143 1 4.86729 2.6243 1.3967 0.220113 -0.285416 -0.386382
144 1 2.02565 1.13878 4.43534 -0.845377 1.17587 0.23775
145 1 8.9918 2.94621 8.24199 -0.0484994 1.46873 0.823081
146 1 2.86256 0.616089 1.95043 -0.562022 -0.943223 0.765792
147 1 7.16524 2.45528 7.80341 0.5201 0.520114 1.49533
148 1 1.79375 7.57675 3.96811 -0.0954475 0.449747 0.687018
149 1 2.49059 1.54299 3.58927 -0.577534 -0.0516512 -2.01128
150 1 1.1125 8.02059 4.52806 0.969692 -0.0675676 0.834272
151 1 6.49644 7.52674 6.50248 0.280013 -0.086398 -0.613765
152 1 5.72835 9.26634 6.3493 -0.39991 -0.00633548 -0.314646
153 1 3.68921 6.75381 0.736193 -0.166465 0.275749 -0.667139
154 1 3.4638 5.7815 1.20803 0.102622 1.65931 -0.909676
155 1 7.79624 9.17661 3.26766 0.581982 0.982542 0.0793995
156 1 7.17317 0.320282 5.75235 -0.0103541 -0.219317 -0.371238
157 1 6.30731 4.81302 8.71032 0.0752866 -0.306736 -0.643441
158 1 4.01968 7.533 8.78988 -0.0823882 0.130555 -0.494139
159 1 2.22433 7.02727 6.28856 -0.0226065 -0.590331 0.808906
160 1 7.60447 5.56575 7.29036 1.22239 -0.163971 -0.786027
161 1 1.37828 1.97405 7.14422 -0.0755338 0.943755 0.0183907
162 1 0.811819 4.1262 2.04555 -0.0553173 -0.62641 -0.632205
163 1 7.85453 8.94163 6.65066 0.337835 -0.185313 -0.58394
164 1 2.96412 0.966843 6.65724 0.116109 -0.433366 0.482165
165 1 2.52997 6.63791 4.03496 -0.67372 -0.366701 0.414974
166 1 6.16352 5.72793 8.21659 -0.678428 -0.368466 0.294874
167 1 3.51108 9.26936 1.45175 -1.74652 0.0420363 -0.620231
168 1 7.15122 4.0338 1.47409 0.249385 0.146018 -0.189598
169 1 0.951539 5.74438 0.660463 -0.221808 -0.428611 0.55976
170 1 8.90997 2.13058 3.48537 1.5479 -0.436295 -0.464155
171 1 5.18301 9.27551 7.31106 -0.244623 -0.442666 0.697704
172 1 2.52203 4.84477 0.0999093 1.79935 0.104604 -0.230666
173 1 3.27991 4.68614 1.27905 -0.60292 -0.0952034 0.240392
174 1 4.52284 5.29798 0.398968 0.933336 0.00498712 -0.676341
175 1 6.90464 3.41227 7.98516 0.0494694 1.0893 1.21792
176 1 2.716 0.694396 5.08108 0.593465 0.384593 0.246155
177 1 5.41285 6.5127 1.77116 0.207292 1.38465 -0.266362
178 1 6.37139 3.5423 0.875508 1.08887 -0.587487 0.222201
179 1 5.40141 4.15794 3.4598 -0.176871 0.800015 2.01012
180 1 0.0825331 9.1403 6.80057 0.581632 -1.12938 0.102139
181 1 7.05316 6.44472 2.03494 -0.309886 -0.638577 -1.00168
182 1 2.77437 0.576761 3.99004 -0.362172 -0.0844629 -0.270386
183 1 4.12519 4.17865 0.478974 0.213002 -0.377149 -0.174149
184 1 5.33649 6.26142 7.79541 -0.766349 0.662242 -0.358968
185 1 9.29463 6.88244 6.37177 0.0255936 -1.09467 0.738309
186 1 1.03694 3.50047 2.92834 -1.43947 -0.789213 0.658877
187 1 1.67528 1.56393 5.26542 -0.381664 -0.313283 0.187278
188 1 0.402622 6.53328 1.19266 -0.757666 -0.387912 -0.36626
189 1 2.87481 5.83323 4.67521 -1.01291 0.212019 -0.96042
190 1 5.91783 5.36959 1.3921 -0.723704 0.0333779 0.272927
191 1 5.22219 2.93251 4.84856 0.0654585 -0.932659 0.17666
192 1 2.15917 1.19483 7.3607 0.663489 0.754107 -0.171131
193 1 4.18102 1.90749 1.58659 0.382813 -0.173049 -0.873345
194 1 1.3282 8.99815 4.90596 -1.10028 0.610143 -0.353953
195 1 5.24254 8.69311 3.88929 -0.264711 0.399781 0.606564
196 1 0.707196 9.30833 2.44144 0.102599 -0.458501 -0.54169
197 1 5.99633 4.26153 1.49461 -0.752588 -0.207824 1.42815
198 1 7.81306 0.75375 7.78601 0.372171 0.799076 0.216519
199 1 6.05468 9.3124 4.2788 -0.701782 -0.482622 -1.13384
200 1 2.84048 8.80925 8.87819 0.521247 0.235521 -2.2833
201 1 5.263 1.81616 4.62272 -0.547937 0.12265 -0.398779
202 1 2.77137 6.52677 3.0043 -0.292616 1.85994 0.440319
203 1 4.63363 1.30146 6.52226 -0.651804 -0.0688664 0.453498
204 1 7.01766 7.70741 1.86847 0.509959 -0.0215317 0.40523
205 1 3.79814 1.39191 7.09496 0.499039 -0.411678 -1.6081
206 1 4.55927 0.700875 7.43486 0.571768 0.476102 0.363609
207 1 6.99205 3.89756 2.47051 1.71512 -0.380057 0.388231
208 1 0.21055 4.90798 2.38698 0.621095 -0.258967 -0.77401
209 1 6.80685 9.21198 6.60057 -0.31453 -0.0578754 -1.29681
210 1 1.46477 2.72838 8.04043 -0.642165 1.14363 0.0345259
211 1 6.84003 9.22358 0.905824 -0.34355 0.28042 0.127649
212 1 4.63001 7.80336 3.64664 0.357062 0.212721 -0.132938
213 1 1.42654 6.77912 4.59813 -0.869122 0.740095 0.557287
214 1 6.28734 3.04131 2.44494 1.11022 -0.247289 -0.791432
215 1 5.28482 6.07351 3.9752 0.168068 0.815026 0.365287
216 1 7.57318 4.07297 7.44755 0.0853062 0.0232707 0.321572
217 1 2.67469 0.0710518 7.98015 -0.734869 -0.612992 -1.56836
218 1 1.98238 2.92166 2.95397 0.205851 0.388505 -0.461409
219 1 0.0206302 5.01924 0.558946 -0.204228 -0.0120587 -1.04779
220 1 0.597495 1.70355 0.765775 -0.47428 0.3889 0.208592
221 1 5.35573 7.89243 6.33967 0.648587 0.119763 -0.326588
222 1 4.47422 6.28304 1.27004 0.737716 -1.59733 0.116572
223 1 3.15566 0.364392 9.14188 -0.943699 0.380095 -0.567488
224 1 6.10148 5.78056 4.5892 0.0553112 -1.27954 -1.61825
225 1 2.49186 3.06178 8.28979 -0.282131 0.0300297 -0.196214
226 1 3.66592 1.75149 6.09394 0.673952 -0.589446 -0.589279
227 1 7.24082 5.4489 4.71545 -0.82916 -0.255786 0.247126
228 1 6.27767 0.920186 7.67868 -0.792716 -0.812677 0.0102813
229 1 8.79762 2.21436 7.40698 -0.431332 -0.290689 -0.732279
230 1 7.05383 1.43304 8.13781 1.00786 -0.593377 -0.21919
231 1 6.81199 4.89129 7.57268 1.41401 -0.383979 1.03135
232 1 5.81369 4.64953 7.75655 0.46474 -1.33418 -1.55829
233 1 8.75526 8.83952 2.99408 -0.158776 0.168446 0.583339
234 1 6.40054 8.46034 3.83172 -0.505518 -0.229361 0.701034
235 1 7.54159 8.09609 0.801302 0.300912 0.523619 -0.334932
236 1 8.82024 3.49284 5.07067 -0.370364 -0.520136 1.44774
237 1 7.1867 2.67118 3.98917 0.41481 0.633939 0.836516
238 1 7.12831 1.47735 7.16112 0.634656 0.36565 -0.599224
239 1 6.55411 5.61388 5.47478 0.319358 -0.962679 0.557746
240 1 9.02057 1.87448 0.320517 1.76873 0.224257 0.955773
241 1 3.12724 4.31106 3.08994 -0.55018 0.901185 0.605622
242 1 3.97032 4.03347 8.18456 0.262536 1.1518 0.205045
243 1 6.00419 8.43959 4.77366 -1.09685 -1.31266 0.440084
244 1 7.39166 4.49672 4.35603 0.0840585 0.0784906 0.0327364
245 1 6.5551 4.85619 2.11781 -0.549615 0.577445 -0.234517
246 1 8.3152 1.37603 3.82048 -0.256542 1.00832 -0.317964
247 1 5.77865 2.75403 0.477524 0.174384 -0.642365 0.359659
248 1 5.15121 8.35344 5.45317 -0.86011 -0.886214 0.338844
249 1 6.24632 4.75944 4.83015 -0.217648 0.211356 1.3793
250 1 5.75344 5.02204 3.89392 -0.757715 -0.321369 -1.36566
251 1 7.31558 3.06566 4.9268 0.292154 0.136871 -0.0474052
252 1 8.61313 6.27467 4.76829 -0.254322 0.493434 0.237147
253 1 2.38614 7.84543 1.6005 1.06808 -0.617616 0.49783
254 1 5.47173 3.83186 0.300519 0.943333 -1.10536 -0.556159
255 1 4.92251 4.47887 1.97283 -1.05083 0.0191518 -0.4741
256 1 1.34368 3.91058 9.31986 -0.16264 -0.531914 0.191846
257 1 8.47053 7.84063 4.06405 -0.536743 0.551244 -0.491726
258 1 3.85443 6.8155 2.35072 -1.08901 -1.63373 0.155065
259 1 4.89523 3.42117 3.97146 1.25033 -0.0176223 0.0684604
260 1 3.77273 4.67631 2.31251 -0.247474 -0.246586 -0.0226561
261 1 0.627688 6.78697 8.41041 0.50068 -1.29523 0.447469
262 1 6.08307 1.09436 8.63188 -0.366073 -0.111395 1.36737
263 1 7.38687 4.79285 5.51819 0.0569346 0.419233 1.26738
264 1 6.44086 4.40172 6.01072 0.420498 -1.40793 1.39292
265 1 3.57081 3.3387 0.345909 0.743828 -0.602318 0.719449
266 1 9.05477 5.55166 9.12535 0.252943 -0.0940508 0.57727
267 1 5.28147 3.36482 1.93471 -1.28997 -0.777481 0.383538
268 1 6.93011 1.23138 9.23509 0.965965 -1.39061 0.076382
269 1 1.40878 6.20482 1.54657 1.04508 0.000336337 -0.518898
270 1 0.336854 8.5266 3.0726 0.139164 0.370838 0.184975
271 1 1.5608 7.80153 0.264153 -1.11758 0.280569 -1.16031
272 1 2.00569 3.26436 0.503157 -0.438925 -0.79192 0.792628
273 1 9.18563 4.80183 3.99147 -1.07601 -0.575128 1.34187
274 1 4.3439 2.9279 8.10479 0.490662 -0.920302 1.38677
275 1 4.83704 9.12876 1.11989 0.309468 -0.575327 0.477837
276 1 8.45704 9.16368 9.0474 1.16259 -0.118055 0.264751
277 1 6.49365 2.17355 3.21956 0.165751 -1.16192 -1.27852
278 1 3.49552 2.36385 5.21824 0.761067 1.20624 0.75633
279 1 0.373462 3.5718 9.13918 -0.496613 -0.220131 -0.778504
280 1 2.86635 1.06718 8.24808 0.397753 0.463566 -0.595401
281 1 4.41877 8.09295 2.26858 1.17752 -0.225916 -0.34352
282 1 0.826895 8.88758 3.90667 0.236736 -0.400027 -0.327641
283 1 1.71737 8.01317 6.22565 -1.23598 -1.04189 -1.39006
284 1 6.92029 6.40171 4.20527 -0.386405 0.213003 -0.250797
285 1 8.57731 1.4683 5.48115 1.02228 -0.755888 -0.674883
286 1 1.84896 0.519148 6.56857 -0.465023 1.20245 -0.325712
287 1 4.31982 0.277903 5.20849 -0.794245 1.85504 0.234331
288 1 1.62425 7.11372 1.10164 0.312212 0.707831 -0.573954
289 1 7.26065 2.26742 2.25518 0.264645 -0.0409205 0.792275
290 1 4.59644 3.98153 6.69057 -0.264307 0.963694 0.789204
291 1 8.08686 3.03482 7.59653 -0.751957 -0.357523 -0.541356
292 1 7.28546 3.14697 6.8958 -1.18434 0.991302 0.0503481
293 1 9.04231 3.75877 3.88466 -0.0802999 -0.621067 0.139978
294 1 9.01985 4.13353 6.58803 -0.716429 -0.00527896 -0.0103533
295 1 5.08075 3.12525 7.10931 0.0455996 -0.439656 1.04925
296 1 7.57951 7.1222 1.23591 -0.51503 0.773841 0.330907
297 1 9.26044 5.9598 5.69928 -0.213866 -1.44829 0.558225
298 1 0.663117 4.83117 5.36492 0.378361 0.15998 0.0370852
299 1 3.57147 0.538209 7.71222 -0.107362 0.352364 0.419704
300 1 1.01332 1.12369 4.54856 -0.0242728 -0.987007 0.225264
301 1 5.443 0.469795 8.151 -0.71434 -0.0990203 0.361936
302 1 8.01652 8.79988 4.26167 -0.0972279 -1.72061 -0.00708068
303 1 3.59518 3.99501 4.8684 -0.812701 0.300962 0.0729021
304 1 1.36822 6.16311 9.03414 -0.728544 -0.101063 -1.23212
305 1 5.13667 8.28189 7.63195 -0.00712889 0.380811 -1.08222
306 1 1.97311 8.50235 0.865943 0.999415 0.956901 -1.71199
307 1 5.64843 0.732217 4.6372 -0.243784 -0.0606493 -0.305898
308 1 1.96285 8.71919 7.95559 -0.537879 -0.726118 0.380998
309 1 9.22909 6.33361 7.24263 -0.917698 0.385139 1.58795
310 1 8.05583 7.07849 3.35275 -0.0889739 -0.270014 -0.0345532
311 1 0.656397 7.57813 1.05954 0.199651 0.526438 -0.18045
312 1 5.16536 7.05457 0.919645 -0.237905 -0.0713885 -0.0980172
313 1 5.40458 7.07038 3.75792 -0.130312 0.0666381 0.144518
314 1 6.19116 1.04691 2.0485 -1.36082 -0.597219 0.045512
315 1 4.17186 5.64843 7.92234 -1.58057 -0.496068 0.393817
316 1 9.16503 4.45785 9.04301 0.575049 -1.6789 0.0223247
317 1 7.91735 6.17707 3.92618 -0.0183966 0.777611 -0.272116
318 1 9.03299 2.81495 4.26112 0.261373 0.0580679 -1.00361
319 1 2.15607 1.93728 2.21805 -0.564071 -0.359885 -0.815977
320 1 2.9218 7.49656 3.61522 -0.269843 0.104257 0.671477
321 1 0.39387 2.75819 0.354908 -0.323108 0.037775 -0.64203
322 1 4.17146 9.09107 7.28292 0.177266 -0.721236 -0.925038
323 1 9.23413 2.28907 1.36195 0.423869 0.316842 0.225903
324 1 2.43902 6.67832 8.44374 -0.275789 -0.895688 -0.724471
325 1 8.20563 6.52511 0.603782 -0.451191 -0.376538 -0.639665
326 1 4.63954 2.36297 3.65113 -1.71978 -0.00394778 -0.0995894
327 1 2.39373 2.52404 1.15586 -0.214934 0.469965 0.939104
328 1 8.04125 3.50921 4.23094 -0.586239 -0.445299 0.972562
329 1 8.41783 8.62779 0.555877 0.603191 -0.608886 -0.622973
330 1 4.66706 3.83888 1.26452 -0.645142 -0.360503 0.878656
331 1 9.39562 0.602477 6.29843 1.24427 0.565752 -0.683825
332 1 1.71391 2.65563 6.5051 -1.33927 -0.45126 0.534728
333 1 0.511212 3.24943 1.31905 -0.420003 -0.339809 -0.63602
334 1 2.5822 5.59987 5.69231 1.30446 -0.188959 0.282243
335 1 7.8703 5.63142 0.344265 0.605812 -0.320611 0.622592
336 1 7.30688 5.35387 3.68509 -0.186082 -0.310968 0.160668
337 1 9.03057 0.223191 2.33356 -0.145689 0.214973 -0.781342
338 1 4.66474 0.942494 4.54948 0.17094 0.418808 -1.282
339 1 6.89474 5.54265 0.831439 -0.550757 -0.331887 0.366279
340 1 3.33637 7.15779 7.14471 0.178228 -0.0206597 1.67049
341 1 5.90924 7.23864 8.57748 0.901703 -0.187936 -0.0695275
342 1 8.91624 2.39262 5.20709 1.49166 -0.695941 -0.491163
343 1 3.81708 7.73059 3.10954 0.507877 0.400937 1.09595
344 1 1.45109 4.61198 7.56962 0.332409 -0.11191 -0.699905
345 1 9.28903 4.977 6.04403 0.169781 -0.572069 -0.140528
346 1 8.76274 3.40706 9.1704 0.430419 -0.244419 -0.536919
347 1 7.15872 5.50128 8.31287 0.478794 0.247758 -0.31727
348 1 7.78851 0.85105 3.11088 0.216328 0.603554 0.148896
349 1 3.77641 2.77436 2.09326 -0.637371 -1.96102 -1.80403
350 1 2.30357 3.59661 6.31935 -1.50022 -0.482484 0.80745
351 1 5.76299 0.232725 0.802334 -0.653445 0.0363709 0.63474
352 1 5.9704 5.61044 7.21029 -0.197892 -0.847387 -0.214411
353 1 8.48205 7.46234 6.1247 -1.26871 0.937859 0.941615
354 1 1.557 6.45714 7.91299 0.301231 -0.069283 1.35643
355 1 9.26212 7.63343 3.36739 0.179495 -1.11094 0.426048
356 1 7.203 2.56743 5.89744 0.571444 -0.562402 -1.12916
357 1 0.960789 5.61383 5.92206 -0.702284 0.535372 -0.199277
358 1 4.46298 2.89458 5.53832 0.426399 -0.0152666 0.969398
359 1 0.629072 6.00877 7.67467 -0.673557 0.0956747 0.513653
360 1 5.80282 1.74242 1.10842 0.924518 0.548734 0.337322
361 1 8.34736 0.529172 5.99795 0.691653 0.103245 0.0228781
362 1 1.77034 9.02952 5.86276 -0.166811 0.528685 -0.0102414
363 1 9.232 5.57549 1.73783 -0.185236 0.264492 0.891899
364 1 0.600335 3.21121 4.12196 -0.833582 0.0178485 -0.428675
365 1 4.60909 6.47196 8.49594 -0.0455609 -0.256811 -0.862361
366 1 2.0036 1.02099 1.74293 0.297587 -0.237225 -0.720047
367 1 9.13267 3.19136 6.11651 0.1672 -0.744431 0.613751
368 1 4.01489 7.01193 5.44416 0.874432 1.34225 -0.176767
369 1 9.02755 8.04903 2.4444 0.476553 0.913515 -0.913055
370 1 1.25759 1.53716 2.51369 0.00760869 1.12553 0.588709
371 1 0.151725 0.329469 4.33372 -0.0222226 -1.07351 -0.194721
372 1 5.84293 3.65034 5.46672 0.206188 -0.159884 -0.0839214
373 1 6.63802 1.69138 6.24194 1.07034 0.125243 0.283107
374 1 8.09501 0.652208 2.12966 1.02257 0.547315 0.0161983
375 1 3.17109 7.03046 9.16696 0.502829 -0.169844 1.04404
376 1 5.20236 4.75292 0.879625 -0.680086 1.69855 -0.526573
377 1 5.99906 8.46895 6.93007 0.521189 0.641282 0.0223393
378 1 3.06159 6.1825 2.08166 -0.873689 0.279869 0.449283
379 1 8.13609 6.09801 2.33536 0.575545 0.29272 -0.349611
380 1 8.30149 4.68821 7.09581 0.432175 -0.539097 -0.560658
381 1 3.5863 3.17226 8.69522 0.827586 1.02462 0.637792
382 1 5.13414 0.804259 5.53747 0.5061 1.18655 0.254296
383 1 2.55672 8.92557 1.70878 0.870279 -1.04684 -0.727394
384 1 3.04781 8.78965 5.29884 0.520948 -0.91152 -0.719361
385 1 4.96639 7.29069 9.26189 -0.559188 -0.694478 -0.994258
386 1 3.41103 0.0414225 4.68678 0.123147 -1.17975 -0.49372
387 1 8.9971 2.44048 2.41162 0.0773345 -0.111324 0.0523109
388 1 2.52269 1.24279 9.25858 -0.570405 0.298523 -0.531781
389 1 5.42023 2.09123 7.04813 -0.333655 0.0567512 1.0542
390 1 2.3911 5.0184 3.89706 0.435578 0.600607 0.777235
391 1 7.43405 7.91097 3.91819 0.591833 -0.405716 0.180345
392 1 2.97108 5.99739 0.25971 -0.837747 1.23175 1.41437
393 1 4.25989 9.35361 4.1555 -0.288372 -0.381658 0.0123689
394 1 3.82013 3.84682 3.77203 -0.0485959 0.60615 0.592422
395 1 6.53316 0.927125 0.993523 -1.08687 1.17168 -0.289429
396 1 3.043 1.98418 8.74389 -1.08329 0.10872 -0.330366
397 1 6.42479 5.82794 3.3767 0.695146 0.800838 0.229522
398 1 8.12659 4.70173 9.05856 -0.663706 -1.06651 0.114498
399 1 7.33778 1.70573 4.31189 -0.953663 -0.428068 0.692137
400 1 8.66719 4.53358 5.10985 0.562205 -0.632756 -0.728044
401 1 5.53641 6.2517 8.87715 -0.616065 -0.79162 -0.0173725
402 1 0.849235 5.03725 4.34456 0.110791 0.339165 1.07616
403 1 0.127687 3.4942 2.37543 -0.0961614 -0.753049 -0.347059
404 1 1.97396 0.117412 2.21565 0.659989 0.275514 -0.0883117
405 1 1.91554 5.02585 6.37056 0.824197 -0.114034 -0.694121
406 1 4.91709 1.2053 1.06905 -0.00356618 -0.525678 0.378001
407 1 6.11393 8.93736 2.88957 -0.646689 -0.142164 -0.894372
408 1 1.34412 1.88123 1.57108 0.128208 1.05617 -0.714852
409 1 8.65671 7.29394 5.01171 1.15133 0.731152 -1.08902
410 1 5.28384 4.31947 8.73573 -1.16585 -0.189669 -0.570921
411 1 5.93312 3.96037 2.50399 -0.195869 1.51648 1.13861
412 1 2.9551 5.39377 2.67879 -0.265186 -0.568184 -0.194289
413 1 1.47223 8.24415 8.74274 0.609655 -0.332541 0.487548
414 1 8.0075 8.13437 1.72117 -0.260727 0.0484093 0.669317
415 1 7.73857 8.1877 9.15163 0.23432 0.963199 0.326502
416 1 8.63046 7.5469 1.00522 0.136641 -1.06771 -0.897194
417 1 8.26638 2.36401 1.61619 -0.407899 0.276631 -0.106561
418 1 5.64205 2.03294 8.93829 0.665379 -1.11735 -1.06214
419 1 2.68774 3.25348 3.56846 0.595292 -0.713188 -0.911444
420 1 8.08956 5.73356 8.74056 -0.394683 -0.230265 -0.0912362
421 1 1.37469 8.03452 7.38748 -0.121299 -0.40755 -0.721384
422 1 6.73554 0.841763 4.58297 -0.124805 -0.0443052 -0.288079
423 1 7.55441 5.07644 1.61763 -0.0551045 0.182864 0.520001
424 1 4.30644 3.24466 3.05379 -0.126544 1.25207 0.0535398
425 1 8.28844 4.36638 3.46875 -1.1412 -0.32136 -0.71169
426 1 0.452056 2.1123 7.67659 -0.00591136 -0.253456 -0.275085
427 1 7.89248 3.23653 2.03273 0.00143768 -0.612198 0.427926
428 1 1.10026 7.97546 3.34306 -0.890675 1.046 -0.479805
429 1 5.40028 2.64351 8.01202 0.764524 0.110014 0.19199
430 1 7.57033 1.97914 3.31906 0.52047 -0.974369 -0.0189231
431 1 0.0884168 5.09258 7.13803 0.0708645 0.391447 -0.107595
432 1 1.47775 7.60151 2.04368 -0.260481 1.08185 -0.42653
433 1 7.94106 3.93118 5.3496 0.523198 0.327912 -0.654566
434 1 0.0626303 2.91552 3.27498 -0.250529 1.24778 0.786395
435 1 7.02078 8.23587 4.76916 0.837614 -0.464783 -0.938139
436 1 0.684414 7.92104 8.12429 0.404135 -0.452336 0.353329
437 1 2.68048 4.50761 2.05011 -0.50925 0.366481 1.35327
438 1 2.15667 6.78199 2.0233 -1.07532 0.188874 0.624078
439 1 4.51398 2.29446 6.52457 0.284067 -0.0280743 -0.113111
440 1 1.01813 0.66175 1.83174 -0.711199 0.395298 -0.328629
441 1 5.26994 2.97892 8.9154 -0.544234 -0.768117 -0.79938
442 1 3.18644 9.28584 6.98279 0.230014 0.0723537 0.23257
443 1 1.367 3.84195 1.18156 -0.319258 0.173514 -0.163944
444 1 8.13709 3.62481 6.63097 1.5072 -0.0711453 -1.2635
445 1 0.15417 8.06503 7.1468 0.392952 0.242365 -0.879327
446 1 8.02515 1.8526 7.97744 -1.47315 0.982654 -0.270103
447 1 8.85314 3.31519 1.48751 0.556784 -0.79552 -0.339015
448 1 0.562211 7.48698 2.58819 0.1125 0.785114 -0.0879611
449 1 6.15 0.622021 3.02939 0.645423 0.398669 -0.0298472
450 1 1.98001 0.607833 0.360145 0.331059 -0.172769 -0.679683
451 1 8.98232 4.49095 7.85024 0.98489 1.1293 0.877569
452 1 0.373934 6.39542 2.24179 -0.107751 1.89704 0.239725
453 1 4.68108 1.09836 0.0626786 0.358621 -0.170536 0.342629
454 1 2.65492 6.52569 1.06296 1.17037 -0.331382 0.351096
455 1 2.68 8.13067 4.35157 1.01341 0.192609 -0.208209
456 1 2.16089 5.64336 7.1676 -0.203574 -0.527235 0.325941
457 1 6.9013 3.97621 5.11037 -0.187965 0.992678 0.359489
458 1 0.936372 8.34186 5.54924 -0.566959 0.2068 1.78414
459 1 6.82567 1.68004 5.25981 -0.105172 -0.728967 0.308061
460 1 1.81553 3.25933 5.51756 -0.138696 -0.746217 -0.447945
461 1 0.420187 3.00751 5.25725 0.00616524 -0.312821 -0.0538695
462 1 6.2456 7.10719 2.20061 -0.367928 0.487888 -1.04377
463 1 1.36833 2.44263 0.582077 0.0250935 0.145235 0.953098
464 1 0.0606803 8.16316 0.506441 0.23863 0.321082 0.00709192
465 1 8.6603 7.31397 7.12469 0.22326 0.632111 -0.0854603
466 1 1.73607 0.259498 7.59423 -0.719714 -1.12903 -0.32703
467 1 4.56735 1.96954 8.81545 -0.929949 -0.57789 -0.525651
468 1 7.37151 6.90857 6.12384 0.491677 0.0264784 -0.355809
469 1 9.07516 1.59515 4.52238 -0.784013 -1.46355 -1.56031
470 1 0.0788234 7.67216 4.45068 -0.800217 -0.418727 -0.0942746
471 1 0.318915 9.16564 1.36088 0.843472 1.17187 -0.0714066
472 1 7.84273 2.18103 5.17623 -0.303564 -0.593909 -0.546015
473 1 6.56955 3.99252 7.07958 -0.827658 0.299585 -0.669353
474 1 2.73422 8.52673 6.28103 -0.465549 -0.144367 0.592403
475 1 8.80542 0.3261 1.29637 -0.337944 0.144951 0.233562
476 1 2.43612 4.37635 7.11353 -0.473897 -0.0386301 0.257372
477 1 2.30956 9.24945 4.69749 -0.511801 0.0675128 0.337709
478 1 4.20645 7.65569 0.410856 0.0491144 -0.0145165 0.366267
479 1 0.478071 4.04864 7.38514 -0.927991 1.17635 -0.100525
480 1 0.967108 6.90247 0.393971 -0.33867 1.86646 0.49305
481 1 6.02683 2.70374 1.47259 -0.151974 -0.742751 0.84641
482 1 4.16042 3.70449 2.12446 0.188651 0.154377 0.42786
483 1 3.03981 5.23775 6.76897 1.06067 -0.28378 0.415068
484 1 2.1441 0.99641 2.77341 -0.207248 0.112807 0.711346
485 1 9.14389 6.26623 8.47174 -1.19132 0.430363 -1.00749
486 1 7.72069 7.31242 0.192521 -0.410058 -0.521125 0.238272
487 1 7.6552 7.94895 6.43817 -0.650345 0.5754 2.0684
488 1 8.61487 5.63188 6.4987 -1.08457 -0.334169 0.766736
489 1 8.60054 0.2893 8.20525 0.474863 0.571839 0.545312
490 1 5.12256 9.27493 2.7535 0.0541401 -0.0514502 0.086278
491 1 4.27641 9.07363 2.24716 0.723993 0.308706 0.245164
492 1 2.84956 2.33854 3.06952 0.13038 -1.58948 1.05347
493 1 0.800907 4.60273 6.44775 -0.322915 0.067707 -1.3112
494 1 4.4635 1.72185 5.36968 -0.700685 0.0756569 0.488516
495 1 2.93011 1.60432 4.67982 -0.690554 0.426978 0.554632
496 1 2.95714 3.08336 7.01218 0.0876263 0.144816 0.515189
497 1 2.05394 3.4785 7.37829 0.0797201 -0.297963 -0.0443807
498 1 1.92949 3.46555 4.37961 0.155935 -0.230558 -0.612915
499 1 4.91396 9.04774 8.47446 -0.0813688 -0.230423 0.353559
500 1 6.16319 1.94629 7.92226 0.126814 -0.168074 -1.29402
501 1 4.88301 5.25595 3.35932 0.321848 -0.165824 0.0224716
502 1 0.356387 1.41659 6.96614 -0.610615 -0.82616 -0.13709
503 1 5.4665 1.05333 7.09062 -1.45715 0.656618 1.37406
504 1 6.92942 6.25973 6.82378 -0.511597 -0.420609 -2.07124
505 1 4.92739 4.45694 5.79793 0.0593879 -1.54945 -0.485989
506 1 8.84501 6.97091 2.6415 -0.189982 0.479748 -0.233939
507 1 0.28213 1.85116 2.97709 -0.755139 1.0195 -0.576838
508 1 5.21796 0.461563 1.68742 0.4008 -0.0115698 0.171237
509 1 5.22385 1.56556 8.00071 1.16439 0.94829 0.850353
510 1 1.28925 6.65527 2.5251 -0.130781 0.140611 -0.729517
511 1 8.83286 0.998978 3.07229 -0.19378 -0.470189 1.42008
512 1 8.67343 4.09011 2.54638 -1.05924 -0.659873 0.487313
513 1 8.46885 5.08496 2.1095 1.22398 0.540467 -0.588205