ITEM: TIMESTEP
51750000
ITEM: NUMBER OF ATOMS
1000
ITEM: BOX BOUNDS pp pp pp
0.0000000000000000e+00 9.4000000000000004e+00
0.0000000000000000e+00 9.4000000000000004e+00
0.0000000000000000e+00 9.4000000000000004e+00
ITEM: ATOMS id type x y z vx vy vz
1 1 8.53306 6.98164 2.63277 0.902858 -0.087576 0.141072
2 1 5.51049 6.17064 0.370911 -0.560413 -0.227391 -0.153496
3 1 3.98078 3.18356 3.61651 -0.770195 0.404127 1.40888
4 1 2.16167 6.95384 3.22865 -1.60401 -0.687814 0.25546
5 1 0.766148 0.229616 2.56291 1.181 0.295031 -0.0979042
6 1 5.64286 7.9987 4.55468 -0.309839 -0.928967 0.285193
7 1 3.63951 8.82149 2.01059 -1.04256 -0.857529 -0.44152
8 1 3.73551 0.62414 7.25696 0.0451314 0.180557 -0.73884
9 1 1.96772 6.64873 5.20365 -1.63129 0.969769 -0.488474
10 1 1.53675 5.77725 2.35759 0.694302 -0.343269 0.252683
11 1 5.74517 0.677234 4.79368 0.128925 -0.626769 0.824063
12 1 8.89433 0.293836 0.27679 -0.979241 -0.421086 -0.306859
13 1 1.66193 1.60982 1.86134 0.126568 -0.114216 0.461731
14 1 4.36855 3.93303 4.64233 0.329199 0.656847 0.7475
15 1 0.837843 9.20334 7.38848 0.430444 -0.605689 0.449329
16 1 1.43664 0.148166 6.51475 -0.115877 -1.28978 -1.24743
17 1 7.21032 4.30303 0.578257 0.976033 0.209794 0.131576
18 1 3.7897 6.1209 8.6309 -1.26653 -0.309454 0.170143
19 1 2.95901 4.59256 7.71326 -0.234793 -0.131586 -0.0331495
20 1 9.14877 5.75473 8.16736 -0.251963 -0.213406 0.506799
21 1 9.31399 9.21139 1.16725 -0.00931779 -0.395702 -0.77112
22 1 8.08511 4.66364 9.32594 0.575177 -0.421076 -0.833694
23 1 5.58519 1.93302 0.819437 0.396293 -1.01232 -0.140891
24 1 3.0835 6.92532 5.35995 -0.803761 0.99614 -1.66577
25 1 7.02041 3.1719 1.61063 0.0757702 -0.573331 -0.278608
26 1 8.94489 3.75901 4.48521 0.114374 -0.574848 0.940749
27 1 0.72045 7.38245 1.85054 -0.215618 1.32786 0.365799
28 1 6.35507 2.64299 0.966494 -0.960245 -0.176592 0.0221749
29 1 1.39554 3.86512 4.95481 -0.135099 0.899663 -0.316651
30 1 0.243568 3.62699 6.42008 0.768842 0.171749 1.03292
31 1 2.51351 1.39944 1.01479 0.506176 -0.292707 -0.277045
32 1 8.46795 3.56195 6.50387 0.0561148 -0.0487143 0.589468
33 1 6.37153 8.38978 1.08577 -0.758545 1.15682 1.20987
34 1 5.22861 0.0240033 3.27625 -0.971665 0.296935 0.41402
35 1 3.45498 1.04743 2.57027 -0.657451 -0.694163 0.0288234
36 1 3.61093 2.99704 1.5888 -0.635277 -0.258288 0.328287
37 1 6.0603 7.48458 8.99536 0.371363 -0.11447 -1.14982
38 1 0.50482 0.622249 1.0001 0.250205 -0.682272 0.131626
39 1 5.29733 7.22093 0.273228 -0.374835 -0.642458 0.0720095
40 1 7.9055 0.0437333 0.603647 -0.317509 0.403852 -0.70897
41 1 6.81714 8.99673 5.76514 -0.689832 0.330226 0.3665
42 1 8.56711 0.610491 5.12303 0.123593 0.177587 0.767673
43 1 2.03284 9.18329 5.74249 0.659523 -0.0787229 -0.124029
44 1 1.61596 2.39337 6.32095 -0.675366 0.252395 -0.353111
45 1 8.20901 1.96685 0.0776379 1.263 0.601289 -0.668633
46 1 8.68146 6.29871 3.36205 -0.0435459 0.40423 -0.0333779
47 1 1.51983 5.5194 9.24827 -0.690358 0.128969 0.670015
48 1 6.56685 6.44909 2.21679 -0.510362 1.00644 0.45588
49 1 3.11001 4.21471 6.74942 -0.127758 0.312289 -0.39685
50 1 1.67427 5.61872 5.68931 -0.139707 0.270039 0.630543
51 1 1.2204 5.34963 1.4939 0.473718 -0.171353 -0.915417
52 1 4.57363 1.20101 2.40683 0.138859 0.172493 -0.0750381
53 1 2.77025 1.19407 3.48528 0.783012 1.41593 -0.427796
54 1 8.78551 6.4213 0.704044 -1.05253 0.654356 -0.0857297
55 1 1.88527 4.69276 7.30752 -0.497586 0.551917 1.02516
56 1 0.639273 3.6908 7.70821 0.766728 -0.206491 0.818961
57 1 2.51528 5.55514 7.78487 -0.463136 0.659811 -0.64671
58 1 5.88363 6.32256 1.39188 -0.245769 -1.02085 -0.0801686
59 1 7.26873 7.96669 7.4262 -2.00759 -1.66567 0.860685
60 1 1.83143 8.78226 4.01377 0.770712 0.193379 -0.598792
61 1 2.7426 1.68887 2.00144 -1.02529 0.524517 -0.909177
62 1 3.02536 7.99194 1.64537 -0.0550224 0.143313 0.548652
63 1 7.24673 1.26877 5.95001 0.193212 0.0306356 -0.234671
64 1 1.8042 7.42846 1.59736 0.398028 -0.410197 -0.608039
65 1 8.31085 2.97866 4.09668 -0.0476561 0.240811 0.724549
66 1 3.16416 0.40506 5.15261 1.48655 0.328015 -0.0983433
67 1 4.46502 8.89053 2.7017 1.08064 0.0560285 0.382654
68 1 5.02474 7.82378 7.66643 -0.218586 0.160582 -0.385977
69 1 7.32064 4.65601 2.88812 -1.30967 -0.46972 1.12749
70 1 7.29531 3.83314 4.25565 0.421598 1.14431 0.606113
71 1 7.61051 3.70638 8.78604 0.890697 0.282685 0.605558
72 1 5.50052 1.49211 4.16352 0.157564 0.0349484 -0.217553
73 1 2.51349 8.21217 5.4631 -0.386587 1.72649 -0.483631
74 1 5.77533 7.16706 2.32981 -0.318399 0.3227 0.739203
75 1 7.36118 1.74515 6.93556 0.16289 -0.188941 0.302052
76 1 6.77068 0.71764 1.56544 -0.102525 0.361301 -1.09002
77 1 1.43734 4.19357 3.95143 0.0824117 1.68923 -0.0917579
78 1 1.35664 6.80287 2.51012 -0.27064 -0.457517 -0.0631326
79 1 6.367 1.03678 6.71731 0.483761 0.715768 0.129949
80 1 9.25984 7.33479 8.67808 0.711763 0.540941 0.0418132
81 1 1.64166 8.11739 6.09333 0.380474 -0.757819 0.323832
82 1 4.95162 8.46274 3.71713 -0.228293 0.726483 -1.10425
83 1 5.4484 5.08524 5.13684 0.290113 0.600393 -0.116976
84 1 0.881013 6.38964 5.61386 -0.788553 0.00519044 -0.504116
85 1 1.33278 1.88771 8.18386 -0.942323 -1.18797 -0.527244
86 1 4.45327 1.50238 0.344947 0.862628 -0.804043 -1.20395
87 1 5.13727 3.65271 2.3536 0.422563 1.23109 -0.898991
88 1 9.24796 0.873072 7.05466 -1.47219 -1.01692 -1.77933
89 1 2.15727 4.96608 3.94526 -0.660439 -0.120705 -0.406895
90 1 5.30268 3.72668 0.669615 -0.21275 0.00827617 -0.605267
91 1 7.32418 6.43294 5.92486 -0.901701 -0.205475 -0.982699
92 1 7.40738 8.77465 8.46488 0.12992 -0.893627 0.380197
93 1 2.52365 9.02631 4.87423 0.950671 0.241642 -0.0298083
94 1 0.46366 6.67111 3.87608 1.08056 -0.197593 -0.0519675
95 1 8.90433 7.01212 4.14401 -1.02233 0.0074145 0.137391
96 1 5.45634 8.69109 7.12284 -0.0725065 -0.102486 0.171834
97 1 1.54011 3.22481 1.19439 0.683576 0.651944 0.470638
98 1 5.60247 8.15502 1.76134 -0.16546 0.702547 -0.435288
99 1 2.46525 0.453186 4.34291 0.500193 0.555637 0.623165
100 1 6.40604 8.54644 4.89554 0.132737 -0.699506 -0.749592
101 1 3.97465 5.6229 3.94639 -0.790339 0.935663 -0.741757
102 1 3.79304 8.02971 2.55069 0.7187 1.13326 0.426708
103 1 2.81625 8.82926 3.75149 -0.780333 -0.0985406 0.426209
104 1 2.31005 7.99651 3.49494 -0.792591 -0.562165 0.97602
105 1 7.92994 1.31978 4.50406 -0.0100836 -0.0931715 0.145615
106 1 8.32071 0.391578 6.8272 -0.232906 -0.947191 -0.240496
107 1 6.84701 6.88691 1.27349 0.447788 0.0741208 -0.892919
108 1 9.04596 2.54903 3.44073 1.12044 -0.653219 0.389693
109 1 6.18194 3.45057 2.26366 0.157948 -0.466024 0.0928717
110 1 0.0368828 4.42847 7.16934 0.231033 -0.923904 -0.458089
111 1 7.58462 5.14122 7.48906 0.214228 0.884406 0.521955
112 1 6.68135 0.205305 0.651808 0.113257 0.854419 0.690444
113 1 5.06331 4.3805 8.4635 0.0563669 0.679587 -0.569434
114 1 0.728564 1.24951 1.7926 -0.518598 1.62933 0.74372
115 1 5.98471 0.803771 3.63069 0.0930373 -0.261416 -0.709573
116 1 5.2213 2.73152 8.29375 -0.0522454 -0.424775 1.695
117 1 7.30143 8.59176 0.468033 -0.153271 -0.0736557 -0.0103693
118 1 7.51736 2.28029 6.03212 -0.425796 0.194849 0.953026
119 1 4.77297 0.356248 7.4464 0.295 -0.731672 0.445864
120 1 0.919828 7.05493 9.11552 0.766237 -0.570067 0.60505
121 1 5.54875 9.13583 4.24645 1.12456 0.0724215 -0.707267
122 1 1.52006 7.92198 8.6976 1.36834 -0.490491 0.798091
123 1 2.22236 7.33851 5.91777 0.589777 -0.614157 0.297971
124 1 5.35191 1.21747 6.07239 -0.0480045 0.556538 0.510912
125 1 6.37262 6.51172 6.38939 -1.07541 0.0658515 0.12064
126 1 9.38699 4.41571 1.07832 0.308243 -0.963527 -0.803422
127 1 3.54312 8.7935 4.41644 0.34841 0.720714 0.407154
128 1 4.54017 5.76543 7.90617 0.404804 -0.0946852 -1.02276
129 1 3.82853 4.69492 0.277842 -0.111412 -0.859458 -0.999053
130 1 3.4523 0.352777 4.00323 -0.279406 -1.62282 -0.0464092
131 1 8.69949 2.11205 2.52942 -0.638404 0.563581 1.07228
132 1 7.55417 2.94682 4.93246 0.895758 0.0555943 -0.784048
133 1 6.68751 8.13272 2.13423 -0.51185 -0.31573 -0.261433
134 1 0.925274 5.8974 4.59952 0.479719 0.482265 1.05747
135 1 3.73622 8.98051 3.34531 0.267761 -0.151301 1.31667
136 1 8.93923 1.00748 6.12427 -1.13902 -0.0481214 0.512497
137 1 1.8349 4.75144 0.74504 0.547166 -0.873554 -1.0872
138 1 8.19092 2.9591 0.19952 0.379524 0.534771 -0.857332
139 1 9.14087 2.01349 5.70695 -0.209779 -0.603183 -0.242207
140 1 2.80446 4.25345 5.7503 -0.327912 -0.353792 -0.473703
141 1 3.72153 8.52285 7.88143 0.547976 0.298275 -1.86538
142 1 3.90318 2.10633 0.798208 -0.215418 -0.00460622 0.264993
143 1 4.56658 5.39275 0.637886 0.404992 0.204909 -0.415539
144 1 0.448107 3.31927 5.00372 0.604467 0.622021 -0.131258
145 1 8.35704 4.46894 0.892438 -0.325513 0.723232 0.693864
146 1 6.33003 1.06062 0.0746088 0.659091 0.725901 0.39887
147 1 5.78731 2.10943 6.44538 0.963322 0.40259 0.58919
148 1 9.01776 4.87573 8.94645 0.0860248 -0.872332 -1.32638
149 1 1.93755 8.90802 2.96083 -0.304236 0.0256952 0.400061
150 1 5.59466 0.762693 2.53892 -0.110844 -0.895172 -0.850424
151 1 0.0096485 0.00564517 5.2048 0.699286 -0.547467 0.194336
152 1 5.78912 0.0686057 0.139066 0.456352 -0.531097 1.48704
153 1 1.97677 6.42329 1.68972 -0.235401 -0.597369 0.496721
154 1 4.29164 7.43529 0.067071 1.28372 0.0561971 -1.14804
155 1 9.30439 8.78959 3.2598 0.00927212 -1.09952 0.46489
156 1 4.10644 7.28256 3.31265 0.0291947 -0.973602 -0.444845
157 1 6.28751 4.09168 7.22036 1.23089 -0.419302 -0.213894
158 1 2.33632 6.50101 8.45412 -0.0128728 -0.569849 0.0471749
159 1 1.57832 6.52609 6.51683 0.187827 -0.328009 -0.501211
160 1 4.37516 1.33187 7.70294 1.64689 -1.87919 -0.488392
161 1 1.32025 3.46846 6.14071 0.148886 0.902302 -0.270579
162 1 8.9052 2.24511 8.74607 -0.257014 -0.538756 0.327163
163 1 0.681361 2.96169 4.10242 0.398782 0.816713 -0.319387
164 1 5.00344 8.08482 0.877872 -0.531153 -0.935997 0.283771
165 1 6.43331 3.71392 0.905152 -0.582186 -1.06876 0.303445
166 1 5.03282 5.78165 3.747 0.00114258 0.215427 -0.284933
167 1 3.61613 6.87294 2.36731 2.76124 0.178599 -0.436127
168 1 6.54797 3.9939 9.05467 0.192998 0.159328 -0.891677
169 1 2.03858 6.5741 7.50843 0.127074 1.01629 0.508141
170 1 8.79501 3.69463 3.42461 -1.21675 -0.0856909 -0.66031
171 1 7.50814 7.22656 2.15382 0.89934 0.762376 -0.113054
172 1 2.97216 3.00699 9.08951 0.460267 1.1028 -0.210665
173 1 9.18394 5.33657 0.454681 0.442739 1.25164 -0.21534
174 1 0.561024 4.15489 5.63244 0.196349 0.45832 -0.00458777
175 1 6.97733 7.63198 0.338685 0.310868 1.17669 -0.147804
176 1 2.43981 9.16887 6.8077 -0.151916 -0.8649 0.012355
177 1 5.6587 8.44567 0.118571 0.738555 0.860337 -0.259704
178 1 7.04498 2.99059 3.67777 -0.287459 0.150159 1.31952
179 1 4.79062 0.262288 5.89592 -0.590577 1.54249 -0.205542
180 1 8.57569 9.11947 4.61188 0.944273 -0.419784 0.137083
181 1 7.78771 6.39752 4.11288 -0.537398 -1.71619 -0.439358
182 1 5.66752 3.07683 5.82688 -0.891421 1.82721 0.337128
183 1 2.29776 5.14468 8.75874 -0.561959 -0.866858 -1.87896
184 1 3.94151 0.232896 8.2923 -0.232313 -0.40211 0.395024
185 1 3.75121 6.53443 6.98965 0.845783 0.829074 -0.399185
186 1 2.76189 5.36242 5.36613 0.32193 0.516357 0.00568068
187 1 2.59798 1.44781 5.99115 0.741069 -0.559552 0.52487
188 1 3.36693 5.06954 1.14346 0.420142 0.354798 1.00063
189 1 4.1421 5.17414 2.93515 -0.390252 -0.167862 -0.145031
190 1 5.60093 4.29055 1.61798 -0.204409 0.211693 -1.33665
191 1 4.33688 5.26847 8.79367 0.0684112 -0.348458 -0.570253
192 1 0.32979 4.67449 8.11271 -0.245167 -0.487017 -0.0627218
193 1 3.34867 7.09852 8.55677 -0.723642 0.098271 1.55269
194 1 1.57083 8.70759 0.0638744 0.320573 0.013373 0.762111
195 1 7.47288 9.30687 3.62255 0.328637 0.141241 0.565379
196 1 2.38952 1.50982 4.59884 0.0229935 -0.184094 0.28895
197 1 6.85982 5.91586 8.12274 0.386825 0.0250548 -0.471823
198 1 2.67854 2.08759 0.191118 0.508884 0.64971 -0.465427
199 1 9.0205 7.5312 5.09078 1.11795 0.144815 0.952491
200 1 4.73533 8.74041 7.93045 -0.233158 -1.44955 -0.871755
201 1 4.94702 3.0135 3.30866 -0.0910108 -0.0412781 0.128461
202 1 8.60099 8.39467 2.62843 -0.788074 0.265527 -0.519287
203 1 5.38731 7.74845 6.66758 -0.333826 1.50488 -0.426871
204 1 5.39306 1.4022 7.14996 0.881186 -0.15589 -0.643658
205 1 5.37701 8.7118 5.21385 -0.0616939 -1.13406 0.147047
206 1 1.33262 2.15525 4.35849 -1.27558 -0.13701 0.391811
207 1 7.14574 3.27867 0.311013 -0.756087 0.0227549 0.337416
208 1 7.64581 4.70186 4.72242 0.33151 0.771326 0.753915
209 1 5.85707 0.334743 5.77741 -0.36242 -0.296879 -0.385592
210 1 0.295524 0.502168 7.99617 -0.803221 -0.503947 0.350428
211 1 9.39286 1.5265 1.1609 3.02245 0.880612 0.320208
212 1 6.6498 7.3913 2.883 -0.119391 0.859091 -0.258443
213 1 2.93438 3.00577 4.25865 -0.118107 0.566235 -0.743084
214 1 8.735 2.26324 7.53352 -0.131982 -1.26294 -0.00642914
215 1 3.13215 5.59687 3.33877 -0.831904 0.112813 -1.59032
216 1 5.34517 6.12134 5.68366 -0.112461 0.27208 -0.908063
217 1 3.49736 1.57264 6.99712 -1.82992 0.910202 0.337824
218 1 2.91511 3.71113 2.30588 1.15536 -0.536131 -0.616442
219 1 6.04772 3.19654 0.0929494 -0.806418 0.308477 0.433406
220 1 0.0849274 1.88064 6.92785 0.161991 -0.801587 0.106321
221 1 6.80606 0.516794 5.29959 0.981037 -0.0155496 0.469573
222 1 8.07773 5.22001 2.37697 1.03704 0.0345208 0.284024
223 1 1.35599 0.803675 8.26539 0.780387 0.710834 -0.784296
224 1 7.26546 6.89399 5.01971 -0.516578 -0.319449 0.955638
225 1 6.87825 4.57561 6.56711 -0.287742 -0.720702 -0.692843
226 1 0.850575 8.29778 4.02117 0.301147 0.321075 0.31299
227 1 4.92104 7.37422 4.11976 0.820339 0.249583 0.0937352
228 1 7.65432 2.5609 8.78345 -1.33955 0.476392 1.22535
229 1 3.07718 0.752559 1.64108 0.472682 -1.04298 -0.963671
230 1 3.77976 3.92437 7.56334 0.348467 -0.0514123 -0.593755
231 1 6.15494 6.0396 7.36557 0.303884 -0.347705 1.0677
232 1 8.92165 5.94264 2.30531 -0.611632 -0.328086 -0.180388
233 1 6.52269 7.77183 8.11976 0.734155 -1.07353 0.0216241
234 1 5.19498 9.17557 8.73593 -0.34062 0.0140894 -0.0813765
235 1 7.1859 7.18186 6.66865 1.442 -0.410345 0.853292
236 1 1.39745 6.08836 8.39262 0.60433 0.224515 -0.169214
237 1 7.18977 1.14098 0.549603 1.55668 -0.0973764 0.214777
238 1 6.27893 6.86647 0.398812 -0.422311 -0.8962 0.20126
239 1 3.79454 8.24612 6.04064 0.122017 0.301243 -0.753322
240 1 4.07256 2.65794 5.81113 -0.562656 -0.923031 -0.715042
241 1 3.32492 4.76769 2.27954 -0.148439 0.264155 -0.236117
242 1 7.69872 3.86145 2.09913 -1.04698 -0.0607722 -0.663866
243 1 1.92421 8.44095 1.0265 0.489699 -0.0153256 -0.496779
244 1 6.04704 7.19899 7.33079 0.572242 0.595245 -1.13672
245 1 5.74279 3.70855 3.19166 -0.413856 -0.923913 0.589486
246 1 0.501873 9.11256 0.157773 -0.162804 0.944 0.780794
247 1 4.57447 4.0112 3.41833 0.0194643 1.87757 -0.025317
248 1 4.18206 8.82374 5.25315 0.284419 -0.0387931 0.320247
249 1 2.30461 5.0111 6.25816 -0.942635 -1.22573 1.26153
250 1 4.75058 5.97018 4.78205 0.124549 -1.057 -0.632118
251 1 6.34101 1.86952 7.3554 0.559079 -0.533873 0.601682
252 1 0.388151 3.89335 3.80131 -1.14568 1.15458 0.974238
253 1 8.78436 5.24855 3.16866 -0.600966 0.254402 -0.74767
254 1 3.74037 1.96942 1.96131 1.10905 -1.17879 -0.671537
255 1 7.64104 2.58437 1.04321 -0.940808 -0.681587 0.153504
256 1 0.913408 2.81481 0.395799 0.685394 -0.0726085 0.209299
257 1 5.05177 0.660415 1.70477 -0.699766 0.0955248 0.592515
258 1 2.15733 8.37116 2.02317 0.710729 0.4006 0.420892
259 1 3.57275 5.4056 7.92731 0.871762 -0.304302 0.0701667
260 1 2.86076 2.42356 1.21972 -0.160888 -1.27289 0.00264295
261 1 8.12657 5.38875 8.37765 0.06442 0.325367 0.156632
262 1 3.79938 1.28708 8.6365 -0.854161 0.00571236 -0.143677
263 1 6.01279 4.50491 4.49356 0.170403 -0.596342 0.619421
264 1 7.12403 6.11624 7.05233 0.325602 0.79917 -0.198369
265 1 4.70614 4.83074 4.44173 0.704547 -1.29725 0.147414
266 1 5.38149 6.9138 4.92676 0.507821 0.61874 -0.856998
267 1 7.16625 3.2014 2.63158 0.205883 -0.630808 0.346585
268 1 4.80839 8.63301 6.20778 -0.771801 0.0895319 0.446421
269 1 2.66592 5.14543 0.331671 0.0227424 -0.18392 1.86074
270 1 9.25364 9.07124 2.24148 0.39919 1.18943 1.1749
271 1 5.94841 7.42326 1.21989 1.19162 -1.0934 -0.213002
272 1 9.28086 0.434221 3.20243 -0.719391 0.444533 1.00888
273 1 8.2133 2.94156 1.82307 0.174238 -0.110634 0.219878
274 1 5.43339 6.67466 6.66048 -0.0189517 0.0896563 -0.696428
275 1 4.96064 5.83573 2.63529 -0.886169 0.432596 1.11809
276 1 7.70581 7.09457 3.18794 -0.156808 -0.524497 -0.324514
277 1 4.4424 9.29726 3.99529 -0.650955 0.037202 -1.00551
278 1 1.43867 4.57939 5.81254 -0.39209 -0.0493667 -0.338573
279 1 1.55418 7.78102 2.59296 0.375966 -0.112141 -0.315499
280 1 3.14035 2.04274 2.87639 0.238534 0.0153048 0.500802
281 1 5.83813 7.62098 3.41398 0.759613 -0.806338 -0.377444
282 1 9.31687 7.63976 2.34877 0.546665 0.954852 0.488223
283 1 0.233299 7.67102 3.45466 -0.0319281 0.288372 -0.369526
284 1 6.33323 7.31117 4.68734 0.311661 0.20395 -0.120178
285 1 6.59563 8.17397 3.95347 1.30616 0.259704 -1.00758
286 1 2.9993 0.053826 7.70463 -0.379156 0.824813 -0.937001
287 1 2.6996 0.821203 6.96677 -0.311322 1.09696 0.235078
288 1 3.56598 7.5875 7.47999 0.258519 -0.0878561 -1.86668
289 1 7.09057 2.14769 3.06838 -0.78632 0.142239 -1.07397
290 1 3.0368 6.45955 7.71934 0.463525 0.0450067 0.29099
291 1 5.0702 3.5739 9.05935 0.631235 -0.425319 -0.397202
292 1 0.370137 7.76195 5.93191 -0.364893 -0.19216 0.390105
293 1 0.348639 1.95932 4.08096 -0.609217 -0.851447 0.179702
294 1 0.0708291 5.60874 7.11257 0.829109 -0.525769 0.265026
295 1 7.97535 4.4664 6.72475 0.778026 -0.397685 -0.185175
296 1 7.83047 7.33977 9.29321 0.730541 -0.181993 0.2158
297 1 6.22056 3.55207 4.14177 -0.969542 0.228825 0.742532
298 1 3.54951 6.16255 5.90748 -0.686297 -1.79016 0.314802
299 1 6.11363 6.69728 3.85961 -0.46048 -0.941853 1.51657
300 1 0.664103 4.65842 2.02522 0.686162 -1.20823 0.61161
301 1 2.19449 0.788866 5.2719 0.242203 -0.783582 -0.430663
302 1 7.74719 0.408398 5.76966 -0.599083 0.7206 -0.831952
303 1 1.34611 8.9485 2.12017 -1.37164 0.296937 0.887818
304 1 8.12453 4.61569 3.73156 0.699023 0.145882 -0.332863
305 1 2.0173 0.141991 0.926957 0.321734 -0.648857 -0.141316
306 1 5.248 9.19303 2.19096 -0.377011 -0.228866 0.842407
307 1 6.38519 9.15339 1.86843 -1.22344 0.411384 0.284075
308 1 0.921521 0.804287 7.12676 0.324905 0.549056 0.693751
309 1 8.8303 6.68669 7.97387 -0.39929 -0.53815 0.0953674
310 1 5.96708 5.01937 6.75288 -0.358693 0.905133 -0.497176
311 1 8.49561 6.54918 9.02038 -1.0296 0.548185 0.226269
312 1 3.72065 6.3743 1.41942 -0.102335 0.0602909 0.351723
313 1 7.70646 1.2675 1.75411 0.000545857 0.135253 0.302565
314 1 7.74051 5.57801 3.37195 0.543744 1.88613 -0.584417
315 1 4.30048 5.47297 5.6091 0.582721 -0.612926 -0.174453
316 1 0.589686 4.46753 4.67286 -0.989285 -0.27401 0.133306
317 1 9.08616 1.37466 7.90065 0.119905 -1.01426 -0.479129
318 1 0.0271705 5.9375 6.15704 -0.317348 -0.275694 0.0103857
319 1 1.82466 8.81496 8.16607 -0.727674 -1.92296 1.02926
320 1 4.5157 6.30868 6.33644 -0.169679 -0.223734 0.756716
321 1 0.652325 3.18417 2.04356 -0.237471 0.0145141 -0.73641
322 1 1.16805 7.37971 3.41979 0.695853 0.404073 -0.230362
323 1 3.45273 5.79638 2.33635 0.401983 0.254537 0.147328
324 1 1.72499 3.60789 7.42612 -1.60172 0.323876 0.674361
325 1 5.53041 5.26339 0.980939 -0.432017 -2.15318 0.216376
326 1 5.82076 2.11106 5.02183 0.47855 0.0195368 -1.03339
327 1 5.73506 0.0961239 7.76426 0.236817 -0.650797 -0.421372
328 1 6.71058 5.95213 0.643688 -0.649399 0.0283898 0.26864
329 1 0.111675 8.22638 8.38639 0.514455 -0.680598 -0.406461
330 1 3.6927 5.61795 0.312732 0.515009 0.0350779 -0.317245
331 1 3.90806 2.92441 4.63406 0.208685 0.97411 -0.714603
332 1 3.84623 1.61333 3.44903 -2.05144 -0.0238952 -0.63441
333 1 0.419678 4.79105 3.03849 1.04373 -0.541743 -1.80424
334 1 0.548801 6.75397 6.5242 0.44105 -0.0770131 1.1292
335 1 0.359414 2.26413 2.30376 -0.295992 -0.966898 -0.401669
336 1 8.12272 7.75796 5.49525 0.232207 -0.368831 -0.671113
337 1 7.87529 4.14247 7.77088 -1.24504 0.373479 0.602133
338 1 0.597091 2.75549 6.06708 0.309827 0.116751 -1.00338
339 1 0.833451 2.93088 7.02348 0.164283 0.623398 1.23731
340 1 4.58701 2.12308 2.81559 0.983193 -0.691463 0.178532
341 1 7.35067 3.09247 7.8382 -0.760172 -0.237615 0.487819
342 1 7.58721 5.30108 0.644917 -1.55752 0.000129828 1.10126
343 1 4.29574 6.54241 3.96892 -0.0177579 -1.16 -0.787933
344 1 0.626018 2.10853 5.18654 -0.845376 -1.19155 0.241956
345 1 7.30185 4.65763 8.59917 -0.233018 0.254437 0.0468349
346 1 7.68444 8.38113 2.22929 -0.408875 -0.706285 -0.536543
347 1 5.1273 4.08066 7.23983 0.685634 -0.493707 -0.462045
348 1 6.75146 2.76792 6.77048 -0.0173347 1.22056 -0.472648
349 1 1.30288 4.96619 8.40451 0.0666738 0.691587 -0.786172
350 1 2.82912 3.54605 7.82764 -1.10986 0.0484948 -0.291717
351 1 7.04568 7.20581 3.95477 0.635946 -0.800439 0.870081
352 1 4.13543 7.70057 8.41792 0.428579 -0.258122 0.0337273
353 1 8.01072 2.77671 3.12961 -0.368087 0.113156 -1.40059
354 1 8.89302 6.41795 6.82912 0.293773 -0.80329 -1.68974
355 1 0.655568 8.31766 2.71048 0.711031 -1.408 -0.0186785
356 1 5.37495 1.31447 9.32397 0.084569 0.641229 -0.387035
357 1 0.435966 2.55376 8.92726 0.591842 -0.332218 -0.481965
358 1 3.94892 7.19324 6.01086 0.457529 0.40363 0.292079
359 1 4.19548 6.84899 7.91225 0.498843 -0.628777 1.37793
360 1 2.39729 0.0363489 2.13108 -0.501283 0.556169 0.411302
361 1 7.17644 1.86601 5.02937 0.52462 0.762057 -0.253508
362 1 1.03787 9.05481 3.31926 -0.0621022 -0.574166 0.361955
363 1 7.85752 3.59158 1.10576 -0.674965 0.265156 1.71493
364 1 2.0141 1.31335 7.63282 -0.885636 -0.49865 0.237775
365 1 1.21404 4.18887 1.36333 -0.795508 -0.644439 0.474929
366 1 4.80311 8.95407 0.339946 0.0703795 0.257951 0.0166821
367 1 4.3008 3.7624 0.431387 0.451325 0.436667 0.634053
368 1 1.76132 3.07149 4.07052 0.427437 -0.550615 -0.724863
369 1 0.206527 7.01342 0.784088 0.765297 0.302378 0.819098
370 1 1.37363 7.06994 8.10261 0.00651889 0.698478 1.71238
371 1 3.33556 3.87485 4.66216 0.250903 0.673347 -0.389669
372 1 6.25074 0.946144 7.8196 -0.387221 0.242353 -0.738241
373 1 7.67767 6.21259 2.54852 0.437123 0.920669 0.81676
374 1 8.86155 8.49392 5.46361 -0.811905 1.25679 -0.0328604
375 1 4.74022 6.87826 2.31848 0.666958 -1.36567 -1.76074
376 1 6.59445 2.091 8.30942 1.84413 -0.197498 -0.470306
377 1 3.02795 7.05154 6.49327 0.28937 0.493962 1.11072
378 1 4.59321 8.20533 1.88666 2.02678 1.29139 0.233834
379 1 6.50578 3.61148 6.16261 -0.666088 -0.873133 -0.332786
380 1 8.9216 4.39212 6.20465 -1.46098 -0.766526 -0.380931
381 1 3.54738 2.97104 2.69153 0.487598 0.552563 -0.194266
382 1 4.67799 7.92186 5.2045 -0.334566 -0.0391288 -1.02581
383 1 0.114985 8.29529 7.38658 0.626112 0.106712 0.754199
384 1 2.75685 0.290538 3.08019 -0.234884 0.946369 -0.504833
385 1 5.00817 7.13545 8.53969 0.745021 0.639075 -0.719117
386 1 8.43489 4.22218 2.68926 0.150855 0.306293 -0.266864
387 1 8.3677 1.13385 2.61391 -0.419491 0.0869778 0.148732
388 1 6.21971 6.00864 9.05711 0.34934 0.638177 0.732636
389 1 5.52214 3.92193 5.22675 -0.754602 -0.0935737 0.480227
390 1 1.82764 7.53226 4.35716 1.25761 -0.141312 -0.317621
391 1 8.01711 0.821285 9.35345 0.305022 0.850193 0.383195
392 1 4.57824 3.55719 1.43585 0.370411 -0.730008 -0.033178
393 1 7.99377 7.22068 0.925986 -0.928196 0.348227 0.135074
394 1 8.93625 5.70572 5.12951 0.941715 -1.07966 -0.239418
395 1 8.90005 0.79088 8.72522 0.479892 0.982521 -0.547766
396 1 2.61068 3.41823 1.2517 0.70411 0.148828 -0.720418
397 1 6.79234 3.04683 8.7875 0.312257 0.454497 -0.574049
398 1 9.27998 2.41282 0.48305 0.0991205 -0.185676 0.500326
399 1 8.35776 1.16738 0.857945 0.148098 1.41699 -1.11937
400 1 1.00219 5.97926 3.21993 -0.00777686 0.169686 1.15179
401 1 4.53525 1.95669 8.67263 0.348034 0.275688 -0.206661
402 1 1.41039 2.57983 2.19394 -0.343511 -1.25816 0.911631
403 1 2.52372 4.385 1.49315 -0.57557 0.13013 0.0570086
404 1 4.47097 6.45939 0.531485 0.333902 0.756256 -0.0610507
405 1 2.10863 4.28809 8.15546 -0.340179 0.557904 -0.387737
406 1 4.55048 9.09273 1.40411 -1.33211 0.0690953 -1.53877
407 1 6.94113 0.0925613 7.68356 0.803064 -0.652961 -0.0315872
408 1 2.37362 1.0411 0.030254 0.571717 -0.667241 0.790406
409 1 3.22821 3.17401 5.42906 0.011721 -0.845161 1.16122
410 1 8.69555 0.278638 7.84408 -0.126511 -0.344693 -1.28084
411 1 4.91511 7.80798 2.87305 -0.310283 0.0819771 0.0766215
412 1 0.196291 9.09679 4.2753 -0.628087 -0.466493 0.0926568
413 1 2.95903 9.06781 1.31245 -0.664745 0.370565 -0.511391
414 1 7.27393 1.16959 7.90466 -0.190486 -1.5548 -0.555694
415 1 8.19861 8.91727 9.13796 0.0107384 -0.41503 -0.53425
416 1 0.466872 1.46678 8.52379 -0.967197 -0.920873 0.557636
417 1 5.0073 1.13868 3.36334 -1.12081 0.224138 -0.673952
418 1 3.42197 2.11143 4.14336 0.657986 -1.35446 -0.805422
419 1 5.97383 1.41263 1.83349 0.165741 0.665077 -0.380579
420 1 2.33572 4.59987 4.85681 -0.458394 1.11305 0.422619
421 1 6.61479 7.33533 5.78951 0.922916 0.167259 -0.718639
422 1 8.04538 3.79921 5.00752 -0.08783 0.0415038 -0.396413
423 1 7.41548 2.15854 4.10889 0.932258 -0.924184 0.661671
424 1 3.18798 6.69693 3.35327 0.715859 0.276229 0.383526
425 1 1.69555 1.13372 6.55887 -0.616364 0.878914 -0.764944
426 1 2.44839 1.92026 8.5968 -1.30904 0.926235 0.940258
427 1 7.21809 4.3204 5.58801 0.459024 0.280258 -1.72983
428 1 4.30933 8.28915 7.04608 1.53368 -0.746464 -0.0809087
429 1 6.62776 9.36735 4.35955 0.975366 -0.790554 0.127487
430 1 8.13115 4.94882 5.61965 0.433016 0.055532 0.363249
431 1 8.06761 1.73387 3.41287 -0.45475 -0.247812 0.273841
432 1 2.8242 7.48165 2.58428 -0.0621631 -1.59607 0.348432
433 1 1.62131 8.38591 4.95751 0.538306 -0.148788 -0.401393
434 1 7.35901 5.76925 9.05015 0.207613 0.688378 0.865564
435 1 7.37834 5.8672 1.47899 0.279991 1.16124 0.622986
436 1 8.44639 6.11505 5.94731 0.00291739 -0.522707 1.47476
437 1 6.18422 4.8862 2.88945 0.307718 -0.0799149 -0.118872
438 1 2.57556 6.34395 2.5817 -0.316461 0.10364 0.105052
439 1 3.41909 8.00921 3.61566 -0.531209 0.0727345 -1.44597
440 1 6.56104 4.97265 1.19629 0.169584 0.896275 -1.26544
441 1 6.46857 2.45444 2.1574 1.25636 0.277482 -1.06626
442 1 6.52127 3.62924 5.14942 -0.104002 0.0703029 0.73998
443 1 2.07252 4.06274 3.00628 -0.437051 -0.372834 0.233115
444 1 0.0753354 6.50275 4.86997 0.359274 -0.612564 -0.57158
445 1 6.80182 3.89147 8.06499 0.672254 -0.64039 -0.969606
446 1 8.36676 1.85488 6.53142 -0.929613 -0.947441 -0.790056
447 1 0.712528 5.97489 0.623815 -0.435916 -0.259058 1.72126
448 1 2.63938 7.18825 9.25994 -0.255875 -0.114575 -1.39919
449 1 5.17984 5.71936 7.05529 0.373751 -0.701826 0.170541
450 1 2.83452 8.02322 6.4159 0.229059 0.956195 0.23009
451 1 4.59165 3.50304 7.93993 -0.432879 0.644375 -1.77456
452 1 4.84836 6.15967 8.95344 0.0276998 0.243467 0.217524
453 1 2.27754 3.13432 5.83947 0.48606 -1.17525 0.858376
454 1 1.85953 7.70097 0.297605 -0.484128 0.338941 0.251812
455 1 0.492821 5.28206 5.4863 -1.47121 -0.25272 -0.551082
456 1 1.84886 3.65201 2.08522 0.567541 -0.749846 -0.973843
457 1 7.547 7.58713 8.35531 -0.938341 -0.0456744 -0.354949
458 1 2.0683 5.8138 4.59613 0.598637 0.213947 -0.190743
459 1 8.88435 4.09856 8.02396 -0.936368 -0.378341 1.14047
460 1 6.63869 2.63364 5.62359 -0.566049 -0.496496 -0.164462
461 1 8.69493 3.86157 9.02964 -1.03565 -0.396169 0.465698
462 1 4.16625 8.76353 8.86123 0.232643 0.337536 0.115946
463 1 3.24171 0.558544 9.08139 1.95502 0.331586 0.531518
464 1 7.50207 3.39992 5.9171 -0.168834 -0.0767134 -0.358624
465 1 1.0171 6.19673 7.40446 -1.13135 -1.07931 1.61437
466 1 5.41599 1.66269 8.31441 -0.822047 1.49456 0.659495
467 1 4.84149 1.90775 1.76655 -0.472528 0.523841 -1.66955
468 1 8.00242 7.51387 4.32407 -1.19559 -1.45726 -1.21599
469 1 6.30009 1.39765 5.56564 -0.537273 -0.248137 -0.147629
470 1 7.97116 2.72809 6.93604 -0.397801 0.171132 -0.126159
471 1 3.16565 2.4479 6.28249 -0.282312 0.00473972 -0.363111
472 1 9.21029 2.79232 1.48772 0.477669 0.339141 0.252458
473 1 3.44448 2.13392 8.21592 -0.955875 0.355101 1.32963
474 1 8.31536 0.350797 1.54288 0.2749 0.0739194 0.949097
475 1 1.46526 1.44051 9.13505 -0.436255 -2.18242 -0.76736
476 1 0.906649 9.08822 8.52486 -0.726828 -0.54608 -1.49171
477 1 1.11212 9.05481 1.04878 -0.291942 -0.559358 -0.373065
478 1 5.65178 8.28331 8.26307 0.3741 -0.583939 -0.0844842
479 1 1.70655 4.69118 2.14475 0.328423 -1.06615 0.793095
480 1 4.8445 0.598041 0.748575 1.04533 -0.772786 0.343645
481 1 3.68551 3.98363 2.98393 0.237338 -1.16461 1.4101
482 1 9.18399 3.23771 7.38383 0.346119 0.975022 1.00774
483 1 2.51125 6.6935 4.24989 1.05058 0.111818 -0.143548
484 1 4.87889 0.276166 4.90695 0.150839 0.742773 -0.129906
485 1 5.59386 5.78393 8.27151 0.29097 1.25216 -0.924796
486 1 6.55603 0.563283 2.76145 -0.0900114 -0.262874 0.0100705
487 1 6.84235 5.44169 2.31868 -0.00524343 1.86423 0.875619
488 1 6.97053 6.91059 7.68503 0.587095 1.00406 0.059234
489 1 0.487299 0.670273 9.26664 2.18399 0.641804 1.3288
490 1 2.77584 8.02947 4.41752 0.676675 -0.909996 0.812645
491 1 7.49167 8.11255 3.26042 -0.714524 -0.671492 1.26713
492 1 7.3622 0.708341 6.8758 -0.647147 1.96929 -0.239107
493 1 8.19123 1.48103 8.40216 -0.431041 -0.529699 -0.127574
494 1 4.9528 2.28697 5.62012 -0.566465 0.622921 0.181353
495 1 6.10451 2.77254 3.27683 1.1638 0.125881 -0.814113
496 1 3.65539 3.16939 8.34302 0.41897 0.0611832 -1.29695
497 1 3.49263 8.89935 0.232104 -0.571226 -1.10993 0.3209
498 1 7.81493 0.465524 8.36764 -0.0805376 -1.09173 0.437628
499 1 4.10347 0.337413 2.07722 0.434596 -1.1835 -0.0845333
500 1 4.88966 6.01228 1.53277 -1.34249 -0.132039 -0.758688
501 1 4.18683 8.09884 4.23154 0.259688 1.12037 -1.29517
502 1 1.45382 5.05586 3.10768 0.439364 0.36798 0.438494
503 1 5.0627 6.72713 3.29945 -0.333108 0.556465 0.324526
504 1 7.09507 2.23415 0.278274 -1.68608 0.211128 0.88186
505 1 9.37152 6.69147 1.76809 -0.181397 0.176642 0.3052
506 1 0.984511 9.11111 5.53835 0.130948 -0.588704 0.345717
507 1 8.69004 8.65464 7.7477 0.476974 -0.396193 0.378916
508 1 6.2321 9.17369 3.50023 -0.367597 -1.2465 0.172441
509 1 0.361797 7.27271 7.70546 -0.902549 1.19283 -0.0602906
510 1 8.36552 0.677051 3.76743 0.401117 -0.769694 0.459862
511 1 6.38101 6.38477 5.27055 0.42351 -0.0928962 0.0753357
512 1 0.761816 5.14352 3.94458 -0.0757132 -0.704813 -1.34284
513 1 1.27768 7.41975 5.29274 0.641309 0.463142 0.833908