ITEM: TIMESTEP
43830000
ITEM: NUMBER OF ATOMS
1000
ITEM: BOX BOUNDS pp pp pp
0.0000000000000000e+00 9.4000000000000004e+00
0.0000000000000000e+00 9.4000000000000004e+00
0.0000000000000000e+00 9.4000000000000004e+00
ITEM: ATOMS id type x y z vx vy vz
1 1 9.15167 5.3419 1.21753 1.35347 -0.422141 -0.208287
2 1 6.83149 7.22743 0.419453 0.466443 0.570307 -0.23778
3 1 3.91534 2.13051 3.4895 -0.457346 -0.436876 1.17743
4 1 4.99895 7.78002 1.69266 -0.0209138 1.37972 -0.949352
5 1 1.69962 8.81039 3.64191 -0.144763 -0.373806 0.0199268
6 1 7.34301 8.03467 7.28127 1.00734 -0.0913541 -1.35325
7 1 2.46577 0.288133 1.86002 -0.950224 0.0129222 0.0746476
8 1 4.90264 0.664815 6.73704 0.707907 0.658587 0.891271
9 1 3.02277 6.21538 5.3588 -0.368123 -0.0946317 -0.715306
10 1 1.92993 7.14086 8.94237 0.0793183 0.410731 0.576306
11 1 6.87311 8.86519 5.4086 -0.274848 -1.22934 -0.33623
12 1 8.36491 8.93035 8.55021 0.3055 -0.620608 0.278956
13 1 2.51202 3.28402 1.37785 -0.362053 -0.295744 0.652878
14 1 3.83088 3.60106 4.70715 -0.446888 0.711468 -0.0444134
15 1 0.298257 1.79171 9.34079 -0.560278 -1.14749 -0.26348
16 1 1.46373 0.864563 6.23656 0.298499 0.249378 1.17201
17 1 8.74619 3.20396 0.856185 -0.155045 -1.1395 0.665373
18 1 5.11219 6.65406 8.26459 -0.124515 -0.54536 0.312464
19 1 3.75641 4.85507 8.66273 0.123322 -0.264245 0.0934314
20 1 9.24439 6.0588 7.77162 0.281565 0.314284 0.0447514
21 1 8.66807 9.09775 2.34839 -0.734268 1.45192 -0.420133
22 1 4.64808 4.69456 7.88733 1.24332 -0.0746 0.354017
23 1 4.98895 2.57573 0.212572 -0.42948 0.361922 0.0665046
24 1 3.11999 7.06687 6.46815 -0.588825 1.4011 -0.323276
25 1 6.30974 1.5513 1.16769 0.906835 0.0673394 0.814728
26 1 8.63613 3.48041 3.66634 1.35264 0.708016 0.900905
27 1 9.14883 7.2316 0.910286 1.05289 0.605525 -0.886092
28 1 4.0392 2.09635 0.548954 -0.318184 -0.250732 0.371635
29 1 0.092492 5.23826 5.99768 -0.550043 -0.637501 -1.04076
30 1 0.720456 4.30323 5.95073 0.835231 -0.172969 0.0125229
31 1 2.30208 2.52327 0.2053 2.21467 0.849964 0.115742
32 1 8.00182 4.75616 7.189 0.251952 -0.300785 0.450091
33 1 4.39611 8.42171 8.83965 -0.0973431 0.515374 0.434668
34 1 5.39516 0.189467 3.61632 -0.463824 1.49999 0.278854
35 1 0.0342831 2.15524 0.975993 0.696877 -1.42422 -0.140484
36 1 4.54194 0.443725 2.99583 0.216952 0.253478 0.427314
37 1 5.33535 8.5474 9.1827 -0.408087 -1.12956 -0.0276381
38 1 0.943326 8.27895 3.02564 -0.460148 -1.66979 -0.13749
39 1 1.64314 8.04061 8.21983 0.12898 -0.1854 0.966181
40 1 7.06149 1.93527 8.59337 -0.689599 0.430561 0.338543
41 1 6.49924 7.3088 5.78068 -1.63652 -2.09187 0.695299
42 1 1.38261 0.965846 5.11602 -0.685778 -1.29873 0.523234
43 1 1.59691 9.09948 8.05967 -0.323101 -0.191966 -0.722737
44 1 1.18817 2.67656 5.65819 -0.370316 -0.935275 0.582603
45 1 6.85511 3.71264 2.56542 -0.126936 0.78402 -0.858869
46 1 2.39258 4.18765 3.21688 -0.810493 -0.578597 -0.195347
47 1 1.0846 6.00432 0.506436 -0.38082 -0.236064 -0.492877
48 1 6.58001 5.22292 3.97257 -1.21036 -0.190401 0.654887
49 1 2.5867 4.0665 5.95311 0.109933 0.283617 0.119968
50 1 1.45915 7.51324 4.97266 -0.362924 0.933978 -0.618098
51 1 1.59004 6.12265 2.76418 -0.532472 -0.376889 -0.457729
52 1 4.55257 1.39279 3.32154 -1.0841 0.491413 -1.03361
53 1 3.14206 1.61998 4.03767 0.91836 -0.0564864 -0.267595
54 1 6.99005 6.28976 9.25858 -0.70588 -0.891307 -0.574162
55 1 2.22856 6.07881 8.70623 -0.585819 1.51081 -0.400317
56 1 0.436503 4.44727 9.05353 0.823403 -0.477647 -0.47176
57 1 0.677952 5.48903 7.57067 -1.87306 0.300895 -0.381755
58 1 5.79454 6.70528 9.34619 0.337457 0.405224 1.04385
59 1 8.4526 8.48336 7.41295 -0.370346 -0.551766 0.564895
60 1 1.71696 7.48478 3.57311 -1.00295 -1.45153 0.194936
61 1 3.0938 2.72277 3.45655 0.31424 -0.948305 0.501886
62 1 0.0785729 9.22093 0.405186 0.0336134 0.024659 -0.983996
63 1 7.44709 0.480717 6.10732 -1.23086 -1.05845 0.676329
64 1 8.55693 8.06134 1.15307 0.11964 -0.645819 -0.29595
65 1 0.424984 1.46644 4.28225 0.615668 0.773467 -0.6927
66 1 2.45809 7.12482 5.13464 -1.08267 0.149504 0.310435
67 1 3.2344 9.07521 2.14668 0.320809 -0.657693 -0.17215
68 1 4.62104 6.44007 9.15064 -0.465334 -0.0421677 -0.00301351
69 1 7.49466 4.53334 2.97996 0.897496 -1.38719 -0.143891
70 1 7.43557 2.0352 3.08037 -0.374004 0.431168 0.943345
71 1 6.973 3.43775 0.832597 0.206016 0.515484 -0.560746
72 1 6.1093 9.17072 4.35563 0.489101 -1.20325 -0.607149
73 1 3.70818 7.86381 6.63102 0.284265 0.332551 0.60181
74 1 4.46825 7.40972 4.68128 -1.11387 0.965614 0.00612639
75 1 7.75879 2.0517 7.81469 0.215108 -0.077813 0.751809
76 1 7.34059 2.03657 1.03763 -0.957982 0.386362 -0.849483
77 1 1.89273 3.2614 2.82994 -0.317104 -0.903201 -0.0311152
78 1 3.16745 8.20103 2.61658 -0.513572 -0.452729 1.28786
79 1 7.3328 1.3232 6.98547 -0.0571675 -0.639783 -0.466202
80 1 0.0628113 7.51724 8.91569 1.72472 0.0225631 -0.415615
81 1 3.45873 7.1328 4.89964 0.124402 -0.337417 -0.26639
82 1 5.89502 1.75057 4.40777 0.835105 -0.610766 0.0153744
83 1 3.73146 4.71751 4.13692 -0.209544 -1.43587 0.391958
84 1 0.612445 6.93446 6.60923 -0.314779 0.472772 -0.229756
85 1 1.83511 2.25649 8.70085 2.15221 -1.69261 0.526905
86 1 3.52469 3.48671 0.0212563 0.924535 -0.905617 0.947534
87 1 4.18131 3.08045 3.79267 -1.33847 -0.204349 0.574184
88 1 9.29872 1.71253 7.03364 0.667208 0.354166 0.319966
89 1 1.12914 3.8092 2.5307 -0.242031 -0.0207392 -0.317188
90 1 8.15397 4.53255 2.12337 0.457227 -0.0167078 -0.115878
91 1 8.80508 6.32565 4.91336 -0.0272456 -0.656921 0.810343
92 1 6.92462 6.98522 8.52499 -1.88979 0.236194 0.157614
93 1 2.87842 8.77877 5.27524 -0.459206 0.481379 0.235518
94 1 1.95199 8.01468 2.70063 -0.110438 0.135108 -1.45439
95 1 2.17702 4.07603 2.1606 0.595156 -0.136503 0.322543
96 1 3.97835 0.347477 8.95614 -0.0439098 0.222439 -1.59701
97 1 2.59068 2.15859 2.11 0.0848821 -1.12062 -0.119305
98 1 6.20026 0.914423 3.79706 1.04556 0.140706 1.49215
99 1 2.16385 0.389699 3.56051 0.0507865 -0.0946684 1.06465
100 1 6.38828 7.06192 4.77457 -0.4826 -0.666503 1.06759
101 1 4.53354 5.46417 4.50215 0.00916945 0.349456 0.73295
102 1 6.91168 0.236813 4.03701 0.384261 -0.920269 -0.558875
103 1 0.4769 0.319737 1.33665 0.540149 0.237032 -0.181562
104 1 4.36092 8.91904 0.429 -0.927559 -1.01186 -0.0757193
105 1 7.40751 7.95062 5.28785 -1.30974 0.135092 -0.466161
106 1 8.33797 1.44769 7.04043 -0.565868 0.960379 -0.348286
107 1 7.80831 7.13291 2.72581 0.647581 0.596724 -1.15372
108 1 0.818956 1.80901 6.40532 0.866782 0.247081 -1.06444
109 1 6.16416 3.42387 1.83894 0.183164 -0.462236 0.723531
110 1 0.292288 5.93502 6.78534 0.205014 0.648484 -0.530732
111 1 4.51887 5.54911 8.47985 0.0274007 -0.502342 -1.70139
112 1 6.84538 1.3244 0.210836 0.529099 -0.000385279 -0.584456
113 1 4.80388 3.71895 7.61852 1.81994 0.0415488 -0.419146
114 1 3.09962 1.67201 2.95647 -1.1267 0.44595 -0.265269
115 1 5.10497 9.29737 4.62061 -1.09585 -0.0921659 0.685854
116 1 5.45706 4.11618 8.28793 -0.678004 0.619497 -0.631043
117 1 0.351634 6.43328 1.13618 0.421743 -1.06462 0.752793
118 1 7.68705 2.22708 6.66261 0.89544 0.3858 0.59324
119 1 6.4232 8.07198 4.91704 1.18579 0.634103 -0.607525
120 1 1.50892 4.7585 0.939633 1.36754 -0.0357537 0.435848
121 1 5.43125 7.69738 7.63233 0.122624 -0.678375 -0.0127698
122 1 2.3525 8.14978 9.1887 -0.297364 -0.879358 -0.798023
123 1 1.75044 8.06138 6.49468 -0.498642 0.0887397 1.2964
124 1 5.92451 -0.00179196 5.39585 0.79604 -0.652191 1.3994
125 1 6.27084 5.48491 7.37711 0.696488 -0.797729 0.0170033
126 1 0.414395 4.26268 1.49694 0.0107211 1.56229 1.20712
127 1 2.41894 9.14694 4.34908 -0.619541 -0.420685 -1.2893
128 1 4.42283 7.55964 7.95858 0.405284 0.222462 -0.566241
129 1 3.26306 4.63635 0.208806 -1.27379 -0.209497 -1.8093
130 1 4.92073 7.75662 5.61797 0.0427368 0.232329 0.965805
131 1 8.94544 1.80477 3.85727 0.674381 0.475175 -1.16679
132 1 7.08774 4.23675 3.8978 0.133053 0.272384 -0.78046
133 1 4.9231 8.24611 2.63798 -0.463254 0.645134 0.170666
134 1 1.0011 6.17248 4.65582 0.834708 0.0602798 1.18272
135 1 5.16335 1.07302 4.01569 0.992123 -0.315843 -0.143747
136 1 1.74822 2.49135 7.73631 0.451081 0.17851 -0.582056
137 1 1.70109 5.33302 -0.000496293 0.117649 1.35954 -0.633297
138 1 6.48311 3.33626 7.7744 0.963068 1.59602 -1.07335
139 1 1.20518 3.65976 5.30038 -0.12021 0.012413 -0.349807
140 1 3.28822 3.85992 3.88234 0.811437 -0.202536 -0.685032
141 1 4.45984 8.78521 6.67481 0.348585 -1.46319 0.0430585
142 1 1.38214 2.06484 0.3636 -0.131435 0.113893 0.23516
143 1 2.58607 6.14719 1.34047 0.693064 -0.0562178 -0.95684
144 1 1.85955 3.40818 6.18513 0.447952 -0.989204 0.423642
145 1 6.04412 5.03006 8.52175 -0.346628 -0.431995 1.37293
146 1 7.20786 0.880191 1.12724 -1.017 0.411605 0.314157
147 1 4.20706 0.310869 6.12724 0.810621 -0.261804 -0.781657
148 1 6.388 4.3576 7.69393 -0.26668 -0.153975 0.167919
149 1 8.6988 6.29555 1.11046 0.314503 -0.385497 -0.0160003
150 1 5.23735 8.84749 1.82562 -0.0595035 0.258763 -0.599397
151 1 0.942987 8.07892 4.15726 1.86685 -0.305916 -0.708256
152 1 5.02307 7.26751 0.684949 0.0674538 0.0421698 -0.201862
153 1 1.67715 6.66348 1.1115 -0.456999 -0.319006 -0.373383
154 1 5.44221 6.30913 0.89437 0.0790343 0.198245 0.399983
155 1 8.10601 7.21824 3.79354 1.54636 -0.0510132 0.349404
156 1 4.52479 8.54805 4.51598 0.126925 -0.726088 1.74568
157 1 5.93793 4.23915 5.47851 -0.264272 0.112023 0.999742
158 1 3.34802 5.76865 8.45524 -0.806562 1.35593 0.479584
159 1 1.6297 7.09104 6.04048 -0.508684 1.01586 0.558872
160 1 5.69732 8.43374 6.90217 -0.42937 -0.0428053 -0.788729
161 1 0.358037 4.22766 7.9762 -0.297412 -0.737224 -0.06198
162 1 0.432219 0.906104 0.483681 0.282209 0.799093 -0.261196
163 1 1.08581 4.40525 4.58246 0.0411276 0.658083 -0.567217
164 1 4.63745 8.85925 3.37726 0.1712 -0.432475 0.352623
165 1 8.19432 1.18553 0.710479 -0.642744 -0.502337 -0.129843
166 1 4.97032 6.43859 4.61678 -0.504568 -0.692991 -0.431363
167 1 4.68649 7.16077 2.85692 -1.01768 0.174641 0.201746
168 1 6.14264 6.91348 7.65675 -0.424829 -0.551427 0.551754
169 1 1.54404 5.42278 8.28119 -1.19839 0.522352 1.14976
170 1 1.9498 2.05369 5.27667 -0.593949 0.183517 -1.22363
171 1 9.11546 4.81048 2.16756 1.21343 -1.19667 0.406906
172 1 2.22692 4.4756 0.201927 0.317475 0.282245 0.469612
173 1 7.75231 5.42376 8.85177 -0.273571 -0.431152 -0.906475
174 1 0.205358 3.09522 5.60025 0.403402 0.500859 -0.965392
175 1 6.8428 8.3049 1.72652 -1.01461 0.905252 0.919885
176 1 1.60756 1.47546 7.07116 0.208334 0.0298629 -0.109798
177 1 5.73533 8.65768 8.10912 -0.32805 0.047203 -1.0832
178 1 8.98504 3.10758 4.56135 -0.0904173 1.20029 -0.0910697
179 1 5.41317 8.49121 3.98253 0.872132 0.53216 0.756795
180 1 0.625952 9.10464 3.62164 0.115032 -0.786305 0.369936
181 1 6.7478 7.35452 2.25177 -0.895673 0.1119 -1.80241
182 1 4.06824 2.16573 6.23993 -2.04325 -0.165625 0.157062
183 1 1.64832 6.36519 7.93709 0.164242 1.22265 -0.319094
184 1 4.20487 1.0783 7.46905 -0.147484 -0.849259 -0.00721197
185 1 2.52747 5.75156 7.7851 -0.748859 -0.365355 1.88161
186 1 2.57472 5.21815 5.57113 -0.672314 0.749068 0.0228277
187 1 3.6976 2.97051 8.49247 -0.609422 -1.1489 0.358741
188 1 3.49983 5.5812 0.89338 0.184253 -0.771887 0.633099
189 1 2.32146 3.35627 3.80611 -0.0825156 0.0649809 -0.167455
190 1 6.1248 4.58396 2.03235 -0.537874 0.211494 -2.3512
191 1 3.88162 5.39765 7.676 0.569047 -0.837267 0.236913
192 1 8.63435 4.3243 7.89395 -0.290089 -0.10945 0.40033
193 1 2.90254 4.74891 7.80263 -0.0299464 1.03071 -0.122651
194 1 2.65866 3.11596 8.87413 -0.369103 -1.15496 -0.375459
195 1 9.06395 9.00954 4.09896 -0.744726 -0.201877 0.937955
196 1 3.46095 0.673476 1.65934 0.216799 0.0849296 -0.00470829
197 1 0.0145297 6.40003 5.7935 -1.6182 -0.587522 -0.0670188
198 1 2.55614 3.56337 0.409919 -0.829621 -0.535835 0.803025
199 1 1.02733 6.18265 5.75278 0.516225 -0.122111 1.13469
200 1 3.54728 8.85744 7.19469 0.01525 -0.352716 -0.759196
201 1 2.67106 8.29148 0.787846 -0.405274 0.235227 -0.093931
202 1 8.1579 0.669759 3.32638 -0.0961326 0.662981 0.641324
203 1 4.49248 6.06491 7.13402 -0.955428 0.958578 0.731819
204 1 4.18102 3.23375 6.68714 -0.26587 -0.227476 -0.0646584
205 1 6.44051 7.6606 7.04625 -0.22192 0.17871 0.232369
206 1 0.709942 1.90516 5.28746 0.572679 0.275128 -0.519663
207 1 7.8178 2.85981 0.564861 0.339982 0.173507 1.09839
208 1 8.72207 3.6714 5.43081 0.0261827 1.78984 0.730492
209 1 5.32301 1.1085 7.52137 -1.0282 0.634202 0.266565
210 1 1.15605 1.45527 8.85032 0.301294 0.254726 0.981895
211 1 9.23819 2.89509 2.97637 0.490886 0.0857142 0.593337
212 1 5.74281 6.68413 3.98612 -0.290117 1.69258 0.00852439
213 1 1.31894 2.87116 3.74475 -1.1072 -1.25356 -0.000436381
214 1 7.77232 1.93254 0.0130792 1.16706 0.100943 -0.555933
215 1 3.44747 5.30158 4.95635 -0.329694 0.98922 -0.112898
216 1 4.27475 5.38278 5.70596 0.577168 -1.5756 -0.937057
217 1 6.87839 0.333016 9.25287 -0.526602 0.643441 -0.241098
218 1 5.07806 4.66459 1.81364 -0.640718 -1.10545 -0.134021
219 1 5.19922 4.33296 0.830021 0.563799 0.321872 -1.60683
220 1 8.82072 0.516137 0.239733 1.47671 -0.0886131 -0.697708
221 1 7.48184 0.29165 4.98855 1.14664 -0.354981 -0.384154
222 1 8.44728 5.46322 2.70634 -0.147825 -0.31338 1.55559
223 1 3.3311 9.17032 0.108925 0.378397 -0.160591 0.759078
224 1 7.58385 8.28015 3.41194 0.455322 0.193627 -0.183638
225 1 7.56967 5.7147 7.27698 0.940424 -0.716502 -1.54353
226 1 1.18815 7.31713 2.69799 0.806007 -0.871048 -0.0895099
227 1 4.26167 6.12345 2.752 0.446037 1.17132 0.260304
228 1 6.26156 3.5666 8.73376 0.207925 0.159821 -0.55691
229 1 1.50314 8.45291 0.698437 0.268821 1.05866 -0.245907
230 1 4.77852 3.70448 0.137804 -0.139283 -0.713236 -0.165453
231 1 9.29915 5.20914 8.32844 0.441568 0.193173 -0.812843
232 1 6.3127 5.06386 0.289779 -0.619771 -0.855687 0.42712
233 1 7.774 7.51737 8.22638 -0.721725 0.904959 0.123371
234 1 3.66885 6.50173 9.06081 0.203888 0.878439 -0.459647
235 1 7.37695 7.2334 6.46197 0.706178 0.0784355 -0.983233
236 1 0.641628 8.44492 8.23971 0.0723485 0.520878 -1.5763
237 1 8.76024 2.36425 0.260653 -0.531439 -0.140502 -0.63793
238 1 7.74233 8.06018 0.310102 -0.174288 0.855295 1.33202
239 1 4.06642 7.23555 5.82044 1.30102 -0.240727 1.27646
240 1 4.66288 2.9171 5.81009 0.52936 -1.3977 0.582489
241 1 2.92942 5.22254 1.82602 1.17074 0.516811 0.935077
242 1 8.21809 2.66193 5.09848 -0.388223 0.358137 -0.694114
243 1 2.34226 8.61488 1.92779 -0.258504 1.03201 -0.881159
244 1 5.79725 7.46972 8.56285 0.602867 0.336743 -1.18159
245 1 6.34672 5.59588 2.2244 -0.726133 -0.676419 0.974664
246 1 0.936103 7.41441 1.0276 0.103917 -0.434331 0.00365616
247 1 5.60843 4.04541 3.6987 0.068634 -0.700852 0.191716
248 1 5.46635 8.45929 4.96264 0.478113 0.600786 1.0071
249 1 1.71248 5.42248 7.20891 -0.219964 1.10444 -0.597756
250 1 4.05296 6.35483 5.13272 0.381451 -0.477025 -1.74844
251 1 6.81505 2.30598 7.41077 0.744331 -0.926734 -0.514494
252 1 1.40239 1.91646 4.40625 -0.919888 -1.05101 -0.0527633
253 1 0.189395 4.00995 4.92033 0.193232 -0.888046 0.153914
254 1 7.00925 1.53348 2.29253 0.678514 -0.873209 -0.933824
255 1 6.05257 3.22503 0.310133 -0.151687 0.322311 0.109721
256 1 1.71542 3.30295 8.44327 0.0381773 0.216127 0.0160842
257 1 5.4071 1.06166 0.608949 -0.066314 -0.852742 0.175189
258 1 2.14848 1.21868 2.45594 0.228139 0.70579 1.90484
259 1 2.14747 4.14169 7.96497 -0.675567 0.546954 0.13386
260 1 2.79894 3.87395 7.0509 -0.516975 0.165853 0.0271695
261 1 8.00062 6.18451 0.193919 0.259008 -0.0340227 -0.62003
262 1 4.53515 0.574126 1.93544 -0.0182865 -0.57316 0.542902
263 1 5.20205 4.74897 4.64373 1.13557 -0.863255 0.720977
264 1 7.74391 6.28808 6.45533 -0.324359 1.02702 -0.100148
265 1 4.61416 4.00753 4.24153 -0.50918 0.975038 -0.82112
266 1 6.7881 6.63841 3.90081 -0.55708 0.321026 0.560197
267 1 5.43987 2.71319 2.00227 0.334257 -0.265796 0.15646
268 1 5.82014 0.82352 6.38813 -0.338791 0.225237 0.825791
269 1 4.03008 5.03698 1.70676 0.27607 -0.225416 -0.412165
270 1 8.34068 9.01289 3.3227 0.413008 0.314989 0.208631
271 1 6.12394 6.15371 8.48621 -0.399352 0.389667 -0.547596
272 1 9.14735 0.1849 3.09049 0.286921 0.0938507 1.48575
273 1 8.84053 1.69989 1.95122 0.153328 -0.0911246 -0.978491
274 1 6.55912 7.96357 8.08416 0.484636 0.00375022 0.0148281
275 1 3.43795 6.50532 3.13758 1.77264 -0.595554 -0.149237
276 1 9.09163 7.00519 4.13176 0.0798998 0.577462 1.16576
277 1 4.05715 1.24085 4.24862 0.126983 -0.735055 0.0152866
278 1 2.77043 5.74741 6.54546 0.055231 -0.555818 0.464041
279 1 2.55627 8.95527 2.95845 0.551813 0.0468517 -1.95914
280 1 5.33424 2.1566 2.96622 0.466481 0.556571 1.02206
281 1 5.56508 7.47306 3.40168 -0.0133003 -0.20253 -0.598361
282 1 8.28121 8.08701 2.60725 0.60158 0.420895 0.248171
283 1 0.492191 7.42405 3.54114 0.127618 0.438359 -0.690667
284 1 7.24435 7.5943 4.30389 0.302705 1.18688 -0.0716869
285 1 6.68409 8.51219 2.73827 -0.29039 0.0449565 0.424884
286 1 0.854063 2.10637 7.47478 -0.975522 0.195452 0.647232
287 1 3.61415 8.81892 6.01311 -0.479913 -0.608173 0.92459
288 1 4.84225 0.176814 7.69351 0.209188 -0.729833 -0.837469
289 1 7.35679 1.59049 5.90423 -1.7363 0.7358 0.161559
290 1 2.53604 7.58277 7.15019 -0.321747 -0.562251 -0.538479
291 1 4.86188 4.73965 9.06098 0.330638 -0.991197 -1.79629
292 1 0.082791 8.13833 5.48786 -0.609742 0.423206 -0.549633
293 1 2.13409 1.53695 3.5867 0.880773 0.449089 0.768927
294 1 8.61047 5.63288 6.9111 0.0531923 -0.476001 0.811034
295 1 8.29228 5.47525 7.96076 -0.250749 -0.385693 -0.201389
296 1 6.14864 6.53889 1.69621 0.0816165 0.412677 -0.88777
297 1 4.77905 3.74491 3.21738 -0.743024 0.289597 1.00584
298 1 4.78264 6.40073 6.12301 -0.0524768 -0.355801 1.19179
299 1 5.65113 5.62433 4.26636 0.628053 -0.882096 0.0585194
300 1 7.79996 2.25301 2.10545 -0.554433 -0.0817543 0.798501
301 1 2.59261 1.04563 6.75829 0.0282249 0.478233 0.852436
302 1 7.91656 8.87568 5.83571 -0.880256 0.377552 -1.20997
303 1 1.1779 -0.00773238 0.383866 0.511697 -0.295919 0.138226
304 1 7.71813 5.1427 3.68785 -0.405516 0.559368 -0.0102
305 1 3.0461 1.65716 0.592524 -1.72487 -0.634526 0.729011
306 1 6.31826 8.07408 3.72694 -0.507773 0.858924 0.523281
307 1 6.03896 8.81287 1.06558 -0.633806 0.367879 0.0957134
308 1 9.06359 0.744285 7.41494 0.657292 0.513831 -0.264309
309 1 0.727161 6.62133 7.62479 -0.181226 -0.0538064 -0.939917
310 1 5.42404 5.75684 6.81454 -0.16175 0.368194 0.651198
311 1 7.73881 7.80722 1.81003 0.900364 -0.0788723 -0.341229
312 1 2.52957 5.27893 0.85967 -1.39485 -0.537174 0.308044
313 1 6.31295 0.518019 0.690186 -0.84628 -0.177348 0.184554
314 1 7.81023 3.30192 2.24974 0.254964 -0.0336593 -0.843758
315 1 3.47469 4.66369 5.75308 -0.159191 1.06209 -0.585531
316 1 2.05049 4.11911 4.47372 0.254711 -0.505351 0.780322
317 1 0.383487 1.48176 8.12583 -0.156547 -1.05498 0.164637
318 1 8.85834 6.53022 6.60022 -0.382113 -2.15033 0.0250849
319 1 5.33581 9.23993 6.23207 -0.742055 1.4405 0.457557
320 1 5.03781 4.64567 5.70712 -1.14305 -0.948804 -0.340081
321 1 1.08034 1.58604 2.33327 -0.0403743 -0.159539 0.004916
322 1 1.10609 6.58449 3.61326 0.299839 -0.302101 -1.74686
323 1 3.24703 7.06928 2.14598 0.0936592 1.38755 0.673714
324 1 1.72603 4.50906 6.53507 0.0690051 0.814078 0.352166
325 1 5.4674 4.52904 2.8181 -0.509223 0.948125 -0.317714
326 1 7.5945 1.85611 4.96863 0.897416 0.699601 0.0199817
327 1 4.53879 1.0861 8.39108 -0.0139257 0.686608 0.291737
328 1 7.08186 4.41147 0.53984 -0.744493 -0.315801 0.426345
329 1 8.66355 1.40716 9.20457 0.643698 -0.549801 0.00650739
330 1 3.64705 0.304448 7.97578 0.0990951 -0.069924 -0.458805
331 1 4.51019 2.83906 4.79162 -1.08355 0.688535 0.882734
332 1 3.94482 1.89495 5.17643 -0.022003 1.28035 0.623191
333 1 7.6424 6.03363 1.28418 0.455055 -0.485016 -0.460592
334 1 0.599859 8.07182 6.43677 1.23344 0.452736 1.19917
335 1 8.63958 0.797293 2.34815 -0.349145 -0.638832 -0.290323
336 1 0.703478 7.28484 5.6544 0.530941 -0.974301 -0.10611
337 1 5.52456 4.73588 7.12668 0.664887 1.11418 -0.290347
338 1 1.59626 0.343637 7.13487 0.905495 0.0716567 -0.0946772
339 1 1.23474 4.59756 7.58183 0.231761 0.132038 -1.29038
340 1 2.99453 0.575188 4.13943 0.829748 -0.553506 -0.921852
341 1 8.71434 1.50655 8.02954 1.42858 -0.161072 0.433068
342 1 7.04229 6.92122 1.38562 -0.21581 0.111223 -0.593893
343 1 4.74998 5.2308 2.73297 -0.546606 0.173929 0.937827
344 1 0.573515 0.970253 5.85017 0.728164 0.297591 0.0799802
345 1 6.43141 6.5529 6.68518 0.0944117 -0.954189 -1.03739
346 1 6.55649 6.10116 0.826415 -0.916339 0.520785 -0.216623
347 1 4.95811 4.02766 6.63286 0.196667 -1.3937 -0.24656
348 1 7.30095 3.17885 6.6803 -0.779947 0.722204 0.810985
349 1 7.31865 3.59127 9.22011 0.884929 -0.860465 -0.13097
350 1 3.1236 3.22542 6.31009 -0.0579333 1.15605 -0.443186
351 1 7.84008 6.17669 3.41909 -1.40078 -0.13185 0.737358
352 1 8.99319 8.60704 6.3458 -0.177713 -0.23094 -0.721525
353 1 9.13168 2.13835 4.92282 -0.925367 -1.1846 0.686411
354 1 9.20361 7.01593 7.395 0.910082 -0.628819 -0.188337
355 1 0.997712 6.44469 1.92795 -0.474733 -0.790275 1.00177
356 1 4.68287 1.40668 5.99991 0.603084 0.314805 0.1523
357 1 0.822256 2.43749 8.55454 0.531296 0.335276 -1.22371
358 1 3.89628 8.15125 5.1395 -0.677349 -0.553097 -0.990565
359 1 4.82195 7.86033 6.8359 -0.85882 0.442515 1.1847
360 1 3.37518 3.8779 1.09906 -0.654167 0.0660688 2.19341
361 1 5.43946 2.40111 5.15491 -0.737546 -0.975404 0.249755
362 1 3.96734 1.23687 2.362 -0.118684 -0.242029 0.668792
363 1 7.14633 4.20577 1.53643 -0.191167 0.587938 0.567206
364 1 0.868814 5.05474 6.62189 -0.819521 -0.158034 0.806059
365 1 1.03661 2.29153 1.35585 -0.766158 -0.0603937 -1.42578
366 1 5.9233 8.2075 2.09103 -0.132264 -0.846683 -0.272916
367 1 1.30616 3.7733 1.46281 -0.870235 0.394984 0.505939
368 1 2.98278 2.06664 5.08403 -0.817473 -0.140132 0.227724
369 1 0.553669 6.84054 0.207507 -0.669751 -0.123537 0.538836
370 1 8.39907 7.91429 8.91294 -1.00231 0.385009 1.16
371 1 3.01635 5.63071 3.4106 1.09648 0.350173 0.370198
372 1 4.97704 1.89766 8.07505 -0.197281 1.74937 -0.899339
373 1 6.20994 6.67269 2.98418 -0.225829 -1.02308 -0.621083
374 1 9.34432 7.9481 4.45873 0.77592 -0.134451 -0.544604
375 1 4.87462 5.41202 0.740727 -0.0840282 -0.307637 0.136331
376 1 2.97108 0.457113 8.78988 -0.48599 0.624704 0.592564
377 1 2.31565 6.59094 7.11289 0.562197 -0.076274 -0.048795
378 1 5.52074 0.342085 1.29732 -0.339692 1.26474 0.0405126
379 1 6.60397 3.74935 6.10665 0.0541611 0.617095 0.317188
380 1 7.84333 5.12024 6.21248 -0.0793949 -0.20963 -0.208089
381 1 3.60945 0.87094 3.33835 -0.557224 -1.27913 0.62248
382 1 5.57704 6.88682 5.53693 -0.930617 0.374043 -0.18529
383 1 9.22026 9.28251 8.07367 0.102038 0.0721629 -0.728341
384 1 3.5086 8.93682 4.42627 -1.21243 -0.4985 -0.420055
385 1 4.00524 7.27802 0.340342 -1.50011 -0.494832 0.201034
386 1 0.414855 3.57745 3.97429 -0.220635 0.680709 -1.25775
387 1 0.0428192 1.75073 2.87404 -0.433684 0.34686 -0.274172
388 1 6.22538 8.84835 0.0482995 0.302648 -0.38134 -0.625487
389 1 6.21016 3.14873 5.16855 -0.383882 0.42746 0.390301
390 1 2.51096 5.01856 2.67693 0.675797 0.976211 0.138137
391 1 5.35821 9.40478 0.399092 -1.19774 0.95078 0.0608151
392 1 4.46742 3.95379 1.46481 -0.208436 -0.440851 1.29724
393 1 9.40902 5.94065 0.328879 1.49632 -0.275101 -0.0674956
394 1 9.28973 5.974 2.08836 -0.204958 -0.528746 -0.482551
395 1 0.654609 9.33628 8.80249 -0.618583 -1.37349 0.0612552
396 1 1.79701 2.24674 2.78472 -0.0254 -0.132521 0.299228
397 1 5.73469 4.19265 9.37616 -0.0360242 0.838026 0.196286
398 1 7.94879 3.72599 1.24906 0.0620576 1.55234 -0.168967
399 1 7.18284 0.987959 3.31268 0.416012 0.804672 -0.238552
400 1 2.67381 6.10334 2.39877 -0.891622 -0.546429 1.18909
401 1 4.39702 2.1418 8.91726 -0.814919 1.21033 0.423963
402 1 0.715188 3.95582 0.597623 -0.0985106 0.639277 -0.666782
403 1 4.26731 4.27928 2.43876 0.280492 -0.352994 0.0845552
404 1 2.85577 6.79907 8.41595 0.00425915 0.254226 -0.302767
405 1 3.68319 3.52458 7.6222 0.610689 1.2053 0.119603
406 1 6.77622 8.27876 0.675579 -1.55475 0.514318 -0.702292
407 1 6.85258 0.29153 7.51113 -0.612029 -0.51098 -0.493592
408 1 2.8619 2.26601 8.38221 0.902433 0.517156 -0.0241825
409 1 3.48072 2.53491 4.35828 0.731266 -0.852296 -1.07467
410 1 9.25054 2.3651 7.95935 0.241109 2.31946 -0.651115
411 1 4.59474 7.82584 3.66661 -1.44003 0.922107 -1.08016
412 1 1.36545 9.20695 4.49994 -0.984173 1.3844 1.31375
413 1 1.92783 7.86041 1.45633 0.636627 0.0139119 0.199419
414 1 6.77965 0.971798 8.41234 0.57758 1.95116 -0.000732658
415 1 8.46935 0.5489 8.48928 1.09698 0.392899 0.439573
416 1 1.53446 1.38532 1.19064 -1.04317 0.196477 1.17086
417 1 6.85732 2.98585 3.35892 -0.0871026 0.0660453 -0.638274
418 1 2.95055 2.08401 6.29364 0.171315 -0.0269293 -1.37334
419 1 7.0493 2.83694 1.68444 0.100708 -0.834378 -0.864537
420 1 1.71786 5.24633 4.53196 -0.501771 -0.331982 0.713794
421 1 6.85479 5.61297 6.48502 -1.25992 0.398849 -0.140666
422 1 8.26446 3.63312 7.01965 -0.416337 0.466676 -0.0266014
423 1 7.86647 2.66474 4.05771 -0.215352 0.222815 0.117846
424 1 3.69375 7.48736 3.15144 -0.214935 -0.0970988 -0.435672
425 1 2.33818 2.82498 6.84777 0.570169 -0.424928 -0.767908
426 1 3.47345 1.62044 7.03383 1.19214 -0.181399 0.256564
427 1 7.50028 4.20495 6.4674 -1.27724 -0.0420548 0.802085
428 1 2.38955 6.53291 6.07909 0.895474 -0.114626 -0.323419
429 1 6.21167 9.18243 2.081 0.654536 -0.742932 -1.1989
430 1 6.85937 4.86452 5.73456 1.14655 -1.10632 0.793743
431 1 8.36353 1.76022 5.69565 1.07007 -0.530041 -0.638985
432 1 4.57298 0.482151 0.810598 -0.0282302 1.64429 0.865874
433 1 1.92252 8.31408 4.58464 -0.444786 0.0905875 0.689011
434 1 7.74178 7.15933 9.21893 -0.873053 -0.549903 0.426212
435 1 0.641953 3.47679 8.7088 -0.365077 0.0478356 0.246626
436 1 0.409164 6.53748 2.8109 0.543744 0.469171 0.542201
437 1 6.90456 7.4423 3.26942 0.390847 -0.0659677 1.25646
438 1 2.51749 8.10299 3.63392 0.401992 -0.0946901 0.875707
439 1 3.55903 8.36013 3.59558 0.475548 0.306625 0.530477
440 1 5.82779 5.47062 3.10002 0.272626 0.0663322 -0.708415
441 1 6.13349 2.63382 1.09675 -0.287221 0.900519 0.978459
442 1 6.32609 3.37924 4.23666 0.884825 0.144477 -0.154878
443 1 1.84567 5.68104 1.83658 -0.0489394 -0.096492 -0.0911911
444 1 8.68465 5.53173 3.7719 -0.596075 1.07469 0.115059
445 1 5.77325 2.60287 8.89811 0.149299 0.849194 -0.315258
446 1 8.31444 0.574754 5.55606 0.707398 -1.05703 -1.26372
447 1 1.21865 4.76089 2.05572 0.149984 -0.308181 0.0982955
448 1 1.47517 8.67219 9.10029 -0.034167 -0.711928 0.00118806
449 1 3.38963 6.30079 7.13776 -1.99777 -0.221601 0.0562949
450 1 3.72198 5.28715 6.58343 -0.178661 0.167766 -0.0556181
451 1 4.02937 6.55755 7.99176 -0.871225 0.0253483 -1.31676
452 1 4.81581 7.51211 9.07829 0.1777 -0.164436 1.33092
453 1 2.51286 1.30332 5.72117 0.601069 0.54588 -1.51853
454 1 2.45426 0.310276 7.83095 -0.425247 -0.852781 0.668358
455 1 8.81938 4.70599 5.27323 0.990731 0.517138 0.202058
456 1 7.95115 3.66572 4.48563 -0.26243 0.888183 0.308894
457 1 6.92931 8.0639 9.06612 -0.357602 -0.70673 0.839606
458 1 2.31674 6.41135 3.54663 -0.156385 -1.02934 -0.515533
459 1 8.31449 3.1957 9.19121 -0.28866 0.745878 0.165253
460 1 6.82826 2.56774 5.95898 1.07075 -0.233041 0.970932
461 1 8.15468 4.19379 0.234715 0.273786 -0.400467 -0.713035
462 1 2.94881 7.34145 0.0430248 -0.262613 0.207508 -0.0316724
463 1 4.40498 1.4121 1.29282 -0.463033 -0.645629 -0.499304
464 1 8.18324 3.20626 7.93166 0.334205 1.19622 1.46536
465 1 0.649787 7.63928 7.43163 -0.695513 -0.58651 1.1285
466 1 3.58537 1.41548 8.89177 0.471633 -0.925252 -0.0190404
467 1 6.43629 0.136421 3.07511 -0.750112 0.53411 -0.297067
468 1 9.12285 7.2403 5.13286 0.400365 -0.050487 -0.4013
469 1 6.64749 0.862128 5.65145 -0.687786 0.310989 -0.192038
470 1 8.5165 2.56694 7.13771 -0.436237 0.654892 0.629983
471 1 4.53299 8.92424 5.53415 -1.13225 -0.652972 1.14624
472 1 7.68695 3.60239 3.28512 -0.282254 0.484243 0.993234
473 1 4.82781 3.01601 8.66089 -0.592656 -0.654045 0.932103
474 1 8.8853 0.771402 1.32536 0.493146 1.58204 1.0049
475 1 2.64401 3.11066 7.78742 0.43767 1.46099 -0.583731
476 1 0.696114 1.0641 7.13471 -0.0286424 -1.01309 0.73118
477 1 3.43288 1.80806 1.48576 -0.18884 -1.36982 -0.270139
478 1 3.94066 9.17061 1.3792 -0.666118 0.263026 0.07557
479 1 0.847406 2.66212 2.78406 0.23478 0.724445 0.509579
480 1 6.85255 2.42629 0.140889 0.699236 -0.703127 -0.428924
481 1 3.68999 6.12044 1.86402 -0.893632 -0.0176522 -0.986388
482 1 1.77479 5.50561 6.129 0.14763 -0.108124 0.839963
483 1 3.01717 7.27863 3.93175 -0.218892 0.209142 0.413993
484 1 5.0261 0.53534 5.48813 -0.206319 -1.05603 -0.810878
485 1 5.3635 5.66885 9.09217 -0.570439 -0.227142 0.280167
486 1 8.36727 1.58393 2.94562 0.0214094 -0.287495 -0.192558
487 1 8.85417 6.40712 3.13369 0.247097 -0.761448 0.866035
488 1 7.40011 5.74645 5.59361 0.928089 -0.272966 -0.431956
489 1 1.61872 0.965633 0.242373 -0.574968 -0.185348 -0.111216
490 1 2.93301 8.08452 4.58678 0.0465862 0.432801 0.240444
491 1 7.39638 9.34463 3.19581 -0.0833436 0.0585257 0.183916
492 1 8.4549 8.04684 5.52651 -0.768177 0.903618 0.212862
493 1 6.01556 1.68503 8.29713 1.10881 0.134909 1.21337
494 1 6.80457 1.12148 4.6091 -0.100529 -1.49897 -1.01163
495 1 6.45931 4.58275 3.09894 -0.0531321 -0.591996 -0.283838
496 1 2.55345 1.90134 7.36128 -0.129297 -0.602627 0.154076
497 1 2.65726 0.760555 0.358253 -0.341126 -0.463303 0.291344
498 1 7.4829 8.89719 9.21296 -1.41827 0.831081 0.474228
499 1 4.94541 2.12125 3.98632 0.173268 -0.0536156 0.441366
500 1 5.44847 6.18077 2.44205 -0.152513 0.0139585 -0.800951
501 1 5.68481 7.62396 6.30264 0.0813404 -1.01849 -0.0316629
502 1 0.105592 3.61835 2.22036 0.125628 0.790527 0.0188316
503 1 5.31858 5.83265 5.35672 -0.10437 -0.711602 0.53916
504 1 4.9883 1.45782 2.13044 -0.330373 -0.69862 0.414419
505 1 8.40078 5.26958 0.301407 0.575273 0.653163 0.205889
506 1 2.16778 8.0286 5.53449 -0.738112 0.881176 0.303841
507 1 7.49258 0.154805 8.38914 0.3602 0.754771 0.673846
508 1 3.20914 8.14563 1.61865 0.914716 -0.681912 -0.408373
509 1 0.0733339 0.723952 8.77216 0.388254 0.46136 -0.402252
510 1 0.419252 0.474119 4.56504 1.43979 -0.246977 0.702482
511 1 6.41125 6.19789 5.73569 1.88822 -0.484808 0.864373
512 1 0.215812 6.10285 3.87866 0.786531 -0.00788051 -0.30875
513 1 1.81051 6.7759 4.3037 0.0015958 -0.579215 -0.657591