ITEM: TIMESTEP
97000000
ITEM: NUMBER OF ATOMS
1000
ITEM: BOX BOUNDS pp pp pp
0.0000000000000000e+00 9.4000000000000004e+00
0.0000000000000000e+00 9.4000000000000004e+00
0.0000000000000000e+00 9.4000000000000004e+00
ITEM: ATOMS id type x y z vx vy vz
1 1 3.82523 5.89696 2.30108 -0.596575 -0.624067 -0.62748
2 1 3.32137 4.73088 4.07913 -1.07367 0.606676 -0.233408
3 1 3.57158 2.52271 4.05193 0.194162 0.157782 -1.05319
4 1 3.62513 3.94627 8.88061 0.798946 0.258791 1.72029
5 1 2.61736 0.348489 2.88245 -0.260347 -1.14988 0.0493407
6 1 3.69852 7.63394 6.25514 1.52327 1.0022 -0.367209
7 1 6.86597 5.50511 6.82529 -0.255584 -0.197959 -1.19573
8 1 8.78066 1.27043 7.16713 -0.3003 0.100728 0.378407
9 1 0.988834 6.8388 6.83311 -0.623621 -0.244568 1.25841
10 1 0.915171 5.65891 0.448085 -1.35331 -0.733554 -0.850009
11 1 1.40061 1.21112 4.16636 0.97956 0.0177488 -0.518866
12 1 0.503542 1.37066 9.11902 0.48212 0.796333 -0.658997
13 1 0.188352 7.5375 6.29093 0.534065 0.603498 0.413622
14 1 2.16048 3.46083 6.08454 -1.33277 0.840436 1.36763
15 1 9.25098 8.29059 0.487627 -0.608135 -0.22359 -0.373525
16 1 8.54052 7.38298 7.95239 -0.156098 0.340012 0.693046
17 1 5.97083 9.21294 0.617041 -0.390723 -0.745034 -1.24826
18 1 6.95609 7.18466 4.93301 0.0439507 -0.0625265 -0.213913
19 1 8.91194 7.21223 0.598124 0.141382 0.157875 -0.105657
20 1 7.59176 5.38622 8.38572 -0.170785 -0.0129482 0.233366
21 1 8.78315 3.27125 0.793233 1.03182 0.545984 0.437708
22 1 7.85383 0.579379 0.207543 0.767648 1.13488 -1.45203
23 1 5.97581 9.02481 7.80677 -0.0490903 0.325461 0.926736
24 1 1.60998 5.73725 9.09895 0.536221 -0.250259 0.206212
25 1 2.76906 7.35499 0.634088 -0.93059 -0.464411 -0.10624
26 1 6.2918 0.432335 2.26129 -0.0278396 1.69756 0.0658407
27 1 8.20968 3.44186 7.51276 -0.0667525 -1.38264 1.48033
28 1 6.78766 2.42586 2.92929 -0.196442 -0.242758 0.767211
29 1 8.06562 4.54412 7.76714 -0.344098 -1.1125 0.783791
30 1 9.19564 0.919055 4.62986 1.38933 -0.108937 -0.0155156
31 1 0.586151 0.681443 3.64724 0.451646 0.798044 -0.23536
32 1 5.68543 5.3255 6.21793 -0.546832 -1.10521 -0.863358
33 1 8.37783 8.03988 1.02477 0.785904 -0.526543 0.873224
34 1 2.4389 8.46303 0.619712 -0.42221 -0.811933 1.07279
35 1 4.83595 5.44126 5.5399 1.21013 -1.58672 -0.147543
36 1 4.24078 8.677 4.7356 -0.123249 -0.37023 0.764595
37 1 0.0239082 5.50838 8.40075 -0.19378 0.0647469 0.227756
38 1 0.408109 8.82216 2.10331 0.50982 -0.345757 0.270737
39 1 4.31359 6.40852 3.12529 -0.263942 1.63691 -0.685441
40 1 5.27837 0.184932 8.21966 0.104046 0.339372 -0.192327
41 1 2.06785 8.12339 5.57527 0.31656 -0.0113005 0.0748055
42 1 2.07806 0.631088 4.66816 0.534398 -0.00555728 -0.639241
43 1 4.55893 0.960903 8.28548 0.337013 -0.706046 -0.642809
44 1 4.03072 2.09791 2.69525 -1.01313 -1.21601 -0.126256
45 1 0.496137 7.66613 8.25487 -1.34436 -0.689567 -1.21471
46 1 1.20886 4.36067 5.01687 -0.161289 0.0488177 -0.337744
47 1 6.04124 7.86494 2.73053 0.201958 0.710758 -1.77369
48 1 6.18645 1.35117 4.81223 0.562212 -0.465062 0.0838528
49 1 2.20492 4.47045 5.33126 0.952096 0.628224 1.13285
50 1 4.87389 0.857084 3.39612 0.0220918 0.302144 1.06442
51 1 5.89509 6.03361 1.96241 -0.659674 0.900065 -0.269237
52 1 4.40032 7.69778 0.263076 0.973221 0.728178 -0.0664847
53 1 8.82374 0.587575 0.515765 -0.577468 -0.0264491 0.0679633
54 1 7.00584 0.538927 6.2123 -0.566362 1.17526 -0.00829887
55 1 0.145011 5.65727 3.48221 -0.312283 0.380853 -0.388992
56 1 1.9721 7.2205 5.10083 -0.0492191 -0.144995 -0.518364
57 1 2.80271 5.56126 5.12979 0.803333 -0.746822 -0.540845
58 1 4.21296 4.62181 2.55301 1.07923 -1.3877 -0.121666
59 1 4.91963 6.49398 6.78718 0.293753 0.746227 0.285818
60 1 3.42417 3.67122 3.99407 1.03642 -0.450302 0.236278
61 1 4.1859 3.8615 3.41288 -0.349021 -0.126131 0.0772219
62 1 3.88399 7.54328 1.194 -0.0941943 -0.00540739 -0.109937
63 1 9.2534 3.07324 4.5962 -0.00615287 -1.32356 0.0218687
64 1 1.86377 7.87474 2.40061 0.403259 -1.02646 -0.85808
65 1 6.24354 8.91596 1.79776 0.435869 0.594868 0.0981676
66 1 1.50876 1.88119 9.18193 -0.0468959 -0.374848 0.310389
67 1 1.12775 5.80767 6.54453 -0.221603 -0.154438 0.421467
68 1 5.30753 7.45731 5.75486 0.548909 -1.12874 -0.286959
69 1 8.0494 7.63109 2.06621 -0.235416 -0.784562 -0.177737
70 1 0.30175 4.40606 4.4532 1.70463 0.0673498 0.0195056
71 1 6.57655 8.2326 7.20402 0.379848 -0.700372 -0.452289
72 1 2.37656 3.00815 0.462136 -0.0492736 -0.136409 0.389599
73 1 4.14159 5.24081 1.67615 0.319805 1.70385 0.997053
74 1 6.77386 0.407739 3.435 -0.728944 1.3364 0.26726
75 1 6.58624 2.28354 1.82766 -0.372491 0.420602 0.860101
76 1 6.92736 6.52242 6.737 -0.69825 -1.31074 0.0436756
77 1 3.01633 3.52046 5.17028 -0.316916 0.036939 0.641
78 1 2.93989 6.31745 0.753389 0.0323669 0.68037 0.444312
79 1 7.90269 8.21653 6.33725 -0.649026 -0.528721 -0.96424
80 1 9.06306 1.60192 0.354616 -0.318596 -0.6451 -0.463652
81 1 2.96672 4.17161 8.03651 -0.121343 0.509146 0.22124
82 1 4.29806 0.0251371 0.763594 0.374522 0.348122 0.284848
83 1 7.75939 7.35285 5.50777 0.267344 -0.924943 -0.139158
84 1 0.695808 6.1336 7.59155 0.400291 0.941032 0.233217
85 1 8.84626 4.58056 7.07544 0.0417443 -1.17146 -1.26271
86 1 5.93764 4.99165 7.92624 0.844251 0.65964 0.136483
87 1 0.771593 0.648627 5.95373 1.5025 -0.454523 0.560947
88 1 8.19194 1.7873 4.07498 0.442709 0.679637 -0.750481
89 1 4.28893 6.9251 2.01728 -0.569826 -0.542756 -0.14383
90 1 5.6142 5.03043 4.00402 -0.695605 -0.405827 -0.523732
91 1 1.10532 5.60976 3.11652 -0.478412 0.0813919 0.35679
92 1 9.13069 1.37866 2.52871 -0.554156 0.120151 -0.60054
93 1 3.70276 1.15528 4.9947 -0.328802 -0.446824 0.0760484
94 1 1.75952 5.24139 4.78777 0.72742 1.10306 -0.73449
95 1 6.99989 6.46378 4.07246 -0.827485 1.00972 0.394422
96 1 5.27091 7.97848 6.68666 0.589812 1.0671 -0.329745
97 1 0.764047 2.50888 8.83785 1.6197 -0.168889 -0.360701
98 1 4.43552 8.38849 1.30979 0.751875 0.535292 -0.521231
99 1 6.12239 0.0403373 5.76664 -0.0612121 0.229547 1.07653
100 1 4.26404 4.71706 9.36136 -1.70158 0.170285 -0.138094
101 1 6.43764 4.73376 8.78266 -1.33491 -0.3692 -0.825115
102 1 2.32686 3.78007 3.36339 0.0309332 0.959795 0.443641
103 1 5.51399 6.43889 2.80352 0.225247 -2.11442 0.465537
104 1 6.22333 7.92796 6.21695 -0.956253 0.23276 -0.126359
105 1 8.64831 6.14586 2.49758 0.463321 0.382289 -0.0756434
106 1 8.48193 7.55572 4.71671 -0.371997 -0.451948 -0.872949
107 1 5.76131 4.02946 3.88525 -1.78846 -0.453158 -1.20301
108 1 8.18198 0.259508 2.41432 -0.661705 -0.17593 0.150622
109 1 7.62156 5.92359 7.5098 -0.779886 -0.92793 0.410322
110 1 8.5085 6.39952 7.39923 0.024212 0.0796891 -1.42476
111 1 5.25973 9.04143 1.29225 -0.0751284 0.328392 -0.36131
112 1 7.47743 2.12244 1.25909 -1.67535 0.956213 -1.09672
113 1 3.72971 4.95784 7.73142 0.267961 -0.152508 -1.03334
114 1 5.22743 3.48578 3.18637 -0.513322 -0.60577 -0.573136
115 1 5.53663 2.28784 1.65043 -1.0975 -0.955339 0.0440694
116 1 5.99172 2.77559 9.18376 1.03986 -0.095622 -0.837833
117 1 7.31144 9.11208 0.383992 0.337111 0.0940076 -0.358532
118 1 7.00571 3.09982 1.20126 -1.14854 0.047017 0.147073
119 1 4.35039 1.9337 5.3424 0.202324 -0.433392 -0.436446
120 1 1.54728 0.92277 7.90692 0.281953 -0.990495 0.243056
121 1 3.91529 3.1487 4.78732 0.832998 -0.866162 -0.693249
122 1 2.92904 7.47439 5.54649 -0.223604 -0.372824 0.166047
123 1 5.07646 5.95721 9.28788 0.0056404 -1.06415 -1.12513
124 1 0.139645 0.031013 5.23914 -1.40435 0.713018 -0.608126
125 1 3.93263 4.80847 6.05234 0.755722 0.776221 -0.0455711
126 1 6.44446 3.64427 1.81371 0.023184 1.20927 -0.54746
127 1 5.43474 8.71245 5.85868 -0.0872569 -1.41207 0.552776
128 1 7.42447 6.4439 5.74122 1.22028 0.408713 0.792406
129 1 7.58331 7.40838 0.504565 0.491182 1.03012 -1.33139
130 1 4.39241 4.19662 1.54682 -0.209384 -0.873426 -0.944216
131 1 7.49295 3.25547 3.15974 0.639747 -0.693536 -0.441208
132 1 7.09168 8.30385 2.20797 -0.0771972 -0.122677 -0.6099
133 1 5.04001 2.4592 2.5526 -0.586165 0.612448 1.10126
134 1 0.330886 8.7511 8.25768 1.09317 -0.259184 -0.802485
135 1 7.87401 6.62979 4.60886 -0.708305 -0.474811 -1.1637
136 1 6.54315 2.21921 7.37384 0.563337 1.0992 -1.13311
137 1 2.94259 5.08787 6.08576 0.175535 -0.559438 0.762767
138 1 6.14682 7.83802 5.12934 0.702998 -0.17062 -0.454428
139 1 5.64996 2.83701 4.05265 0.10171 -0.3593 -0.153795
140 1 0.634554 3.40996 0.0932276 1.27775 0.204433 -0.985744
141 1 4.05484 7.51215 3.2035 -0.21722 -0.55455 -0.444705
142 1 5.31737 0.32858 5.30584 1.89999 -0.117445 -0.572362
143 1 5.39917 1.88103 0.163471 -1.2728 0.278688 0.668984
144 1 4.81002 1.32717 4.35751 0.0719064 0.581894 0.539705
145 1 0.415789 2.93404 1.16082 0.54951 -0.807667 -0.720458
146 1 1.06491 2.46057 2.99413 0.699815 0.669815 0.988615
147 1 7.45414 2.08864 7.98763 0.968598 -0.313649 -0.546438
148 1 1.8268 5.73198 3.84418 0.568809 0.223194 0.0378268
149 1 3.22636 0.723092 2.06922 -1.03507 -0.267991 -0.197752
150 1 0.270919 6.47344 4.17532 0.593976 0.489882 -0.256419
151 1 7.0803 7.5449 6.53268 0.128288 0.623758 -1.33247
152 1 6.183 0.324891 4.48314 0.716853 -1.52079 0.343706
153 1 0.820073 8.17354 9.1012 -0.575565 -0.249208 -0.244121
154 1 2.98003 4.4845 0.17707 0.863942 1.58729 -0.378801
155 1 0.810794 7.99856 3.94826 0.271311 -1.65317 0.893667
156 1 5.60047 2.19052 7.79909 -0.17978 -0.482841 -0.592799
157 1 7.62402 6.21026 9.21636 1.26167 -0.633263 -0.358357
158 1 2.99288 0.899963 6.54082 -0.44818 0.958908 0.961364
159 1 1.55936 6.58222 7.91093 -0.0615061 -0.607691 1.75012
160 1 5.90504 6.3159 6.63196 0.404116 -0.434475 0.269011
161 1 2.32733 2.28405 7.44112 0.391492 -0.197642 -0.205971
162 1 0.47045 3.04941 3.69369 -0.558569 -0.120915 -0.259432
163 1 5.85492 1.69932 6.78172 0.168216 -0.693026 -0.290346
164 1 3.36099 0.108316 7.39053 0.942078 -0.400502 -0.369216
165 1 8.36859 5.9587 6.33381 0.072331 0.510057 -0.960385
166 1 6.11967 7.29846 7.03979 -0.227231 0.785119 1.20351
167 1 3.34292 9.20345 0.407917 -0.195899 -0.417864 -0.559558
168 1 7.49327 4.90618 1.88003 0.0549678 -0.258508 -1.30181
169 1 1.85586 4.79444 0.106673 0.626186 0.99606 -0.0903083
170 1 6.39704 3.28432 3.40463 -0.593537 0.286313 -0.8398
171 1 6.88289 8.77291 6.29313 -0.35179 -0.504222 -0.070585
172 1 3.13309 8.21705 8.35635 -0.653653 -0.457868 0.99528
173 1 2.50246 5.27389 0.751212 0.891321 0.904047 0.452186
174 1 5.39511 2.96444 8.38705 -0.12167 0.328295 1.45545
175 1 7.73869 3.61172 0.577952 -1.34882 0.456908 -0.0531567
176 1 2.20787 0.345066 1.97111 0.0317668 0.403129 1.33695
177 1 4.86126 6.03085 1.62514 -0.171001 -0.862994 1.14629
178 1 5.83797 1.98615 2.65468 -0.259694 0.403125 0.906662
179 1 6.3162 1.96443 3.74241 -0.155332 1.84873 -0.613487
180 1 0.946825 1.72984 8.2972 -0.707824 -1.1682 0.939224
181 1 8.24017 3.75018 2.30548 -0.353202 -0.74927 -0.29716
182 1 2.68426 8.30483 3.7792 0.641274 -0.643255 -0.125202
183 1 4.58089 5.47063 0.674024 -1.07943 0.529349 -0.0442198
184 1 6.76892 7.54038 8.02487 -1.93546 0.606134 0.786346
185 1 0.920724 7.16677 4.65786 -0.0210976 0.702335 0.49126
186 1 0.485036 1.95086 1.98584 -0.446653 1.32608 -0.326669
187 1 2.43326 0.996905 3.72013 0.15292 0.160387 -1.09893
188 1 1.2148 6.69227 0.121961 0.104926 -1.45561 0.413848
189 1 3.57049 5.90315 5.70956 0.157959 -0.174812 -0.193351
190 1 3.38847 2.74151 1.96854 0.165456 0.0337781 -1.3069
191 1 4.91743 4.44436 5.92076 0.429636 -0.613923 -0.169033
192 1 3.97013 0.376181 6.44577 -0.0155677 -0.800173 1.13689
193 1 4.72393 1.60116 1.86467 -0.169302 0.224344 0.00208919
194 1 3.47063 9.15174 3.95413 2.08838 -1.00402 -0.426579
195 1 5.80881 8.01251 4.07703 -1.15148 0.232376 -0.970461
196 1 2.15764 8.84451 2.89074 1.14618 -0.061228 0.421349
197 1 5.47761 3.32631 1.64666 -1.00322 0.695896 -0.651342
198 1 6.82381 0.602375 0.0890748 0.0462266 0.812246 -0.980005
199 1 3.55001 0.0844752 5.54242 -0.0448057 -0.201251 -0.357701
200 1 0.543049 0.477746 7.37784 -0.510625 1.20468 -0.804533
201 1 5.59247 2.39364 5.00054 0.712263 1.12559 0.492209
202 1 3.96518 5.8836 3.95598 0.555965 -0.222493 -0.740664
203 1 4.0633 2.52951 6.66259 0.107171 -0.2205 0.841335
204 1 5.26409 7.14819 0.154293 -0.140058 0.43846 0.647078
205 1 4.12424 1.3999 6.36185 0.0601295 -0.353444 -1.53451
206 1 5.0203 0.136991 6.46159 1.08254 -0.595887 0.0988927
207 1 6.71481 4.98839 2.77149 -0.250718 -0.16376 -0.805616
208 1 0.521983 5.93867 1.41952 0.710411 -1.19725 0.058646
209 1 5.96037 0.594577 6.76163 0.220773 0.619081 0.0879529
210 1 0.210818 5.26318 7.36567 -0.927454 0.598944 0.441866
211 1 6.0973 1.38777 1.85675 -0.200594 -0.158365 -0.283082
212 1 5.00554 5.74801 3.56229 1.11056 -0.047074 0.195907
213 1 1.92934 6.44432 6.50437 -0.527478 0.0125066 0.173449
214 1 7.55723 1.97327 2.35407 0.434136 -0.283063 0.358325
215 1 6.74007 6.25497 2.74894 -0.0465215 -0.513903 -0.0800504
216 1 7.11123 3.06711 7.51775 0.843232 -0.492948 0.261273
217 1 3.26053 9.01224 6.41539 0.174817 -0.986933 -1.50896
218 1 1.51039 1.96498 2.21421 -0.705947 1.0983 -0.289507
219 1 7.35882 4.37981 8.53275 -0.00674264 1.91513 0.22886
220 1 6.92285 0.0746099 8.63747 1.72171 -0.394193 -0.177806
221 1 5.00549 8.74831 7.38297 1.5035 0.262875 -0.145281
222 1 4.93047 4.2939 0.643002 0.570303 -1.52595 0.95673
223 1 2.28147 0.101423 0.433116 0.840508 1.09057 -0.216075
224 1 6.89478 4.18271 3.72805 0.852711 0.110602 -0.487346
225 1 1.32124 2.70817 0.392175 -0.255787 0.480968 -0.581701
226 1 2.94537 1.65023 8.03096 -0.320783 -0.224929 0.852726
227 1 8.29567 5.79555 5.26789 0.453598 0.0517375 0.0411708
228 1 6.10821 8.58781 8.72613 -0.384638 -0.604357 0.549856
229 1 0.136633 1.76238 5.80445 0.579385 -1.33799 0.039459
230 1 6.77717 0.200091 1.10975 -0.529593 -0.745054 -0.0733931
231 1 8.70244 3.09733 6.58989 0.618352 -0.189178 0.219878
232 1 6.62187 4.08273 7.83764 -0.11127 -0.0938731 -0.197289
233 1 0.608885 0.408242 2.59193 1.33483 -0.174684 -0.0817594
234 1 4.96205 7.36923 2.71263 0.208328 0.329399 -2.1233
235 1 5.23497 7.77057 1.00645 0.666097 -0.280294 -0.109825
236 1 9.10752 3.78542 3.95021 0.0583982 0.980523 -0.277019
237 1 8.00296 2.08294 6.25703 0.78173 -0.142499 -0.202261
238 1 7.26138 0.788416 7.8932 1.04587 -0.488761 -0.411031
239 1 5.32264 4.6877 6.9258 0.547699 -0.693801 0.316447
240 1 1.74715 1.7703 0.742008 -0.136195 -0.850499 -1.02262
241 1 3.34666 5.39733 3.20827 1.37707 0.550706 -0.330107
242 1 4.3257 5.35114 8.42866 -0.962141 -0.677349 0.281255
243 1 5.88024 1.05914 3.8516 0.272359 1.43235 0.0721612
244 1 7.58483 4.88801 3.4944 0.0887938 -0.338834 -1.6777
245 1 7.40916 3.90206 1.72788 1.25732 -0.160441 -0.937215
246 1 9.14866 1.35481 3.696 -0.302067 0.411728 0.597606
247 1 4.96868 2.8671 9.31033 0.101288 0.847682 -0.211343
248 1 5.89065 8.83713 4.85506 0.882953 -0.172038 -0.789932
249 1 6.61118 4.89212 5.94318 0.721304 2.62471 0.522424
250 1 5.21983 4.65322 3.16193 0.264854 -0.17107 0.0829305
251 1 7.85084 4.91298 5.06083 0.923932 0.0521721 1.39537
252 1 9.19757 5.77024 5.80946 -1.15692 -0.400342 0.911148
253 1 1.98383 7.71032 1.35644 -0.25496 -0.30546 -1.28992
254 1 5.52256 2.75513 0.752244 -0.187935 -0.228601 1.21546
255 1 4.53138 3.43655 2.34377 0.495609 0.348064 0.0433551
256 1 9.17083 5.26057 1.82088 -0.31005 -0.548768 -0.246581
257 1 0.534065 9.0162 3.34572 0.64381 -0.415234 0.621704
258 1 3.30736 6.70264 1.66451 1.0063 0.00525252 0.0291552
259 1 6.20559 2.19837 5.84807 0.138935 0.107273 0.432909
260 1 4.48939 2.62723 1.73222 -1.05418 -1.69191 -0.84789
261 1 8.69138 8.36276 8.42989 0.438311 -0.213015 -0.175085
262 1 8.20658 2.69697 8.30474 -1.6748 0.0252802 -1.54852
263 1 6.80197 3.92134 6.231 0.00883051 -0.289761 -0.0273424
264 1 6.86925 0.673873 5.18015 -0.0516272 0.392399 -0.161385
265 1 3.77649 1.79023 1.67238 -0.820454 -0.171575 -0.0721856
266 1 0.542223 7.45082 0.413091 -0.0401496 -0.620284 0.345053
267 1 5.99068 4.9467 2.10783 0.149391 0.340039 -0.0338956
268 1 4.45619 1.08471 0.868675 0.448596 -0.542175 0.591246
269 1 3.7639 3.93923 0.563689 -0.296116 -0.045126 0.768649
270 1 7.21039 7.53152 1.42911 -0.423832 0.0361691 -0.20608
271 1 0.15302 8.01541 1.52081 0.907798 0.201689 -1.7388
272 1 1.88591 3.63363 1.92063 0.868429 -0.254871 -0.260605
273 1 9.09095 4.73977 3.41828 -0.0593924 -0.553411 0.194715
274 1 4.15468 3.05646 8.52868 0.526024 -0.217796 -0.166101
275 1 4.94985 0.26583 9.19592 0.0302104 -0.0111895 -0.275536
276 1 0.765806 0.639699 8.47004 -1.81117 -0.796745 0.409214
277 1 7.53757 4.57052 0.814112 0.843909 -0.688598 -0.00804063
278 1 3.66276 2.88522 5.76949 0.0326902 0.170748 0.0939796
279 1 1.18801 3.75196 1.10828 0.560565 0.424464 -0.0298187
280 1 3.19763 1.84755 7.06026 0.0934624 -0.488562 -0.566097
281 1 3.44224 6.93739 2.67075 -0.606731 -0.323675 0.321319
282 1 1.61139 8.61617 3.75655 -0.739732 -0.136669 1.18701
283 1 2.08798 5.39171 6.83822 0.499912 -0.154644 -0.638163
284 1 6.37457 6.3117 4.98051 -0.85789 0.493979 -0.318761
285 1 0.410947 9.11034 6.23562 -1.04236 0.183037 -0.49888
286 1 0.560641 3.27586 7.29556 -0.111542 -1.62981 -0.168881
287 1 4.45872 9.12137 5.66883 -0.120034 0.273959 0.582437
288 1 8.52894 6.73238 1.69431 0.447756 -0.544791 -0.544824
289 1 0.681623 1.43595 2.79171 0.804862 0.492846 0.178634
290 1 4.74266 4.60687 7.86471 -0.255891 0.857482 -0.316624
291 1 0.17097 3.72395 5.35796 -0.888332 0.91041 -0.123079
292 1 5.4233 2.81513 6.91895 1.99076 0.254554 -0.10117
293 1 7.723 4.33038 6.04401 -0.914397 1.32001 0.453573
294 1 9.05522 2.82639 7.71215 0.108732 0.79449 -0.37561
295 1 5.04137 3.69145 7.42575 0.977247 0.274946 0.342685
296 1 8.56982 4.92873 8.64192 0.0624762 1.8087 -0.318864
297 1 1.32951 3.88976 6.77447 -0.66741 -0.46068 0.126005
298 1 8.98626 2.11005 6.6287 0.720339 -1.00143 -1.11559
299 1 4.33546 8.73589 6.63162 1.05838 -0.0501511 -1.21449
300 1 1.96898 1.76348 5.15866 0.911537 0.033545 0.957407
301 1 5.07568 7.28595 7.43452 -0.715293 -0.793153 0.588271
302 1 8.90397 6.83134 6.00064 -0.918154 0.468962 -0.0818829
303 1 5.91189 5.21827 5.2445 0.165888 0.761223 0.541599
304 1 1.46622 7.45636 8.76591 0.300969 -0.23831 -0.785394
305 1 5.90266 8.91294 6.72351 0.848199 -0.0511609 0.634422
306 1 0.100768 9.19657 0.980816 -0.169992 1.06037 0.0630856
307 1 4.73842 2.35884 4.37874 0.0220628 0.369798 0.428363
308 1 3.36262 9.2196 8.50921 0.848871 -0.151167 -0.650537
309 1 9.39096 7.02734 7.23688 0.477063 -0.414369 -0.38322
310 1 7.97148 6.57376 3.57656 0.264955 -0.0498155 -1.18188
311 1 0.824077 8.48513 0.773283 0.143985 -0.557063 0.204389
312 1 2.471 7.70182 9.12512 0.740169 0.709566 0.410044
313 1 6.37742 6.98994 3.27616 0.213946 0.470785 0.211001
314 1 5.73825 0.904256 0.235379 0.100471 -1.01633 1.35521
315 1 5.99391 6.93596 8.07063 -0.179396 0.0365697 -0.242855
316 1 0.0578672 4.27729 8.87734 -1.84306 -0.391433 0.21518
317 1 6.69946 5.37574 3.82394 0.0869338 1.02443 0.707077
318 1 7.95771 2.29795 3.22766 -1.42815 -1.1242 0.657174
319 1 0.994325 1.40398 1.35311 0.129386 0.23556 0.44128
320 1 0.12174 5.64114 4.73107 0.0211764 -1.45259 -0.0813868
321 1 8.411 4.12217 1.20068 -0.288273 0.730201 -0.947987
322 1 7.36641 9.23293 4.1821 0.285011 -0.00169126 0.103233
323 1 9.2277 2.63226 0.171471 -0.744361 -0.619184 0.0846448
324 1 9.38217 5.18742 0.0788016 1.06886 0.0533892 0.0792337
325 1 9.18798 7.62797 8.9981 0.384016 -0.397442 0.476595
326 1 2.31822 2.10443 3.99361 0.508949 0.474601 0.876563
327 1 1.48726 5.11178 1.12205 0.449157 -0.0650777 -0.179361
328 1 5.73742 3.81212 6.65156 0.431977 1.06008 0.261112
329 1 0.186665 6.98008 1.36699 0.510854 -0.322186 -0.799182
330 1 5.17549 4.15965 2.28649 -0.110835 -0.500019 -0.522089
331 1 1.36551 0.154045 3.9432 -0.192127 -0.498894 0.30547
332 1 2.91205 2.79578 6.53636 0.145039 0.0200797 -0.334351
333 1 1.3153 4.2582 8.72642 -0.728646 -0.684764 0.506452
334 1 1.17005 4.95658 7.12789 -1.17882 -0.264197 0.130337
335 1 6.6106 4.8402 1.22414 -0.848678 -0.157955 -0.0615368
336 1 7.69421 5.66045 4.26302 -0.133827 -1.10512 -0.169786
337 1 8.17729 1.10539 4.86883 1.16112 0.252021 -0.136404
338 1 3.88971 0.694029 3.85935 -0.191932 -0.0896568 0.925846
339 1 8.0574 6.45779 0.758712 -0.437372 -0.38456 0.816591
340 1 4.23748 6.09711 7.51845 -0.438489 0.0598751 -0.764431
341 1 7.0979 7.20952 8.90938 -0.436072 0.277148 0.970224
342 1 8.23269 2.47579 4.79681 1.45035 -1.20595 0.259298
343 1 2.60274 6.28247 3.20951 -0.110827 -0.757926 0.350575
344 1 3.23816 4.98359 8.67927 0.355987 -0.192972 -0.174247
345 1 6.92862 6.37409 8.27367 -0.736181 -0.0925874 -1.06624
346 1 8.14973 2.99889 1.56916 0.553263 0.855017 0.471418
347 1 8.30255 6.24334 8.34493 0.25142 0.552099 -0.123072
348 1 8.93444 2.45024 3.83985 -0.0308505 0.596573 -1.00547
349 1 2.64659 3.31003 2.51996 -0.63201 0.297027 -0.0860841
350 1 0.416634 4.26542 6.9354 -0.314993 -0.424748 -1.22475
351 1 5.3703 9.28156 2.32593 -0.436217 0.589126 0.165274
352 1 3.96431 6.1286 1.11354 -0.807826 -1.28936 0.012067
353 1 7.48905 7.45056 4.03473 -0.275392 -1.91994 1.21339
354 1 2.34105 7.13361 8.23452 -0.559903 -0.447755 0.326345
355 1 7.39491 8.8835 3.17942 -0.0474373 -0.892123 0.149137
356 1 6.13857 1.13088 5.86553 -0.409012 0.838603 0.310658
357 1 1.33122 4.69883 5.95249 0.118926 0.124204 -0.346485
358 1 4.71879 2.88417 5.34804 0.661536 -0.0890183 0.0720786
359 1 0.818636 5.15795 8.82051 -0.812602 0.036649 0.50053
360 1 6.43147 2.28355 0.681837 -0.192491 0.0807149 0.374932
361 1 7.84373 9.28957 6.54893 -0.762811 -0.016715 0.595498
362 1 2.82037 7.02337 6.56347 -0.485423 0.116599 0.0257426
363 1 8.21522 5.78326 1.5813 -1.93675 -0.146789 -0.184387
364 1 1.93742 0.603182 5.99503 -0.855459 -0.898717 1.10439
365 1 5.09752 6.39085 8.23662 0.215422 0.124192 0.562442
366 1 1.52543 8.82647 0.136078 1.2733 -1.22602 -0.858703
367 1 0.582619 2.63772 5.30982 0.6208 -0.875111 0.597643
368 1 3.88322 7.55752 4.98026 -0.211212 1.81174 -0.0885312
369 1 6.85829 7.31319 2.33807 -0.971546 -0.229989 0.991671
370 1 1.40799 0.982416 2.19535 0.807077 1.61839 0.864095
371 1 1.77971 8.99387 4.68068 -0.224896 0.348372 -2.15463
372 1 4.02747 3.85195 5.46377 -0.592244 0.386997 0.777181
373 1 5.21489 1.0438 7.52555 0.165828 0.573298 1.85121
374 1 6.69262 8.38423 0.920893 0.615344 -0.759715 0.231703
375 1 2.41276 8.89018 7.85988 0.36121 -0.673549 0.603671
376 1 5.77137 4.23063 1.3833 -0.36345 -0.0684356 -1.67698
377 1 9.06121 8.45407 6.56116 -0.394203 1.3179 0.256212
378 1 3.17133 5.59167 1.49296 0.559455 0.956005 -0.122004
379 1 8.10063 8.36154 4.07229 -0.800694 -0.229729 -1.12883
380 1 0.697333 4.49697 7.96494 0.0702173 -0.20763 0.335725
381 1 3.12073 2.53447 8.64726 0.196428 0.250352 0.139414
382 1 5.16577 1.06986 6.25121 0.144612 0.692639 -0.412905
383 1 2.81989 9.32194 1.28947 0.920239 -0.481654 0.330533
384 1 2.09884 6.21929 4.75251 0.922765 -1.07424 0.677353
385 1 4.49305 6.8104 9.01086 0.153384 -0.122411 0.160668
386 1 1.76136 7.57559 6.6028 0.0617544 -1.19155 -0.413031
387 1 8.23511 1.99887 9.07316 -0.544348 -0.823602 -0.567481
388 1 2.96654 3.51368 1.18614 -0.567095 -0.617432 -0.162659
389 1 4.84002 1.84192 7.05387 -0.775024 0.787968 1.18972
390 1 0.933317 5.20277 4.09588 0.0879179 0.14337 0.0575584
391 1 6.75032 8.01118 3.44343 1.53311 -0.446253 -1.13316
392 1 1.84308 6.15109 0.723539 1.14288 -0.537222 1.1678
393 1 1.31318 9.30515 6.7026 0.968634 -0.216927 0.224115
394 1 2.63144 6.4702 5.63411 -0.360853 -0.485151 -0.824673
395 1 6.37467 1.68061 9.22834 -0.367309 -0.108872 1.03347
396 1 2.33814 3.23574 8.04024 -0.51543 1.5991 -0.408602
397 1 5.90411 5.50981 3.01754 1.25895 -0.0218693 1.25828
398 1 7.406 5.58676 0.751671 -0.461025 -0.899206 -0.615459
399 1 6.61279 3.43089 4.46562 0.753921 0.168198 -0.275475
400 1 8.74549 5.93359 4.14693 0.465463 -0.439668 0.908521
401 1 5.51534 6.254 0.823772 -0.816462 0.320191 0.0463654
402 1 8.69734 4.19125 4.93926 -0.0516475 -0.201991 -0.167988
403 1 7.28899 2.5501 3.9587 0.305091 -0.0442021 -0.0220362
404 1 0.396486 0.760044 0.683766 0.0702039 -0.541694 -0.422837
405 1 3.70196 5.49534 6.89341 0.500146 0.0613942 0.211134
406 1 5.37834 1.40531 1.12242 0.330298 0.920492 0.275589
407 1 3.92417 7.89264 2.24722 0.890061 0.53971 0.433919
408 1 0.941016 2.9345 2.06643 0.734966 -0.798544 0.169428
409 1 7.84151 8.65768 4.96401 0.683648 -0.503509 1.30468
410 1 6.10652 3.52482 0.689594 -0.749669 -0.542526 0.0676865
411 1 3.55254 3.93081 2.10162 0.0832314 1.1619 -0.727839
412 1 3.27134 6.58589 4.81877 -1.23722 -0.669161 0.172095
413 1 2.18121 8.90903 6.21203 -0.739721 0.134014 0.566091
414 1 7.06318 6.55869 0.629689 -1.91306 0.440265 1.26243
415 1 8.81008 8.80267 1.74221 -0.213489 0.284147 0.51215
416 1 7.45981 6.5938 1.62061 -1.50143 1.35711 0.987893
417 1 1.1425 0.503782 0.0164381 -0.276368 0.0746056 0.18615
418 1 7.20659 2.33808 8.9012 -0.128657 0.846883 -0.539397
419 1 1.68684 4.32026 4.06608 -0.0326933 -1.03089 1.52623
420 1 6.33897 6.4529 9.23202 0.321706 0.334876 0.0345315
421 1 9.26921 6.59852 8.29634 0.156102 -0.267095 -0.75418
422 1 7.19879 1.51331 3.5058 -0.215419 -0.753282 0.755529
423 1 8.39095 4.8492 2.50681 0.116014 0.637889 -0.0523174
424 1 3.56708 3.14144 2.96637 1.72559 0.15884 -0.428451
425 1 0.274424 4.81919 2.61753 -0.217471 0.643149 0.390173
426 1 8.16723 2.38234 7.30073 0.765914 -1.29185 -0.246559
427 1 8.15828 1.17579 1.96572 0.0237429 0.273188 0.672729
428 1 2.3874 7.29418 3.42286 -1.01251 -0.659656 -0.583758
429 1 3.94505 1.97611 8.27854 0.223632 -1.28812 0.939434
430 1 6.3049 8.88946 3.88429 -0.0426548 1.22254 0.131043
431 1 0.0163091 6.13768 6.78453 0.0470614 0.502645 0.397565
432 1 0.670398 6.57769 3.23174 0.181338 -0.915673 -0.791585
433 1 7.38259 4.23246 2.70487 0.41778 0.64978 -0.675832
434 1 0.898785 1.6558 4.96184 0.113047 0.492918 -1.34317
435 1 6.8868 8.22496 4.46156 -1.23328 0.104551 0.155922
436 1 1.73498 8.46746 7.21113 -0.471593 -0.163736 0.690106
437 1 2.31706 4.37099 2.52455 0.184131 -0.408697 0.145639
438 1 2.59612 5.99466 2.18948 1.3635 -0.500652 -0.0627839
439 1 1.43133 3.72187 7.81588 0.835898 0.467512 1.56591
440 1 2.5522 1.21665 0.502208 0.271687 0.172158 1.09684
441 1 4.95361 2.09542 8.6283 -0.452891 -0.86427 -0.564461
442 1 2.76592 8.06988 6.41935 -0.132203 -0.682472 0.851959
443 1 0.577843 4.78418 1.41237 0.0108279 -0.277223 -0.11745
444 1 7.48872 3.98667 7.04139 -0.355972 0.487574 -0.228773
445 1 2.31079 0.19226 7.03699 0.35291 -0.789305 0.452311
446 1 8.30879 1.48334 8.16501 0.131587 0.681493 -0.164351
447 1 8.25855 3.17104 9.22925 -0.484511 -0.953961 0.880122
448 1 1.35497 7.45179 3.20836 0.481761 0.347344 0.454555
449 1 5.82463 0.45279 1.36561 0.512369 0.411598 -0.217125
450 1 2.58281 8.83061 9.08347 0.0376216 0.757033 0.293399
451 1 0.600016 3.46767 8.38914 -0.967988 -0.371999 -0.991099
452 1 9.33185 6.87005 2.34883 -0.229223 -0.591747 1.62792
453 1 4.59019 2.12147 0.789102 -0.694008 0.999525 -0.195061
454 1 0.471613 9.1559 9.36295 -0.146443 0.382358 -0.830451
455 1 4.2425 6.94932 4.19175 0.694192 -1.73454 -1.1226
456 1 1.15516 3.71794 5.81279 -0.385699 0.726194 0.786162
457 1 6.59387 3.15951 5.53453 0.667495 -0.858081 1.23261
458 1 1.24363 8.12206 4.90646 0.772531 -0.607224 -0.494384
459 1 7.0767 1.7467 6.41585 -0.135458 -0.0629093 -0.417171
460 1 3.29607 4.54839 5.22149 -1.66173 0.166025 0.0495469
461 1 1.16292 1.64789 6.02315 -0.0391914 0.420013 0.326362
462 1 6.49132 6.69431 1.44993 0.980015 0.0487475 -0.689799
463 1 1.62416 0.819533 0.892584 0.924977 -0.124895 -0.645666
464 1 1.34848 9.35154 7.80992 -0.0502412 0.122767 -0.362533
465 1 2.77316 0.954686 5.49919 0.67016 0.421933 -0.814369
466 1 2.31761 1.23928 7.16781 0.550045 1.0602 1.02224
467 1 6.57839 1.55196 8.24264 -0.323259 -0.431191 -0.52112
468 1 6.37433 6.87869 5.90981 1.01513 0.310338 0.288694
469 1 1.70192 1.65317 3.2322 -0.311834 -0.154346 -0.775878
470 1 0.583264 8.85865 4.43355 0.557157 -1.02321 1.55752
471 1 7.76257 8.87719 8.72786 -0.215198 -1.19667 1.71635
472 1 9.24603 1.92242 4.75237 0.189348 -0.450316 0.0546297
473 1 6.41983 2.73044 8.24514 0.336366 -0.0986374 -0.44969
474 1 0.276814 8.40138 5.48831 -0.392908 -0.744849 -1.68704
475 1 0.0172887 2.42349 2.91437 -0.116983 0.112628 -0.772559
476 1 1.77903 2.88107 6.84253 -1.5293 0.761108 0.164714
477 1 3.66073 0.218931 2.92021 0.0974888 1.24862 0.0875284
478 1 3.55173 5.36071 0.543049 -1.18602 -1.05649 0.342187
479 1 9.1937 3.84461 7.85343 0.551822 -0.685966 0.0283929
480 1 1.60494 8.52691 8.47794 0.893377 0.182578 1.83807
481 1 4.563 3.35429 0.850792 -0.279855 0.00885209 0.316495
482 1 4.74968 3.46913 4.26098 0.454837 -0.258103 -0.74231
483 1 1.13109 6.14129 4.67791 -0.11588 0.999986 0.629899
484 1 1.82111 2.58903 1.36899 -0.563473 -1.0285 1.05735
485 1 1.27092 9.01835 5.55025 0.687713 -0.982994 0.0607051
486 1 7.53415 8.66763 1.36477 -0.196328 0.474345 -0.833178
487 1 8.58227 7.59266 6.90778 -0.238229 -0.185542 -0.658204
488 1 0.497044 6.56826 5.78831 -0.294965 -0.311863 0.863116
489 1 0.708891 2.40974 6.45154 -0.379824 0.342738 0.499172
490 1 4.74945 8.11863 3.94939 -0.631512 -0.912424 -0.00430239
491 1 2.94466 7.99332 2.72688 0.516389 -1.35247 -1.19831
492 1 3.02108 2.22242 3.13372 -0.035684 -0.509425 -1.6201
493 1 8.32742 3.53782 5.69466 0.61115 0.334775 -1.43706
494 1 6.31804 1.25579 3.00191 -0.627336 0.416282 0.729267
495 1 1.03524 7.52845 5.71146 -1.19333 -0.15265 0.386776
496 1 3.25153 1.84036 5.9654 0.414817 -0.300934 0.866907
497 1 2.18356 4.44631 6.4928 0.198298 0.680092 -1.61844
498 1 2.63615 3.04213 4.40679 -0.668552 0.117622 -0.0962258
499 1 4.24743 7.04256 8.01551 1.11152 -0.222068 -0.067118
500 1 7.49026 1.2443 8.79818 -0.209855 -0.712303 -0.917591
501 1 7.774 4.02612 4.30972 0.988736 0.193351 -1.3135
502 1 1.32132 1.91533 7.1031 -0.126224 0.483115 -0.521649
503 1 6.18257 0.608101 7.8897 -0.394985 0.329671 0.0639609
504 1 7.53465 6.98071 7.53945 0.148592 -1.93392 0.489981
505 1 4.73075 5.21049 4.45544 0.207759 0.316709 0.366118
506 1 7.73214 6.79977 2.58783 0.88892 -0.0861301 -0.276886
507 1 0.873148 0.280114 1.52866 -0.179106 0.963596 -0.505163
508 1 4.44173 8.82597 2.36166 -0.819493 0.711856 1.11056
509 1 5.9757 0.221159 8.91283 -0.268314 -0.976595 0.848425
510 1 9.06006 6.13847 0.903825 -0.0822882 -0.297883 0.141735
511 1 8.93986 8.70985 4.66396 0.68012 -0.126873 -0.461787
512 1 8.16011 2.44809 0.58596 0.73975 -0.707956 -0.138043
513 1 9.11568 3.0718 1.97727 -0.424365 -0.527744 0.995682