ITEM: TIMESTEP
23730000
ITEM: NUMBER OF ATOMS
1000
ITEM: BOX BOUNDS pp pp pp
0.0000000000000000e+00 9.4000000000000004e+00
0.0000000000000000e+00 9.4000000000000004e+00
0.0000000000000000e+00 9.4000000000000004e+00
ITEM: ATOMS id type x y z vx vy vz
1 1 1.91804 4.37031 8.63368 0.97479 0.673364 -0.597656
2 1 7.55649 3.63942 1.08631 2.0461 -0.693827 -0.90556
3 1 2.88548 4.6586 2.18176 -0.285935 0.909174 -0.408615
4 1 7.35778 7.24006 7.72811 0.403925 0.234534 0.516134
5 1 2.06109 0.384605 4.19064 0.970005 -0.608496 -0.92274
6 1 6.40649 8.41419 7.32052 -0.179083 1.06345 -0.339324
7 1 0.34009 8.26033 8.19286 -0.00459626 0.867827 -0.130851
8 1 5.12086 1.43631 5.2731 0.294623 0.0731529 0.181629
9 1 3.09722 3.80197 6.25829 -0.355095 0.577378 1.11415
10 1 9.19778 7.56369 7.31021 -0.565105 0.224479 -0.0669421
11 1 7.51284 0.252558 6.3994 -0.751632 0.737321 -0.420435
12 1 8.47428 1.07505 0.22652 -0.665156 -0.170143 -0.402985
13 1 0.639082 3.53044 9.36734 -0.597372 0.509193 -0.519625
14 1 3.74043 5.04827 2.68966 0.396009 -0.375307 -1.399
15 1 6.96727 2.19291 0.630175 -0.713396 0.418112 -0.982718
16 1 1.24137 0.840173 5.54513 1.46929 0.234685 -0.0713767
17 1 9.20779 4.14628 0.427439 0.00435052 0.156912 0.574398
18 1 7.74501 6.62124 0.828891 0.0840664 0.660588 0.0343322
19 1 3.38887 3.46211 8.83363 -0.302458 0.438293 1.92428
20 1 7.15813 5.46817 6.66997 -1.50522 -1.38931 0.209555
21 1 8.2365 3.49702 2.78765 0.674054 0.520217 -0.272491
22 1 3.66043 2.12455 6.53104 0.99219 -0.911277 -0.552515
23 1 5.90359 1.43703 8.47829 0.0909825 -0.137043 -0.815056
24 1 2.91059 1.36791 6.73184 -0.85534 0.3982 -0.531895
25 1 7.58632 0.443086 8.13944 -0.944822 -1.08632 0.833726
26 1 0.537089 4.44681 3.06441 0.315673 1.01759 0.841935
27 1 7.29587 7.89745 1.17521 -0.533381 0.20675 -0.566307
28 1 3.90745 3.73186 4.98643 -1.1685 -0.51723 -1.30297
29 1 2.06638 2.79393 5.26339 -0.194381 -0.638297 -0.0260175
30 1 1.47635 1.90188 5.22661 -0.594664 0.328808 -1.63553
31 1 2.40242 4.84226 1.2703 0.173278 0.209205 -1.87633
32 1 5.83966 6.89513 5.21974 -0.292715 0.330186 1.45904
33 1 2.35864 0.905629 7.69262 0.124354 -0.782051 -0.0124176
34 1 5.81632 8.99015 2.09133 -0.678776 -0.413347 0.621778
35 1 8.43113 2.17757 2.74263 1.27509 0.806088 1.04853
36 1 1.4438 0.347067 1.63475 0.713928 0.990202 0.481247
37 1 5.60492 2.89775 0.676697 0.440976 -0.794839 0.360916
38 1 1.06575 7.88365 4.42353 0.0820989 -0.845569 1.33821
39 1 1.58655 0.133182 6.34144 -0.688299 -0.0658694 -0.758255
40 1 9.30864 2.95006 8.60341 0.485846 -0.938028 -0.731227
41 1 8.46828 7.22995 6.48574 -0.407623 0.678626 -0.726858
42 1 1.94469 7.78164 4.98138 0.199398 -0.384509 0.568415
43 1 2.0438 1.55354 0.235848 1.56017 0.360106 0.438929
44 1 5.50906 4.07788 4.3419 -0.962443 -0.253237 0.0498094
45 1 5.45949 2.06924 6.08136 -0.100482 0.243956 1.294
46 1 2.95538 5.00445 4.82776 -1.04196 -0.517251 0.370129
47 1 1.37203 5.93201 7.12761 -0.521333 1.73768 -1.78617
48 1 4.97479 4.77831 2.57963 -0.20235 -0.58842 0.151159
49 1 4.16902 3.65418 6.9529 0.181132 -0.153324 -0.643232
50 1 2.00228 0.637649 3.1337 1.42772 0.00535793 0.460441
51 1 2.20355 5.58586 3.46695 0.770616 -0.384975 0.8441
52 1 4.01907 1.42677 0.793907 -0.563357 0.599601 -0.353359
53 1 3.8931 2.60917 3.75265 -1.20336 0.180692 1.3739
54 1 8.69563 6.65349 0.352844 0.807781 -0.435592 -1.14764
55 1 1.36378 3.67512 5.13548 -0.361914 0.227453 1.43805
56 1 1.38862 5.76182 8.28724 -1.40826 -0.688939 -1.65598
57 1 1.69066 9.07548 8.17622 -0.232846 -0.133454 -0.133806
58 1 8.95707 8.78771 9.37359 -1.12915 -0.0404529 -0.0142386
59 1 9.2316 0.055437 3.70147 0.394912 0.65537 -0.772829
60 1 0.958168 7.24861 1.04974 0.54938 -0.735257 0.674821
61 1 5.02075 4.08325 1.47335 0.639043 0.90455 -1.0508
62 1 9.30182 0.423035 0.131869 -1.47628 -0.430427 -0.143758
63 1 7.04921 6.60389 0.0643052 0.419248 1.23224 -0.296916
64 1 8.61093 8.07751 8.11387 -0.87934 0.13999 0.329518
65 1 7.31818 2.39531 6.61701 -0.198968 -0.561818 -0.486573
66 1 3.19187 5.01033 7.67207 0.455911 0.0341732 0.0401496
67 1 2.01991 9.27118 2.41438 -0.298041 -0.224348 -0.158694
68 1 5.13274 6.48879 9.31133 -0.655222 0.815574 0.382688
69 1 5.19226 5.09556 1.56548 -0.73721 0.200282 -1.27813
70 1 0.693766 3.62478 4.26391 -0.296591 0.290264 -0.156235
71 1 8.37862 4.41268 0.973033 -0.570181 0.986724 -0.346243
72 1 6.44353 6.3163 6.65498 0.580092 -0.757969 0.782314
73 1 3.61466 6.73002 7.27745 -0.632041 1.17994 -0.765149
74 1 7.85625 7.28827 5.63767 -0.144123 -0.746868 -0.404263
75 1 8.6494 0.345735 7.98619 -1.13331 0.278727 -0.163645
76 1 5.74715 1.89907 0.038245 -0.0209935 0.992297 -0.105872
77 1 3.05652 2.86585 4.46369 0.845125 0.274718 -0.637129
78 1 1.62839 6.83485 1.80178 0.519773 0.175911 0.249969
79 1 5.93089 1.1024 0.86317 0.181772 0.877411 -0.0794561
80 1 1.21211 4.79731 5.25244 0.987742 0.702171 0.541498
81 1 3.70141 0.581959 3.70902 -0.271945 -0.463458 -0.206485
82 1 9.19521 1.82211 4.30101 -1.06202 1.57099 -0.183004
83 1 3.27956 7.28145 3.85169 1.08986 -1.36453 0.659561
84 1 0.65404 6.76347 6.82772 1.49746 0.0013974 0.562191
85 1 1.71618 3.28107 0.382279 0.591651 1.45296 1.00177
86 1 3.75754 6.3665 0.861732 -0.233393 0.354302 -0.244923
87 1 7.99727 3.34268 5.06127 1.20937 -0.163403 -0.295877
88 1 0.386303 8.40705 7.01254 0.0887798 0.0155291 0.507109
89 1 1.32721 2.3505 3.3994 0.0787269 0.727204 0.478764
90 1 6.07722 5.0815 2.70087 -0.874416 0.676343 -0.197994
91 1 1.31479 7.03195 5.24603 0.128124 -0.266117 0.567385
92 1 8.3009 6.89391 7.7892 1.24634 1.01315 -0.772066
93 1 3.01126 8.73229 2.48769 1.14959 0.334056 0.432733
94 1 8.31262 7.0984 2.44307 0.182524 0.467919 -1.05377
95 1 3.62057 5.82914 1.78827 2.30417 1.68246 0.426687
96 1 4.29166 0.681907 7.59289 0.516829 -0.00192129 1.31024
97 1 3.06447 3.48133 2.49199 0.414327 -0.0291151 -0.705744
98 1 6.61591 9.34698 2.56551 -0.644496 -1.17047 -0.617268
99 1 3.88672 0.236801 5.10109 -0.389849 0.3141 0.615753
100 1 5.59239 8.70151 4.2735 0.23818 0.573089 -0.430627
101 1 4.13192 6.81689 1.75499 0.476683 0.255906 0.790127
102 1 7.43721 2.57684 2.66154 -0.558806 0.698065 0.836493
103 1 0.282213 8.13583 1.37915 -0.825687 0.0960338 1.64837
104 1 3.61132 8.45378 8.52852 1.03153 -0.748481 0.984849
105 1 6.55965 7.37279 6.98838 -0.267971 -0.489832 -0.468569
106 1 7.05622 2.93744 5.27875 0.686258 0.44052 1.46328
107 1 7.43714 6.95889 1.94444 0.453657 -0.168457 -0.76613
108 1 6.20525 2.2138 5.24742 0.534013 -1.41677 0.60931
109 1 7.81301 4.4426 3.08425 1.24246 1.06333 -0.379056
110 1 8.65902 4.89145 5.99994 -0.257072 -0.0694502 -0.573167
111 1 3.67147 7.76216 7.6409 0.615229 0.0890643 -0.279828
112 1 5.36027 0.476023 1.51647 -0.0255481 0.695122 0.251743
113 1 1.54069 5.23662 9.10378 0.406934 0.512023 -0.156004
114 1 2.45436 5.96919 4.35108 -0.375227 -0.633116 -0.000421535
115 1 6.12966 1.10679 5.1941 0.397805 1.41798 -0.694184
116 1 6.31742 5.06945 8.40037 0.823546 -0.105009 1.14966
117 1 7.92939 5.92624 9.28771 -0.668647 -0.647927 0.273432
118 1 7.35498 1.78434 7.6226 0.242111 -0.100434 -0.625706
119 1 9.27853 7.45769 2.1949 0.315109 -0.300784 -0.428408
120 1 4.07686 6.55806 3.4177 0.392192 1.40942 -0.75306
121 1 5.67891 7.20108 6.30013 0.847678 0.120664 1.47915
122 1 9.08786 0.97379 8.74983 -0.414284 0.303486 0.500478
123 1 2.10299 1.06494 4.98104 -0.134013 0.628669 0.223161
124 1 4.84554 8.8264 3.38785 0.179072 0.729349 -0.758546
125 1 7.63111 4.34298 4.77635 1.50983 0.289796 -0.12291
126 1 0.510632 5.60074 8.70913 0.400113 -0.464482 -0.356745
127 1 2.61752 8.72057 5.38146 0.243587 0.0941042 -1.60534
128 1 4.51875 9.05918 8.37432 0.895818 0.485652 0.82901
129 1 2.94453 3.86146 1.52015 -0.324154 -0.602173 0.585763
130 1 2.72006 7.25539 7.64645 1.03149 -1.09641 0.281338
131 1 0.876858 1.69554 4.29968 0.94177 -0.0251186 0.43887
132 1 7.27731 5.82786 4.85205 0.180037 1.29722 0.438793
133 1 6.85769 6.93868 1.07679 1.21465 -0.251667 0.486715
134 1 4.94888 1.12024 6.25821 0.486846 -0.0262024 0.495302
135 1 4.71832 2.10138 4.441 0.241408 1.36982 -0.346108
136 1 1.73411 0.710198 8.45131 0.246131 -0.0332126 0.26858
137 1 2.43238 5.31652 8.54812 -0.0227313 -1.47232 0.145392
138 1 6.54519 4.79685 7.27338 0.703589 0.423527 0.141902
139 1 0.0945303 7.67576 4.05864 -0.19149 0.495715 0.856847
140 1 2.83479 5.1867 5.91275 1.19669 0.206365 -0.279734
141 1 2.9072 8.02097 4.64824 -0.709586 0.414463 0.147182
142 1 1.5398 3.26097 8.75848 -0.638238 -0.141334 -0.530053
143 1 4.94724 7.80936 6.99609 0.593517 1.16626 -0.908694
144 1 1.70219 4.32448 6.99663 0.153146 0.0772781 -0.752863
145 1 5.79326 4.16178 8.19573 0.695503 -0.388273 -0.301091
146 1 7.78706 0.040069 2.69163 0.972252 -0.131196 0.0359987
147 1 3.52166 8.93908 5.93184 -0.174821 -0.230944 0.490175
148 1 4.78392 4.10701 7.68479 1.00565 0.577978 0.474514
149 1 9.15119 6.43526 2.52844 0.102508 -1.48574 -1.2337
150 1 5.60311 0.414612 6.63503 -0.0951221 0.299162 1.28773
151 1 1.03538 8.04157 5.54506 0.542018 1.20378 0.285922
152 1 4.48606 7.38594 9.13982 -0.235265 -1.81698 -0.205898
153 1 0.134928 6.59311 9.06057 1.28433 0.846003 0.15249
154 1 6.46626 4.23206 9.00881 0.393103 -1.19742 -0.972735
155 1 6.23846 6.18457 3.21092 -1.58583 0.64232 1.23733
156 1 4.66628 0.48789 3.54227 -0.75976 -0.0898745 -0.263076
157 1 7.36596 1.32592 6.57383 -0.567176 -0.647427 -0.280089
158 1 3.04447 1.81555 7.75779 -0.167064 -0.734704 0.147893
159 1 0.472034 8.68082 3.90555 -0.337287 1.70955 -0.498875
160 1 6.4344 8.21619 6.29846 0.364671 -0.0369922 0.81608
161 1 0.28879 4.58202 1.95763 0.271875 0.272489 0.557068
162 1 0.285413 1.42135 0.31591 0.0189096 -0.287827 0.723545
163 1 9.16014 3.47783 7.20917 -0.157645 1.06048 0.0209896
164 1 5.16702 6.64917 3.24045 0.323023 0.246518 0.634451
165 1 6.62338 7.68625 1.94969 0.575859 0.553719 0.146235
166 1 0.292241 4.45562 4.93516 0.0545096 -1.3164 0.774704
167 1 4.14514 7.37869 2.63119 -0.108642 -0.72646 -0.726282
168 1 7.38915 4.62691 9.19972 0.325674 0.716619 -1.21148
169 1 3.64216 5.69925 7.02027 -1.00747 -0.37181 0.255368
170 1 3.11957 0.441531 7.10549 -0.208682 0.863253 -0.0629351
171 1 0.61623 3.42917 3.26328 -0.541014 1.04097 0.306907
172 1 4.43623 1.58659 2.6585 0.678519 -0.681356 -0.344201
173 1 7.41168 7.56132 0.224921 -0.0903119 0.58242 0.953733
174 1 2.06099 3.55238 4.40363 0.351241 0.679029 -0.51658
175 1 5.04971 8.17869 2.63069 0.262383 0.36589 0.169968
176 1 0.352885 1.28686 5.11441 0.765774 -0.290019 -0.965971
177 1 1.06715 8.01747 3.36428 -0.252011 -1.06883 -0.456506
178 1 7.99189 7.89145 7.28379 -0.123401 -0.757971 -0.241861
179 1 5.88735 7.47365 2.75814 -0.471091 -0.303965 -0.582743
180 1 1.85909 0.0499469 5.22109 -0.0150814 0.969982 0.111105
181 1 7.60584 6.27443 2.69418 0.566979 0.604589 0.284178
182 1 4.70823 2.54225 2.17405 0.489873 -1.67228 0.747624
183 1 2.83411 7.73118 8.57231 0.843861 -0.38337 -0.544761
184 1 2.17138 2.77687 8.02196 0.500223 -0.367084 -0.0107837
185 1 0.317605 4.81264 7.91699 0.242225 0.630295 0.334779
186 1 0.590195 5.58705 5.0668 -0.960426 0.328566 -0.410733
187 1 2.30679 2.43331 0.728739 0.0834396 0.149875 -0.152456
188 1 1.78678 5.45413 0.674507 -0.276671 -0.418028 0.222957
189 1 0.313408 2.29478 5.13208 -0.368294 -0.317894 -0.374794
190 1 8.3079 4.82716 3.94841 -0.466547 0.588251 -1.40613
191 1 5.25941 4.42105 9.07998 0.571789 0.914415 -0.583754
192 1 8.89978 6.36948 6.96627 -0.81012 0.0148474 0.475325
193 1 3.79666 7.02711 5.81905 0.0856219 0.28801 -0.416912
194 1 3.97384 3.22854 0.29511 0.436004 -1.18422 -1.30601
195 1 9.37015 8.17346 3.08314 0.130139 0.0223723 0.280506
196 1 2.76307 1.06285 4.0732 0.206936 -0.473523 1.69991
197 1 2.16008 4.39993 5.1361 0.606286 0.906413 0.0678169
198 1 2.54249 3.8321 9.3196 1.43884 -0.200614 -0.940463
199 1 2.69301 6.30131 7.05272 0.494291 -0.536662 -0.860059
200 1 4.55659 0.265807 5.99382 0.706975 -0.0900988 -0.81265
201 1 8.44924 6.76338 8.80177 -0.334188 1.44804 -0.364736
202 1 0.322488 2.70905 4.04429 -0.0137292 -0.290583 0.689645
203 1 5.2985 6.20511 7.0462 0.0478822 -0.819275 0.100721
204 1 4.80917 2.9378 7.44363 -0.459556 -0.377382 0.714446
205 1 7.44558 7.73865 6.45592 0.14507 0.338378 -0.87718
206 1 8.59744 0.837808 4.1337 0.152175 0.92484 -0.171828
207 1 7.18693 2.85846 7.54148 -1.43803 -1.1821 -1.02331
208 1 6.58689 4.96818 5.84138 0.898949 0.560229 -0.442726
209 1 4.92347 0.824359 8.3576 0.306978 -0.436507 -0.291997
210 1 1.65186 3.57228 7.70591 0.152289 0.735586 -0.086981
211 1 2.46333 2.5934 2.81938 0.60128 0.47812 -0.0265923
212 1 5.97117 8.52101 3.0318 0.406295 0.508289 0.726512
213 1 4.12952 1.12891 5.61627 0.780699 0.313988 -0.658573
214 1 7.42139 3.59009 8.72118 -0.139143 -0.340645 0.268642
215 1 1.50191 5.27259 4.28178 0.304924 -0.738349 -0.306982
216 1 5.32558 3.63393 6.93393 -0.248813 -0.874644 -0.33257
217 1 8.03716 8.50909 8.86567 0.814139 0.418955 -0.132311
218 1 4.07281 3.8167 1.1153 0.966733 -1.20431 0.0624819
219 1 4.98437 8.12365 0.824573 -0.344212 0.46379 -0.336905
220 1 9.14418 2.95421 2.28608 0.277472 -0.131945 0.212016
221 1 0.632799 9.11854 7.69635 0.535365 -0.506135 0.69402
222 1 4.91474 3.76159 0.341203 1.23654 -0.0692685 0.677835
223 1 3.07453 8.50767 0.978066 0.694094 -0.0869416 -0.746987
224 1 7.22053 6.12915 3.70716 -1.03711 -0.499575 -0.525126
225 1 3.70444 4.6477 6.6203 -0.310375 0.0414235 1.02917
226 1 9.25004 7.42826 0.633987 0.0870611 0.44581 -0.138422
227 1 4.74467 9.00726 1.7761 1.10542 0.873005 0.14379
228 1 6.44724 2.8226 9.36956 1.05545 0.365489 0.383552
229 1 1.04558 0.990216 6.71206 0.806004 -0.955079 0.540209
230 1 3.70014 1.05466 2.10052 0.0951164 -0.0557261 -0.162458
231 1 9.15755 5.84928 6.15603 0.571736 0.952234 0.162436
232 1 5.8841 5.72319 9.05574 0.212426 -0.519622 0.115842
233 1 9.02331 8.81751 7.61205 0.760319 -0.126414 -0.303639
234 1 0.635478 0.59408 0.972541 0.758004 0.137263 0.602726
235 1 6.14489 4.19419 6.4941 -0.343155 0.133349 -0.52155
236 1 3.27576 8.7356 6.99514 -1.71563 0.558696 -0.130326
237 1 7.42131 2.66491 1.48439 1.40964 -0.321561 -0.573538
238 1 6.75699 9.2375 7.88248 0.447704 -1.00457 0.328563
239 1 1.89877 7.07278 7.08038 0.55319 1.37706 0.528408
240 1 5.53118 0.434105 5.62447 0.0977168 0.622334 -0.109446
241 1 2.54328 7.1123 3.01388 0.228545 0.138546 9.14115e-05
242 1 7.29855 1.3233 4.60468 0.0472243 0.508793 0.730722
243 1 2.01091 9.30815 9.16546 -0.55301 0.408156 0.0217633
244 1 6.50133 0.480699 8.7814 0.647327 -0.856821 -0.288685
245 1 5.5588 4.09402 3.14647 0.349196 0.49426 -0.230886
246 1 1.20542 6.19455 1.10342 -0.640734 0.411059 0.276807
247 1 6.23508 3.5412 3.78118 0.0742343 0.140564 0.141806
248 1 7.45644 7.94248 4.02758 -1.28962 -1.3561 0.217879
249 1 0.831266 4.9479 6.85988 -0.290885 0.595306 0.0815335
250 1 2.91038 8.43509 3.68207 -0.323677 -0.472454 0.64408
251 1 8.77034 3.87181 5.76902 0.0767405 -0.945773 -0.225927
252 1 4.26241 4.10639 3.04412 0.498297 2.21183 -0.0633602
253 1 1.12294 5.58813 5.99349 0.108755 -0.289094 -0.585751
254 1 6.09535 2.12405 1.26628 -0.474365 -0.0776765 -0.218984
255 1 6.30277 7.61704 8.00834 -0.458376 -0.0787788 0.508404
256 1 9.2947 4.15663 8.74719 -0.627183 0.296822 0.335636
257 1 3.62928 7.9571 0.127526 -0.0833949 -0.243777 -0.666017
258 1 3.17643 1.18847 3.03179 0.668945 0.372908 0.418455
259 1 3.86829 5.14844 8.53819 1.02635 -0.434823 -0.988325
260 1 5.40793 2.10408 7.50965 0.602655 -0.0518543 1.06892
261 1 7.00834 3.67301 0.236094 -0.036753 -0.507805 -1.26231
262 1 3.00817 0.380032 2.33133 -0.1704 -0.22108 -0.583119
263 1 8.87018 2.79179 5.50176 0.97155 1.18477 -0.470221
264 1 7.32354 5.14613 3.91782 0.626516 -0.339969 1.22797
265 1 6.60648 4.37825 4.4338 -1.47708 -0.521757 0.494834
266 1 8.07791 6.33264 5.30598 -0.390865 -0.492734 -0.555149
267 1 2.94537 1.61697 1.09701 0.0975166 0.095743 1.00067
268 1 4.98057 2.60833 9.28816 -0.0360759 0.154896 -1.35395
269 1 3.0055 7.43874 0.881749 -0.757524 0.0311029 0.200968
270 1 7.94913 8.69901 6.13038 0.101079 0.862145 0.499874
271 1 0.183185 8.97453 0.853046 1.59874 0.089384 1.26334
272 1 7.18351 1.81246 3.70453 0.867803 -0.476341 -0.640371
273 1 7.12959 3.47089 4.3571 -0.367046 -0.798741 -1.89519
274 1 6.39903 6.63009 7.69677 0.233926 1.16389 -0.690166
275 1 4.65951 7.25826 4.16538 -1.23048 0.471921 0.299345
276 1 7.82949 5.21936 2.27071 -0.225667 -0.665042 0.328911
277 1 5.52408 2.75719 4.06463 0.131243 0.969449 1.24444
278 1 2.04324 3.64992 5.93421 0.238145 -1.41995 -1.95507
279 1 2.23602 0.837098 0.984699 0.265695 -1.12138 -0.889882
280 1 3.82577 4.05411 2.12546 0.328953 -0.494677 1.22957
281 1 5.44391 7.76082 4.84933 1.06285 1.87713 0.54317
282 1 8.05235 0.0315915 3.77625 0.422736 0.396898 0.340258
283 1 8.50575 7.5698 3.58522 0.230474 0.478118 1.89483
284 1 7.47524 6.38359 6.10225 -0.345018 0.34463 0.836675
285 1 4.45669 5.75726 2.7114 -0.966813 1.02753 -0.194305
286 1 0.424596 0.75386 7.83932 0.098058 -0.503389 0.369708
287 1 5.56792 8.2626 8.85731 -0.481278 0.391048 0.0518142
288 1 1.51547 0.620911 0.219162 1.6165 -0.441868 -0.172679
289 1 7.37481 0.989317 5.64859 0.3102 -0.264028 -0.0951699
290 1 2.35045 9.20452 7.39217 0.0890978 -0.343866 -1.12428
291 1 4.25082 8.10749 5.56555 0.749399 0.285691 -0.291412
292 1 1.90176 4.70871 6.07705 -0.344292 0.549786 -0.525953
293 1 2.05244 7.75647 3.917 -0.235258 -1.07841 -0.139284
294 1 8.54734 3.36775 8.07289 0.71009 -0.371484 1.12038
295 1 7.21381 4.35287 6.66461 -1.22949 -0.149561 0.692122
296 1 5.02354 6.8944 1.05322 1.40254 -0.960765 -0.61094
297 1 2.95047 3.24282 0.672691 -1.28556 -0.134802 0.271059
298 1 4.39623 6.04216 6.21409 0.0117859 -0.0171793 0.848265
299 1 6.046 6.89953 1.5947 0.0542124 -0.758045 -0.0175684
300 1 6.55731 4.39183 3.30409 0.225646 -0.42631 -0.068078
301 1 8.84556 1.41647 7.84672 0.110932 -0.300019 -0.403903
302 1 0.994277 0.196501 3.60978 0.326924 -0.979409 -1.1644
303 1 1.86555 8.00502 7.96577 -0.975201 -0.706764 0.0764801
304 1 5.73891 4.27204 2.14731 -0.695038 0.856203 0.151491
305 1 3.65893 2.40735 0.897245 -0.223006 0.460301 -0.52031
306 1 0.189988 9.08996 2.63672 -0.75761 0.0406825 -0.906967
307 1 5.76018 8.81206 1.06832 -0.568793 0.224829 1.15217
308 1 6.56208 0.559114 6.06688 0.0742399 -0.313598 0.0184879
309 1 0.707075 3.99087 7.28528 -0.830201 -0.624814 -0.978985
310 1 2.70402 2.80095 6.0506 0.0284645 -0.194092 -0.292388
311 1 8.61512 8.41658 0.955771 0.318477 0.512367 -0.446411
312 1 2.11817 5.92122 1.60201 0.453053 0.492584 -0.00372564
313 1 6.47423 0.30462 1.57971 -1.14343 0.90124 0.879752
314 1 5.58378 5.96378 1.33207 -0.54325 0.402504 -0.5086
315 1 5.18023 4.37667 6.17288 0.283899 -1.55635 0.272622
316 1 2.22884 4.15085 2.83261 -1.04829 -0.0671324 0.52074
317 1 0.200699 1.64615 7.0693 -0.684901 0.0330219 -0.630983
318 1 8.92049 5.77476 9.12327 -0.02718 0.0140368 1.55819
319 1 3.96992 0.0333211 6.80396 -0.57449 -1.40638 -1.06845
320 1 5.28521 7.86452 3.58867 0.608806 -0.138976 -0.519857
321 1 3.4704 4.44242 5.54553 0.144014 0.772497 0.180082
322 1 1.90322 7.11456 8.52836 -0.442659 -0.0872228 -1.41534
323 1 4.65729 0.459993 2.37654 -1.17208 -1.39637 -0.722775
324 1 4.14892 4.41395 9.28226 0.723434 0.435128 -0.103689
325 1 2.86459 5.75299 0.808415 -0.502791 -0.317975 1.46483
326 1 1.17235 8.92225 4.66315 0.47452 -0.296819 0.132658
327 1 4.67656 0.333377 9.23868 0.198637 2.10128 -0.973643
328 1 3.29222 2.48268 8.50788 1.06306 0.58804 -0.369052
329 1 8.03174 2.68725 0.621044 -0.800207 -0.21747 -0.038972
330 1 3.80986 9.32511 0.628352 0.383279 0.387316 0.70003
331 1 4.64324 2.03708 6.8004 0.167129 0.277603 0.144327
332 1 2.23741 1.80255 8.4523 -0.772845 0.699397 1.11079
333 1 6.23726 5.14084 1.61555 -0.385962 -0.248187 0.229128
334 1 2.99226 7.16451 6.60993 -0.734741 -0.695664 -0.406695
335 1 5.62919 3.0539 2.80413 -0.0574107 -0.752357 -0.528849
336 1 0.32264 3.3508 5.1122 -1.10661 -0.692593 -0.625544
337 1 5.41094 6.2231 8.11694 0.281198 -1.12609 -0.452935
338 1 9.17221 2.50384 7.60323 0.662699 0.113313 -0.872984
339 1 0.992693 4.16241 6.09377 -0.807896 0.5075 -0.370256
340 1 8.92586 8.44944 2.02659 -0.352026 0.37413 -0.0438499
341 1 8.03646 1.28991 8.46084 0.678641 0.0188712 0.179251
342 1 5.4112 5.89399 2.48162 -0.0315862 -0.293741 0.753919
343 1 3.1787 5.27905 3.82813 -0.212641 -0.237453 -0.307953
344 1 2.16733 8.7378 4.45366 0.491448 -0.443592 0.88399
345 1 4.91027 7.0997 5.58711 0.389123 0.673225 0.561246
346 1 6.60023 3.98653 1.51545 0.143058 0.317024 -0.0406355
347 1 2.45309 2.81787 9.05972 -0.230254 -0.0742182 0.0621984
348 1 8.20857 5.77607 7.68221 -1.1388 -0.82083 0.493614
349 1 6.47771 3.32774 8.34988 -0.237277 -0.751774 -0.638567
350 1 4.54292 5.37164 4.66514 -1.03463 0.818173 -0.643107
351 1 8.18015 6.0896 1.85533 -0.684703 1.07111 -1.00968
352 1 1.51243 8.78919 7.03474 0.254399 -0.434613 -0.953977
353 1 1.85857 1.65815 4.02031 -0.286402 1.60733 0.216384
354 1 1.18644 8.35232 8.76259 1.06157 -1.06562 0.672009
355 1 0.171 6.42626 0.852967 -0.353506 0.925574 0.160674
356 1 6.56142 3.79832 7.36568 1.22328 -1.2673 0.692968
357 1 8.33359 0.138911 8.96518 0.470083 0.262412 -0.756841
358 1 7.13363 6.77251 5.12743 1.16309 -0.14839 -0.772525
359 1 4.28276 4.99215 7.50446 -0.766555 0.167406 0.181403
360 1 2.91545 3.51216 5.28426 -0.521202 0.563921 -0.879981
361 1 3.91532 3.67184 3.84251 0.124478 -0.629475 -0.577111
362 1 4.91258 3.63012 2.37536 -0.597733 0.241184 0.188808
363 1 6.382 6.06511 2.10046 -0.368924 -0.159546 0.228674
364 1 2.38286 3.47333 6.95308 0.131353 0.922148 -0.594125
365 1 0.801447 2.90012 0.849636 -0.0342921 -0.556051 -0.644125
366 1 6.72807 7.03673 4.05303 0.027413 -0.764755 1.24395
367 1 0.401632 5.58076 1.3801 0.418026 0.0838042 0.372332
368 1 2.94169 0.0601061 4.61049 -0.484867 1.23779 -0.541174
369 1 7.90577 4.8963 7.40302 0.321172 0.845415 0.265013
370 1 5.6589 9.25328 8.34909 0.345404 -0.395837 0.512975
371 1 1.93568 5.52544 5.32142 0.619838 0.842592 0.612347
372 1 2.44709 4.34322 7.79156 0.0109294 0.447501 0.804849
373 1 6.5609 8.62586 0.42493 -0.599249 0.564361 -0.471427
374 1 6.86678 3.98197 5.35865 1.14567 0.619195 -0.113924
375 1 5.39937 6.2623 5.99471 -0.133878 0.321866 -0.462165
376 1 3.28947 0.774336 8.13696 1.53582 0.123045 0.210971
377 1 1.46841 6.94205 0.111898 1.23871 0.691709 -1.45213
378 1 6.94748 1.13321 1.07306 -0.81377 0.28587 -0.961641
379 1 8.15856 5.70984 6.64375 -0.903458 -0.102327 1.13301
380 1 5.94573 4.44404 5.24969 -0.793045 0.0861403 -1.90881
381 1 3.26512 0.614608 1.22288 1.15081 0.372337 -0.0968814
382 1 7.77997 6.93332 4.33969 0.534713 0.572522 1.38093
383 1 0.49926 9.37702 6.70542 0.528387 -1.06435 0.254523
384 1 2.87024 0.0863116 3.41071 0.461453 -0.564126 0.145479
385 1 4.59494 8.46166 9.31822 -0.0559914 1.41623 1.18201
386 1 1.17756 2.73255 4.63127 -0.318546 0.487319 -0.3035
387 1 8.92934 0.702289 5.13563 -0.728789 -0.0789165 0.675096
388 1 7.65258 1.88573 9.2982 -0.301498 0.496336 0.0627672
389 1 6.09191 3.31044 4.79861 0.191129 0.0739419 -1.15088
390 1 3.50563 6.54575 2.52361 -0.574035 0.0763242 0.558159
391 1 5.67127 0.71194 9.29295 0.164508 0.199076 -0.512471
392 1 6.79227 1.79346 2.66288 -0.214752 0.0494508 -1.22972
393 1 0.807409 6.60329 8.11624 0.196389 -0.831483 -0.900416
394 1 6.972 4.54528 2.42308 0.726812 -0.679405 -0.326084
395 1 9.00599 1.5585 3.31444 -2.21894 0.37557 -0.0395938
396 1 3.54742 2.33665 2.75376 -0.127914 0.390866 0.381555
397 1 5.66012 4.95366 0.577998 -0.0458172 0.240038 0.695538
398 1 6.26563 5.35735 3.71417 0.200046 1.18832 -0.612728
399 1 8.24452 3.2265 1.72478 -0.112767 0.479444 -0.304226
400 1 0.869482 7.60304 2.02851 0.727716 0.322272 0.750424
401 1 2.53327 2.33543 7.02589 -1.15845 0.613668 -0.470984
402 1 0.483838 6.54806 1.90894 -0.262202 0.770176 0.630946
403 1 1.28065 4.90484 1.45182 0.536072 -0.346075 0.883376
404 1 6.31819 6.11771 5.64366 -0.574847 -0.235863 -0.134615
405 1 4.68022 3.01389 6.32469 0.17752 0.683455 -0.457494
406 1 6.41624 8.84851 8.85859 -1.96045 -0.00489494 0.296134
407 1 6.57903 9.30294 6.78763 -0.0709341 0.564568 1.08959
408 1 0.638688 3.50894 1.66906 -0.675105 0.297226 1.01549
409 1 5.22829 3.53106 5.42632 0.193319 -1.96126 0.64371
410 1 0.716461 1.77098 6.10625 0.592581 -0.389835 -0.119987
411 1 6.33265 0.87584 2.90471 -0.429288 -1.46596 0.411172
412 1 0.234088 0.0773116 4.71436 0.0337459 1.29022 -0.442805
413 1 1.26687 8.21093 1.30308 -0.651026 -0.263841 0.0363545
414 1 7.5352 0.789086 9.27621 0.518717 -0.0629755 -0.420274
415 1 0.02404 1.60658 1.37468 -0.116749 -0.745856 1.02024
416 1 7.86252 1.35308 2.99432 -0.261942 -0.438549 0.0792798
417 1 8.9863 5.96141 5.15491 -0.250861 -1.57462 0.983548
418 1 4.3603 1.04051 4.45246 -1.22541 1.12084 0.268408
419 1 6.31463 1.19717 1.88619 0.105229 -1.18915 0.155548
420 1 9.0123 1.76076 5.76007 0.0980964 0.695025 -1.19672
421 1 4.2892 6.43477 5.12291 -0.00708268 -1.03629 0.401078
422 1 7.15401 0.237286 4.2905 -0.552944 -0.594536 0.163442
423 1 1.84263 3.30829 3.19431 0.0506075 1.07393 -1.01539
424 1 4.25003 8.04755 3.41836 0.456863 0.849018 0.30713
425 1 2.54415 2.01339 4.75756 -0.530642 0.84492 1.54136
426 1 6.12041 1.31185 6.89976 0.0145138 -0.522779 -0.781117
427 1 8.7618 4.36539 7.62803 0.734434 -0.270795 1.20104
428 1 2.92281 8.13285 6.24672 -0.611284 -0.894065 1.45413
429 1 7.34097 8.53696 2.3048 0.215803 0.150442 0.0487768
430 1 4.58005 8.34611 4.37821 -0.428105 0.45288 1.07538
431 1 8.27571 1.91268 7.05162 -0.766621 0.0572898 -0.902254
432 1 5.60725 7.14049 7.41973 -0.0249028 -1.19788 -0.287079
433 1 1.93602 7.47814 6.00891 1.16656 0.275772 0.461672
434 1 8.05519 9.02197 1.60988 0.169826 0.478619 0.1692
435 1 1.38596 1.9661 2.40533 0.345684 0.655219 0.233943
436 1 0.0243343 9.33377 8.57404 -1.02174 -0.420653 -0.504381
437 1 7.73335 8.44312 0.495306 -0.342793 -0.753546 2.07245
438 1 8.50863 7.75606 9.33591 -0.0113128 -0.150487 0.369963
439 1 3.24602 7.78342 2.90145 0.592759 -1.61951 -0.972736
440 1 7.1989 5.92457 1.49927 -0.623593 -0.0333819 -0.0352569
441 1 5.60656 2.04734 2.2082 -0.240447 0.0933639 -0.870643
442 1 5.22362 2.52497 5.14463 -0.992549 -0.394198 -0.386828
443 1 4.05086 8.41898 1.06889 -0.890822 -0.0328388 -0.560625
444 1 0.508924 6.43433 5.72384 -1.00438 -0.114366 0.0737351
445 1 4.53951 2.42724 8.34043 0.718775 0.61285 0.432828
446 1 8.29575 4.00184 6.73688 -0.0777729 -0.695245 -0.45749
447 1 1.96674 5.0992 2.3257 0.0904045 -0.406326 0.884724
448 1 7.00235 5.60219 7.86934 0.662912 -0.0309069 -0.724252
449 1 2.9356 0.25461 0.221967 0.499158 0.476876 0.042789
450 1 3.74994 5.31655 0.446626 -0.650561 -0.223932 -0.809752
451 1 5.42514 8.29786 7.79784 0.223034 0.600981 -0.0152007
452 1 3.93044 7.94479 6.61772 0.730761 -0.151389 -0.553364
453 1 3.79723 7.54502 4.82851 0.598885 -1.71227 0.112312
454 1 3.78601 8.99803 3.8856 0.254592 0.104328 -0.145083
455 1 8.97796 6.87056 5.72239 0.0780539 -0.793381 0.59945
456 1 7.70237 5.09283 5.75805 0.0954361 0.0598141 0.711731
457 1 4.807 9.18576 0.758975 -0.211293 0.666533 0.643108
458 1 2.98162 6.28744 3.50502 1.28289 -0.289226 0.72785
459 1 8.79338 5.20673 1.8216 -0.612698 -1.97805 0.32113
460 1 5.82857 3.02153 7.56716 -1.16051 0.0471169 0.298682
461 1 9.15604 3.93512 2.64098 0.543528 0.339836 0.418655
462 1 2.35559 8.28946 1.64436 -0.362832 -0.856281 0.867961
463 1 3.80571 1.00407 9.20681 -0.768166 -1.34618 -0.910141
464 1 0.614145 3.05567 7.89263 -0.260127 0.433995 -0.0240144
465 1 1.82521 8.51126 6.07525 0.516141 0.734984 0.410277
466 1 4.95516 0.880021 0.684791 -0.888198 0.952553 -0.24052
467 1 4.94239 1.94282 0.746781 -0.155366 0.620946 0.0817991
468 1 6.37867 0.938833 4.16623 0.562243 -0.594195 1.16944
469 1 8.12048 3.83435 3.91681 -0.293159 1.17161 -0.546513
470 1 1.34062 3.41719 6.62915 0.726416 -0.412226 0.0426784
471 1 4.61184 8.68821 6.3417 0.681621 -0.212866 0.560564
472 1 6.82853 3.46388 6.24085 0.297188 -1.103 -0.222099
473 1 7.2897 2.53219 8.53757 -0.733021 0.208584 -0.0786221
474 1 1.83339 6.66167 3.58653 -0.471682 -0.0894881 -0.0860346
475 1 2.92682 3.46071 7.87711 0.196668 0.877832 -0.340574
476 1 0.70345 0.690411 8.89191 0.27971 -0.34182 -1.59482
477 1 0.963812 7.57073 7.62017 -0.562746 -0.78284 0.36787
478 1 1.13868 0.600313 4.61414 0.259395 -0.439235 -0.641735
479 1 1.55764 2.73741 1.53295 -2.10858 1.1151 0.339312
480 1 7.90884 8.87905 7.87994 -0.498343 -0.0412887 -0.939296
481 1 1.97645 7.53743 0.884581 -0.926674 -0.0920024 0.702332
482 1 3.67892 6.01749 4.30119 0.471784 0.157191 0.336649
483 1 5.16865 7.06751 2.17121 -0.267705 -0.726249 1.04764
484 1 7.00776 1.41046 8.52793 0.869373 -0.132775 -0.256451
485 1 6.72367 4.59582 0.591154 0.92787 -0.743903 -0.01943
486 1 0.391806 2.3926 2.95772 -0.723528 0.585649 0.231109
487 1 0.684044 4.84198 4.06056 0.678936 -0.688902 0.190121
488 1 8.23689 5.94103 4.23863 0.218345 1.51582 0.8033
489 1 2.13931 8.5611 0.657028 -0.220402 -0.69835 1.31291
490 1 5.6838 6.99407 4.15322 -0.887703 0.0576329 1.08458
491 1 7.92141 8.07456 2.95596 0.618938 -1.26985 0.258641
492 1 0.0799875 8.02344 9.10068 -1.01969 0.153583 0.501401
493 1 7.78317 7.52133 8.65993 -0.278348 -0.69762 -0.234199
494 1 6.58819 2.73653 3.21553 0.528622 -0.276428 1.31019
495 1 2.86275 2.66488 1.64845 -1.45417 0.635556 0.993846
496 1 4.02011 1.58783 3.51685 -0.191824 0.212864 0.166921
497 1 1.23833 9.10929 0.820596 -0.21203 -0.263348 -1.76338
498 1 7.67275 1.74569 2.00546 0.971706 0.0232634 -0.397855
499 1 4.75648 3.20264 4.50913 -1.07971 0.177883 0.787784
500 1 4.59434 5.92794 1.68577 -0.473517 0.00152477 -0.348768
501 1 4.7857 5.21789 6.68334 -0.647547 -0.442809 0.786889
502 1 1.11461 3.09783 2.47547 -0.200402 0.372171 -0.1639
503 1 3.19956 6.49434 5.08247 -0.194122 0.544874 -0.308067
504 1 5.71311 7.98118 1.77805 1.58704 -0.596965 -0.84057
505 1 8.16509 4.30171 8.51479 1.51621 -0.263688 0.0589955
506 1 2.09523 5.7908 6.31983 0.228721 -1.07015 0.954851
507 1 7.51502 6.31231 8.41102 0.203976 0.42355 -0.726964
508 1 3.42698 7.78695 1.82471 -0.387313 -0.266901 0.386145
509 1 8.93287 2.00078 8.95683 -0.25576 -1.16991 0.368073
510 1 5.07558 1.40745 3.60374 -0.659164 0.67657 0.828909
511 1 6.61016 2.53308 4.27506 1.29973 -0.194169 -0.082715
512 1 7.04741 5.49221 2.93613 0.249876 0.277136 -0.10241
513 1 1.76472 8.70169 3.51203 0.295425 0.87669 0.303171
514 1 9.10231 5.75657 3.42276 0.352964 -0.443619 0.484113