ITEM: TIMESTEP
79890000
ITEM: NUMBER OF ATOMS
1000
ITEM: BOX BOUNDS pp pp pp
0.0000000000000000e+00 9.4000000000000004e+00
0.0000000000000000e+00 9.4000000000000004e+00
0.0000000000000000e+00 9.4000000000000004e+00
ITEM: ATOMS id type x y z vx vy vz
1 1 5.13094 7.06856 3.39252 0.320005 -0.167316 1.01295
2 1 2.79087 4.95692 0.153988 1.04806 -0.0371395 0.879737
3 1 2.11141 2.85696 5.20288 0.704329 1.36123 0.588056
4 1 1.52273 5.98391 0.536191 -0.199257 0.819633 0.173295
5 1 0.495066 0.618554 3.63877 0.541071 -0.573177 -0.235495
6 1 4.79992 5.92428 4.92102 0.316992 0.175869 -0.43356
7 1 5.99624 5.73146 6.35639 0.645805 -0.206675 -1.27783
8 1 0.36423 3.03106 6.3419 -0.151215 -0.789344 -0.418755
9 1 7.93891 5.56822 6.2983 -0.488238 1.2287 -0.39442
10 1 0.973872 5.27458 9.35352 0.529947 0.709254 0.0922906
11 1 4.13321 0.864876 4.27829 -0.43317 -1.29989 0.683836
12 1 7.43381 2.0173 8.13612 0.38401 0.762158 0.388189
13 1 8.65341 9.18115 6.74524 -1.38535 0.362472 0.156863
14 1 3.36314 2.97742 8.09882 -0.060826 0.869449 -0.791908
15 1 0.208367 8.49725 8.8364 -1.11452 -0.0433749 0.577995
16 1 8.67367 9.13387 9.38878 1.49474 -0.833662 -0.2315
17 1 6.28647 1.62804 2.02244 -0.853875 0.809982 -0.230599
18 1 5.53747 8.43801 5.77199 0.8055 -0.489617 0.0298089
19 1 7.24878 8.05963 1.87962 1.20428 -0.120072 -0.934613
20 1 7.85268 3.26226 0.948527 0.882306 -1.59309 0.43892
21 1 8.35254 3.95299 8.3787 1.54526 1.14971 -0.182451
22 1 8.37391 -0.00684137 0.972583 0.203999 -0.398324 0.118551
23 1 7.40243 1.00804 8.551 0.586144 0.687521 0.139376
24 1 0.270752 5.09505 8.47507 -0.494545 -0.955144 0.531282
25 1 5.91631 9.11709 2.89074 1.59298 -1.62837 0.336536
26 1 4.91863 1.65481 4.48048 -0.190342 -0.186799 -0.195561
27 1 4.38467 3.1688 7.75878 0.629195 0.737331 -1.19701
28 1 5.34681 1.30648 2.47126 -0.423229 -1.05919 -1.98684
29 1 9.35021 3.87553 0.743823 -0.234344 0.473661 1.42432
30 1 0.839805 3.75579 3.18828 -0.150978 -0.105029 0.26275
31 1 0.71109 1.71371 2.0929 0.34991 0.581731 -0.497979
32 1 4.02972 4.81718 5.80767 1.695 1.22268 -0.645811
33 1 5.17089 1.0797 9.1007 0.926526 -0.696126 0.51363
34 1 4.4276 8.16539 0.931773 0.145637 -1.22985 0.35836
35 1 3.1268 5.87748 5.31237 0.0282106 -0.256139 -0.364008
36 1 2.24889 9.15914 2.91305 0.868918 -0.360375 -0.0545237
37 1 6.82437 4.6653 0.191761 0.696955 -0.443904 -0.831152
38 1 8.699 0.671431 2.0166 0.00221744 -0.508574 -0.599784
39 1 7.31308 9.19694 1.68448 -0.372797 -0.445653 -0.0532342
40 1 2.76438 0.319726 8.91538 0.529138 -0.584639 -0.547562
41 1 5.14596 0.233503 7.41537 0.399703 -0.2173 -0.164799
42 1 1.39843 8.97273 3.8815 -0.303862 0.530078 0.552843
43 1 4.2125 9.09382 7.88574 -0.465516 -0.450011 0.261127
44 1 2.27895 9.16043 7.19157 -0.676057 -0.0177732 -0.673127
45 1 1.0766 8.95272 6.26603 -0.425688 -0.118737 0.992292
46 1 1.59859 4.87275 1.93829 -2.44464 -0.198089 0.470243
47 1 8.40746 9.10741 2.03167 0.767071 0.280327 -0.329851
48 1 4.14007 9.07692 4.60694 1.09674 0.223564 0.395876
49 1 1.38676 3.11789 6.67699 0.563916 0.959476 -1.49257
50 1 8.17002 1.66892 4.35538 0.777897 0.208531 1.47708
51 1 6.92124 5.80882 3.37934 0.876913 -0.616856 0.170953
52 1 5.44114 8.02931 1.50566 1.15537 -0.118565 -0.212966
53 1 2.75622 8.51438 5.72644 -0.570619 0.263148 -0.20294
54 1 7.54724 9.25139 6.48511 -0.0779922 -0.815916 -0.157755
55 1 1.66532 5.55818 3.56366 -0.065324 0.744659 1.66656
56 1 2.60617 6.69762 4.7235 1.49575 -0.152897 -0.306191
57 1 3.10271 5.16629 6.22872 -2.37044 -0.425422 0.742178
58 1 5.82503 6.0594 2.46508 0.664763 -0.21812 0.319129
59 1 6.2861 8.56713 6.93479 0.246231 -1.19428 -1.07668
60 1 1.09795 8.95576 5.14975 -0.393789 0.0321163 0.517344
61 1 4.1524 7.42014 2.45054 -1.4248 -0.129923 -0.93704
62 1 7.02019 0.985195 1.86479 -0.295142 0.252221 0.152356
63 1 0.0975552 4.20997 3.76853 -0.838752 -0.958021 0.385461
64 1 8.98085 8.54879 0.919807 -0.751361 -0.104541 -0.0743804
65 1 8.91873 1.07387 3.90285 -0.275773 0.382409 1.27126
66 1 1.87153 2.79988 9.42447 -0.733669 -0.0673467 1.26808
67 1 7.83514 8.86286 8.71063 -0.132605 -0.179181 0.464858
68 1 5.36736 6.1088 0.180639 -0.0399891 -0.607939 0.523094
69 1 7.72175 7.1034 2.06913 -0.496421 -0.337077 -0.419279
70 1 7.66765 5.14822 2.95648 -0.598833 0.156261 -0.0614172
71 1 8.02459 0.618132 7.10723 0.970339 -0.756272 -0.436036
72 1 3.33083 2.35508 1.16538 -0.298529 -0.547238 -0.254743
73 1 3.65803 5.61328 3.88157 1.02459 1.67438 -0.269388
74 1 3.34832 0.539412 2.25379 0.671581 1.46207 0.857719
75 1 5.4476 2.6253 0.626134 -0.339025 0.0894189 -0.369645
76 1 8.42787 6.95876 8.98088 -0.530149 0.182458 0.045812
77 1 8.89233 3.448 4.39093 0.965326 -1.08669 -1.78426
78 1 3.6003 7.75289 1.40158 0.838761 1.03781 -0.54828
79 1 6.00068 9.19314 7.94161 0.143882 0.0687783 0.634301
80 1 0.772239 0.788326 0.13536 -0.247607 -0.808489 -0.144793
81 1 3.5502 4.72028 7.86282 0.387295 0.685975 -0.0526055
82 1 4.19026 9.20582 2.55706 -0.27686 0.458606 -0.0259258
83 1 3.93436 5.33063 4.85763 -0.82755 -0.331657 -0.00313278
84 1 0.756285 3.99423 5.97667 -0.499642 -0.0725642 0.73023
85 1 5.16166 2.81538 8.37701 -0.599685 -0.163087 -0.394663
86 1 3.06405 3.81647 7.56182 0.316409 2.02655 0.660742
87 1 2.32635 2.61099 3.14943 -1.10189 -0.481815 0.656556
88 1 8.94832 1.68633 1.89895 0.595398 1.22688 -0.187123
89 1 6.26361 4.11182 1.64659 0.485486 -0.96914 -1.14693
90 1 5.96186 6.29585 3.46992 0.217819 0.160308 0.409785
91 1 0.604706 7.29121 3.14133 1.24177 -0.276425 -0.737593
92 1 8.38219 0.41487 8.51949 -0.941892 0.254483 -0.109976
93 1 4.11221 1.46779 6.83463 0.148056 -0.934967 -0.447382
94 1 1.20699 5.48825 5.23965 -0.360278 0.484315 -1.04635
95 1 8.20484 9.06508 4.68984 0.287502 0.675361 -0.211187
96 1 5.02933 6.78038 7.14437 -1.05271 1.52201 -0.372149
97 1 0.653578 5.88169 1.07391 0.141943 -1.10575 -0.124985
98 1 6.30764 8.56395 0.774661 -0.0312686 0.380466 0.286561
99 1 6.60268 8.82335 5.94221 -0.498526 1.47848 0.238171
100 1 6.94754 8.45273 9.10825 -1.50604 0.0598275 0.138784
101 1 6.7208 4.52023 8.48121 0.815962 0.841181 0.238681
102 1 3.2718 3.41633 1.43651 -0.8408 0.534159 0.585706
103 1 4.1968 6.57453 6.4764 1.09333 -0.151076 -1.00938
104 1 4.7805 5.17664 4.11194 0.735235 0.2818 0.282891
105 1 1.62321 7.60622 3.77673 0.260302 -0.989256 0.302529
106 1 0.179469 3.24835 5.27798 -0.927861 0.649844 0.506122
107 1 4.13406 4.95275 3.30663 -0.3053 0.484426 0.996698
108 1 8.93162 9.36516 4.01172 0.806587 0.0689133 0.236111
109 1 8.34121 1.45788 8.80608 -2.21679 -0.77528 -0.868091
110 1 8.62002 5.13329 0.756569 0.458952 0.378977 -0.409227
111 1 7.28236 8.44973 7.06452 1.01311 0.692917 -0.252412
112 1 6.41105 2.68563 0.264363 0.20072 0.317546 0.186536
113 1 2.62334 3.30929 0.579802 0.728029 -0.231841 0.422171
114 1 4.51085 3.8802 3.05438 -0.139527 -0.304655 0.880849
115 1 5.2745 0.827915 5.05493 0.333419 -0.6283 -0.149569
116 1 5.80948 1.71208 0.338351 -0.0889761 -1.43638 -0.259263
117 1 7.98171 9.10752 7.60026 0.973658 -0.757854 -1.12959
118 1 8.01892 3.13182 9.2533 -0.0160033 -0.136484 0.537182
119 1 4.40662 2.29913 6.34177 -0.366317 0.468182 0.592186
120 1 1.68379 7.75881 6.57102 -0.188015 0.259088 0.584417
121 1 2.88666 0.297008 5.68745 0.23639 0.704916 0.24704
122 1 2.08251 8.44166 4.44596 1.2551 -1.21454 -0.198014
123 1 3.01605 4.38235 8.71813 -1.1768 0.38929 -0.320849
124 1 0.453765 0.235132 5.63887 -0.502462 -0.377825 1.18712
125 1 4.76864 4.84377 6.64036 -0.0279641 0.0320618 -0.220025
126 1 6.93392 3.94199 3.75926 0.42706 -0.441 0.435208
127 1 3.64554 9.06466 5.75943 0.291049 -0.530812 -1.29657
128 1 7.0033 6.23516 6.32368 -0.277147 -0.721027 -0.937612
129 1 0.949079 9.40072 8.83862 0.955376 0.945178 0.593689
130 1 2.58419 2.09002 2.15708 -0.662332 0.746014 -1.54969
131 1 8.83308 2.91498 0.794248 -0.252618 -0.116276 0.503605
132 1 9.2109 8.43523 2.00336 0.37956 0.296239 -0.398185
133 1 6.09148 0.766998 3.21237 -0.963477 0.302394 0.199997
134 1 8.95238 6.02273 8.70383 -1.66451 -0.963868 -1.1005
135 1 7.56502 6.97909 4.72162 0.441278 -0.0995355 0.680139
136 1 6.46105 0.395372 6.34288 -0.683374 0.419479 -0.151003
137 1 2.22756 5.67029 6.74434 0.394784 0.260873 -0.639546
138 1 3.31344 7.26687 6.56041 0.110803 0.520255 -1.38195
139 1 2.10148 1.12873 7.50132 0.586701 -0.441568 -0.0819624
140 1 0.498756 5.22326 1.87766 -0.337598 -0.391461 0.134405
141 1 2.72496 0.635427 3.20249 0.212287 -0.459514 -0.236515
142 1 5.11014 8.60573 7.51561 -0.00496292 -0.487379 0.496332
143 1 4.57591 4.44251 9.3836 -0.390185 0.087586 0.132234
144 1 1.6046 1.87382 3.64792 -0.00446314 -1.44686 -0.175528
145 1 7.64526 5.05217 7.91988 -0.881435 0.0462963 0.269467
146 1 4.86248 0.305067 1.6592 0.289834 -0.056965 -0.253019
147 1 5.73425 5.03634 7.05207 -0.664496 0.490654 -0.411371
148 1 1.87696 7.40639 4.82607 -0.0776611 -0.913197 -0.540257
149 1 2.97835 9.16166 4.82095 -0.928309 -0.488008 -0.975547
150 1 9.01264 7.74334 3.35778 -0.0482805 0.855744 0.387407
151 1 6.41848 8.80132 4.92259 0.0699426 -1.32286 0.597223
152 1 5.78263 7.61388 6.94736 -0.604452 -0.623042 0.317084
153 1 4.31087 6.02755 8.78351 0.00669564 0.0655313 0.778725
154 1 3.96496 6.51845 1.9908 -0.350538 -0.0851746 -0.120206
155 1 8.25543 7.27172 5.75069 0.407388 -0.701858 0.19853
156 1 5.447 7.27558 5.21985 0.559694 -0.85976 0.722917
157 1 6.33504 3.98867 7.59265 0.229369 -0.184268 0.202621
158 1 3.101 7.10757 9.03449 0.453954 -0.412296 -1.90705
159 1 1.3941 7.18243 5.73651 0.358609 0.129703 -1.14761
160 1 8.75392 4.40065 6.89261 -0.884105 0.0940348 -0.693672
161 1 1.10719 2.16225 6.30929 -0.869326 -0.538529 1.60175
162 1 1.32151 5.03609 0.924377 0.14544 0.666557 -1.00864
163 1 7.38518 8.98897 5.25566 0.555689 0.603065 0.546622
164 1 3.67033 1.48527 8.01685 0.475073 -0.176785 -0.33703
165 1 4.15372 6.22423 3.03396 0.14125 -0.458664 -0.388304
166 1 6.40148 5.07139 1.14089 -0.114103 0.25112 -0.446759
167 1 3.17065 8.8855 3.10661 0.713677 -0.306514 -0.113313
168 1 6.97028 4.78755 1.96703 -0.662961 0.500906 0.15722
169 1 1.95292 5.47473 9.10457 0.0935993 0.0223039 -0.0640214
170 1 0.667806 3.36471 4.19437 0.455551 0.38215 0.112266
171 1 4.70307 7.16196 0.446024 0.159654 0.344785 0.200656
172 1 1.33222 5.41281 8.29404 -1.36 -0.316666 0.74124
173 1 4.47004 4.6158 2.2336 -0.758821 -0.252997 0.574302
174 1 5.36621 6.16002 8.4158 0.974409 0.294916 -0.672424
175 1 6.9885 5.54283 8.74724 -0.21098 -0.449064 -1.01269
176 1 4.51502 0.850552 5.88677 0.0358317 0.407684 0.299957
177 1 6.44199 6.46636 1.62398 0.715718 -0.772976 -0.555684
178 1 6.72811 2.97276 1.82013 -0.0725002 0.74225 -0.595867
179 1 5.94747 3.45095 4.10271 0.521058 -1.04539 -0.19621
180 1 1.90574 6.58303 3.93627 -0.531018 1.51137 1.01441
181 1 8.99971 5.66225 1.54796 0.327377 0.478798 0.408328
182 1 1.51094 1.31049 4.5911 -0.568726 0.52627 0.258926
183 1 3.4407 3.46597 9.18955 -0.276622 -1.08755 0.249042
184 1 5.90374 6.90096 7.89644 -0.274623 1.36066 -1.22427
185 1 0.228185 8.63295 7.14951 0.302684 0.587501 -0.569964
186 1 2.05846 3.95513 1.84945 0.766619 0.539338 1.3899
187 1 1.26891 2.36932 4.49647 -0.366804 1.28262 0.256083
188 1 1.24434 6.98813 1.84837 0.346312 0.832041 -0.184618
189 1 4.14866 7.17621 3.43303 0.336824 0.179329 -1.89979
190 1 5.78537 7.16453 2.05213 -0.0672496 0.215246 0.255882
191 1 4.71868 3.15108 5.92962 0.163819 -0.639494 0.566906
192 1 1.02067 1.37845 1.14343 -0.040505 -0.938242 -0.785073
193 1 3.89415 0.659514 1.28405 -0.534679 -0.505694 0.522855
194 1 9.35978 7.96111 4.33097 0.106208 -0.271142 0.139007
195 1 6.82775 0.0384929 2.56719 -0.858245 -0.0597005 0.00978284
196 1 8.6975 8.68172 2.92399 -0.599832 0.426622 -0.808981
197 1 5.40458 4.85549 1.53853 0.826636 0.451374 -0.675701
198 1 8.14487 1.27791 7.82254 0.563694 -0.247841 0.906151
199 1 7.52294 0.603484 5.63072 1.23065 0.346057 -0.624452
200 1 2.38254 0.0381448 0.571356 -1.55633 1.05126 -0.00498214
201 1 4.95434 1.70628 5.71596 -0.691681 0.476708 0.277713
202 1 2.56148 6.97619 3.0741 0.057639 0.130191 0.387273
203 1 5.50438 9.12373 6.58318 0.427283 0.629081 1.88274
204 1 6.7287 1.78559 9.25977 -0.511771 1.3605 0.415911
205 1 5.52506 1.03737 6.25334 0.197629 -0.627616 0.750216
206 1 2.91344 0.428883 7.73343 0.0636701 -1.56909 0.245199
207 1 7.11648 1.31041 2.8431 -0.0817662 0.42353 -0.354393
208 1 8.5643 5.01885 3.55255 -0.364558 0.580959 -0.281931
209 1 6.72626 7.79098 6.47451 -0.389629 0.339371 -0.112423
210 1 1.75455 2.30482 7.35096 -0.126934 0.155714 -0.0699435
211 1 7.58086 0.647657 1.03157 -1.12305 0.791838 0.325926
212 1 5.75107 7.15464 4.15727 1.64256 0.181424 -0.635477
213 1 0.17139 6.38513 4.73747 -0.949692 -1.18739 0.00298271
214 1 8.81321 2.13397 3.58657 1.31992 0.860363 -1.67435
215 1 4.51089 6.31482 4.01798 0.674562 0.167568 -0.0135716
216 1 6.22863 6.84675 5.87318 -0.494697 0.21441 0.16744
217 1 1.13312 1.48913 7.11698 0.375758 -0.299942 -0.202569
218 1 4.01114 2.77513 3.99586 -0.0512317 -1.12141 -0.160271
219 1 7.62671 4.77463 1.12528 1.01661 1.46879 0.0437616
220 1 1.10579 2.21149 9.06395 0.683199 -1.13694 -0.235441
221 1 6.7614 8.53469 8.04044 0.462656 0.0547363 -0.600333
222 1 4.71485 6.25547 1.02736 0.477145 -0.545821 -0.418057
223 1 4.2848 2.25974 8.25792 -0.889633 -0.489148 0.712935
224 1 6.69047 6.007 5.33852 0.140899 0.775899 0.413116
225 1 0.23713 4.91041 7.06054 -0.386799 0.469763 -0.0991969
226 1 3.32234 1.43203 4.85051 -0.0108166 0.697984 0.186669
227 1 7.54254 5.53639 4.83486 0.0430004 -0.171568 -1.18354
228 1 8.93262 0.76798 6.4737 1.25028 0.563724 0.410048
229 1 1.18292 1.16465 8.70007 1.16604 -0.182708 0.0409604
230 1 6.52058 1.57077 8.16401 -0.958379 -0.0495935 -0.968975
231 1 5.03516 5.17348 5.6582 -1.27344 0.357337 -0.593809
232 1 2.69052 4.27804 1.0781 -0.0564065 0.0918283 1.20813
233 1 8.22824 7.99961 2.27966 0.78245 0.944742 0.333802
234 1 7.10967 6.8987 0.990295 0.500411 0.230967 -0.269954
235 1 6.41125 6.42582 8.77231 0.64167 -0.204839 -0.221499
236 1 7.42348 4.19669 5.80755 -0.631668 0.738692 0.63581
237 1 7.58189 2.01709 3.46158 -0.14301 -0.194381 -0.384584
238 1 8.01338 2.88417 8.1765 -0.687913 -0.798787 0.361406
239 1 5.36818 6.27101 5.6837 0.589119 -0.287397 1.46086
240 1 0.144598 1.73849 8.83032 -1.06731 -0.882904 -0.0782415
241 1 3.50823 4.22596 2.66711 0.095747 -1.97966 0.434195
242 1 5.76113 4.33345 9.09368 -1.06638 -0.325084 -0.0791751
243 1 7.3906 7.6123 2.89347 0.0699129 0.846844 0.697152
244 1 6.25353 4.07432 4.86884 0.502957 -0.75294 -0.857087
245 1 6.405 3.1344 3.11233 0.54937 -0.204861 -0.583958
246 1 8.4637 1.4414 2.88208 0.00947911 0.559562 -0.293235
247 1 5.71637 3.11467 1.45173 1.52394 1.1213 0.601035
248 1 5.06819 7.15575 6.1998 -0.504794 0.851627 0.413272
249 1 5.44304 4.33414 4.12845 0.874752 -1.12995 -1.70681
250 1 5.32674 3.55377 4.97894 0.9723 -1.21678 -1.22462
251 1 6.86281 3.1275 5.85131 -1.785 -0.287658 0.457497
252 1 9.21482 5.59056 4.11643 0.546717 0.137645 -0.726011
253 1 3.29009 8.39521 2.22232 -0.0133835 -0.166254 0.546242
254 1 6.22639 2.23201 1.21147 0.248552 -0.345136 -0.865848
255 1 6.02655 4.8532 2.50882 0.187006 0.252782 -0.545115
256 1 0.32924 4.37989 9.26465 -0.447209 0.123155 -0.1111
257 1 7.15027 0.421924 4.58358 1.09977 0.302543 0.167814
258 1 2.28165 8.3086 3.42138 -0.957811 -0.739748 -0.67694
259 1 4.95273 4.13451 5.86879 0.862101 0.015666 0.394949
260 1 3.55861 4.38406 1.58497 -0.232502 -0.120997 -0.435059
261 1 1.16488 7.14907 9.09762 0.761621 -0.0595719 0.295195
262 1 7.57388 1.24144 0.190141 0.337291 -1.05806 0.847986
263 1 7.74867 6.24025 5.49336 -0.823879 0.433283 -0.267072
264 1 7.48711 5.81161 7.17065 0.428183 -0.0403217 -0.809028
265 1 4.05271 2.31922 1.9845 0.341033 0.0553995 -0.173093
266 1 0.0136459 7.87617 8.00108 -0.157283 -0.0256155 0.255415
267 1 5.12712 2.17664 1.60701 1.11186 -0.739504 -0.473801
268 1 5.83071 0.693474 0.439394 0.0134851 2.19316 -0.380587
269 1 2.22079 7.41688 1.70834 0.210935 0.406267 -0.418551
270 1 0.343427 8.96988 4.31711 -0.34391 0.602573 -0.579313
271 1 2.717 7.67703 0.777929 0.538094 -1.43033 0.249677
272 1 1.94316 4.33489 0.34383 1.20277 0.483152 0.547263
273 1 6.85392 5.66462 2.40307 -0.861707 -0.197457 -0.407022
274 1 3.9165 3.91421 8.42449 0.140022 -0.588443 0.560622
275 1 5.57948 9.31956 1.11667 0.165678 -0.466257 -0.878186
276 1 7.98015 8.44025 1.28919 -1.38498 -0.0645077 1.52212
277 1 4.95005 0.410977 2.86197 0.197807 0.479433 -0.841839
278 1 1.99542 3.62685 5.94173 0.69835 -0.3647 0.758241
279 1 0.856376 4.10112 1.62883 -0.804922 1.44387 0.0282031
280 1 4.0142 0.534492 7.38189 0.165803 -0.606106 0.726521
281 1 6.28867 8.76764 1.79797 -0.119796 -1.00159 0.319923
282 1 1.69953 0.693389 3.72192 -0.127337 -0.200154 0.11906
283 1 0.752805 7.93318 6.07494 -0.313039 0.351164 0.692382
284 1 6.86503 6.28832 4.25242 -0.733123 -0.514321 -0.776471
285 1 9.09643 1.69259 6.01818 -1.24301 0.130156 1.07934
286 1 2.52635 0.583817 6.58503 -0.0216297 0.672715 0.344187
287 1 4.14189 7.68055 5.89262 0.137382 -0.54698 -0.190747
288 1 1.45926 8.08254 1.4934 -0.8051 0.811754 0.676661
289 1 7.46435 2.31707 0.403416 -0.112875 -0.351954 0.524303
290 1 4.56749 4.34934 7.62452 -0.940517 -0.553132 -0.65565
291 1 6.75566 5.07713 7.40762 -0.213697 0.81342 0.463529
292 1 5.41282 3.51857 7.58863 0.130133 0.770789 -0.405053
293 1 8.42197 3.31718 3.38037 -0.225884 -0.0802109 0.61897
294 1 9.07003 3.27837 7.8335 0.40249 -0.0797669 -0.780983
295 1 6.67605 4.2755 6.59418 -0.132675 -0.998571 -0.933959
296 1 7.45839 6.34234 0.107401 -0.707429 -0.247846 -0.812684
297 1 8.43885 6.24112 4.6643 -0.20176 -0.290413 0.333346
298 1 1.28605 4.41437 6.80052 -0.200639 1.31811 0.101801
299 1 1.91346 0.223712 4.78946 -0.577394 0.815295 -0.244272
300 1 9.06796 2.72709 1.795 -0.59509 0.704103 0.115362
301 1 4.98023 8.57805 8.60339 -0.435581 0.455596 -0.459309
302 1 7.1935 8.83605 4.20413 0.171162 -0.29581 1.23185
303 1 2.81614 2.14958 5.57512 -0.882376 0.734557 0.212188
304 1 0.905265 6.23637 7.61147 0.563561 0.221543 -1.36487
305 1 3.69173 8.3099 6.54539 -0.387285 0.853529 0.931909
306 1 0.690196 9.00156 2.16928 -1.18409 0.547088 0.0555947
307 1 5.83129 0.0958881 5.5463 0.671857 0.12114 -0.540041
308 1 1.82895 8.22066 7.4324 1.36927 -0.297812 -0.352708
309 1 8.30132 6.20733 7.87524 -0.658146 1.54679 -0.645694
310 1 9.20382 6.82015 3.82339 -0.146507 -0.141964 -0.171127
311 1 0.728349 7.06177 0.717907 0.391627 -0.307767 -0.732633
312 1 5.66783 5.81977 1.26769 0.141442 0.391415 0.884925
313 1 5.9074 6.08487 4.69041 -0.27898 1.44311 -0.660494
314 1 7.69974 2.79787 2.13483 0.619572 -0.548773 -0.455662
315 1 3.74987 4.4309 6.88223 0.143437 0.507619 -0.653672
316 1 8.63989 5.09707 8.20958 -0.224293 -0.27961 0.170537
317 1 8.65687 6.49154 2.16253 -0.0295886 1.05853 -0.319589
318 1 8.80151 4.1817 2.79416 0.47991 1.21017 0.0109158
319 1 4.26938 1.54939 2.72377 -0.54579 0.0560307 0.197777
320 1 3.67249 7.38788 4.39618 -0.77424 0.0255385 -0.233675
321 1 0.982165 4.06835 0.662708 0.988868 0.870521 -0.17553
322 1 3.40495 9.1158 7.20068 -0.325749 -0.903477 -0.717116
323 1 1.29005 2.31932 2.72031 -0.471563 0.0728792 -0.0561617
324 1 2.11425 6.53929 9.35816 -0.216351 0.662011 1.32645
325 1 8.04134 7.28106 0.561785 -0.385608 -0.593687 0.16354
326 1 5.64204 2.37262 4.10778 0.119539 0.213378 0.586607
327 1 3.37582 2.40192 2.94063 0.106644 -0.249431 -0.503513
328 1 7.89757 3.77511 4.15556 -0.272452 0.733257 -0.0594787
329 1 8.75481 0.792066 0.13547 0.117906 -0.428538 -0.213506
330 1 3.96325 3.7083 0.668587 -0.459468 0.598303 -0.373809
331 1 1.34613 0.734114 5.53355 0.667582 0.230173 -0.631263
332 1 2.19096 2.64901 6.26787 -0.0211351 1.11978 0.25608
333 1 1.38253 3.1717 2.07689 -0.454233 -1.46416 -0.464008
334 1 2.0879 6.47552 5.54935 0.117464 0.211105 1.12923
335 1 0.433782 6.24171 0.183424 0.0743287 0.698296 -0.762186
336 1 5.85647 5.22028 3.70536 0.210403 1.32464 -0.885117
337 1 7.9587 9.28855 3.60827 0.451743 1.35932 0.456826
338 1 6.80368 2.07539 7.29611 -0.250957 0.645454 0.641504
339 1 6.3628 6.24899 0.449458 -0.929658 0.907926 0.139325
340 1 2.48281 7.52326 5.93078 -1.10686 -0.160794 0.20532
341 1 6.7876 7.56 7.48865 -1.05501 -0.343987 1.27094
342 1 0.157248 1.25947 7.57377 -0.756021 0.635144 0.0611962
343 1 5.78528 7.88736 3.39761 -2.00675 1.59637 0.270505
344 1 0.474114 3.79304 8.45914 -0.638838 0.0230605 0.269736
345 1 7.17205 7.16421 5.6965 -0.0507348 -0.10908 1.1761
346 1 0.599778 3.20573 1.19634 0.0498202 -0.650532 -0.756241
347 1 6.71153 6.09699 7.83142 0.00379384 -0.210734 0.705866
348 1 6.77874 1.50863 6.49944 -0.871781 -0.927586 0.944994
349 1 4.30875 2.62328 0.80752 -0.46027 -0.0390337 0.445711
350 1 1.17812 2.97194 5.56442 0.845513 -0.104269 0.231986
351 1 5.59844 0.0530231 8.93695 0.332048 -0.444949 -0.121773
352 1 4.98059 5.86401 6.54115 -0.43714 -0.458127 -0.236599
353 1 7.8201 4.53327 4.94846 -0.0130456 -0.452303 -0.882469
354 1 3.04832 5.45956 7.28911 0.794249 0.3643 -1.06972
355 1 9.11712 7.41829 2.3446 0.981243 0.918182 0.18129
356 1 7.92829 2.41135 7.22144 -0.132651 0.0811011 -1.29206
357 1 0.0479452 5.52254 5.31761 -0.919876 0.744509 -0.467405
358 1 5.7683 2.48818 5.87702 1.58048 -0.130686 1.06914
359 1 1.59293 6.47882 8.41164 0.161599 -1.41735 0.911667
360 1 4.83631 1.48405 0.770078 -0.110209 -1.12546 -0.712328
361 1 8.55473 0.546571 5.48565 -1.8922 -0.795522 1.08808
362 1 1.70787 1.64598 0.375801 -0.763858 -0.0729591 0.751441
363 1 0.215802 4.93164 0.865273 -0.972034 -1.13426 -0.381327
364 1 0.0918569 1.44028 3.11613 0.105774 -0.1143 -0.844003
365 1 5.12607 5.3307 8.92831 -0.0670311 1.66946 -0.309855
366 1 3.9087 9.05552 1.52976 -0.267396 0.788439 0.762154
367 1 0.446194 3.88958 7.00019 -0.237414 0.763854 -0.540385
368 1 2.99217 5.14022 4.56745 0.243895 1.62433 -0.545207
369 1 8.59576 7.41719 1.48453 0.983297 -0.567006 1.79178
370 1 1.85319 0.81455 1.14732 0.54333 -0.0519151 0.574803
371 1 0.279973 9.03189 3.18815 -0.384516 -0.172795 -0.28049
372 1 4.67577 4.52477 4.90557 -0.361663 0.425348 -0.510991
373 1 7.08436 3.08462 7.54287 0.00190384 0.771602 0.427015
374 1 7.9528 1.37437 1.93496 0.594223 0.230271 0.836599
375 1 3.7116 7.59329 0.41768 -0.598284 -0.348444 0.177522
376 1 3.67826 4.7177 0.57634 -0.58878 -1.0986 1.03353
377 1 3.45761 7.19987 8.08078 -1.79291 1.00328 0.546274
378 1 4.93292 6.6381 2.49105 -0.741922 0.0893448 -0.162872
379 1 7.84041 5.49833 1.92686 -0.388525 -0.288912 1.13116
380 1 8.51486 3.76784 5.26937 -0.22016 -0.667838 -0.0083479
381 1 3.21749 2.21744 6.51314 0.5531 -0.710838 -0.193594
382 1 4.8588 9.22352 5.65395 -0.860222 -0.630188 0.0434665
383 1 1.31344 9.01249 0.373502 1.14132 -0.396202 -0.0421103
384 1 5.04555 8.6794 3.25367 -0.270578 -1.38314 0.157898
385 1 5.27453 4.93582 0.534363 -0.914466 1.02776 -0.656379
386 1 7.46508 7.94666 3.83756 -0.306627 0.235234 0.00885374
387 1 0.214932 3.45539 2.29223 0.0585155 1.35934 0.149907
388 1 2.87544 9.04398 1.50111 -0.227931 -1.19704 0.0756818
389 1 6.13485 0.94929 7.1688 0.349009 -0.369439 0.595074
390 1 2.03813 5.76395 4.57935 0.665765 -0.64437 0.315264
391 1 8.28622 7.46971 4.06671 1.14255 -0.10856 -1.11286
392 1 3.09365 5.8972 1.60917 -0.520344 -0.258057 0.499378
393 1 5.93787 8.92687 3.87597 0.402482 0.60582 -0.0245658
394 1 5.37601 3.24121 3.093 -0.798804 0.382454 -0.43784
395 1 5.93414 0.416038 2.01173 -0.190519 0.437259 -0.0632252
396 1 3.43241 1.54431 1.79228 -0.124483 -0.568669 0.205121
397 1 6.70513 4.80839 3.3227 -0.669874 0.177976 -0.317223
398 1 9.2812 4.35653 7.84752 1.15559 -0.275053 -0.328395
399 1 6.82715 0.13224 3.61829 -0.00405797 0.658228 0.102338
400 1 1.49422 4.70714 3.00648 0.179264 -0.768733 0.166433
401 1 6.09934 5.37121 9.30641 -0.0634968 0.174183 -0.502309
402 1 2.32678 4.74055 3.80319 -0.524631 0.048082 -0.843223
403 1 1.78123 3.61048 2.90341 -0.460465 -0.206651 1.10563
404 1 3.92253 0.691085 3.16965 -0.472809 0.106952 0.522117
405 1 0.959989 3.92209 4.96485 1.45987 -1.02627 -0.480577
406 1 5.71545 1.13897 1.32399 -0.568279 -1.54415 0.230056
407 1 7.48974 8.95333 0.480163 -1.06674 0.30595 -0.669446
408 1 2.42181 1.75769 1.25012 0.274016 -0.0642587 0.421177
409 1 9.36154 4.32202 5.42076 0.288352 0.543125 -0.480247
410 1 6.74004 3.48316 0.906027 0.0541609 0.797367 -0.542836
411 1 4.86296 3.05466 2.12959 -0.0687649 0.00778936 -0.149372
412 1 2.64126 5.8754 3.69523 1.17298 0.645569 1.22502
413 1 1.27304 8.41719 8.9403 0.0555853 0.708361 0.607962
414 1 6.58449 0.134234 1.06716 -0.249723 -1.015 0.66077
415 1 7.01943 -0.00619711 8.48053 -0.205658 -0.135056 -0.320986
416 1 0.196541 9.18928 0.26817 -0.0505445 -0.53629 -0.0653756
417 1 8.36118 3.57324 2.00675 -0.545836 0.74521 0.0520932
418 1 5.06172 1.21244 7.2492 -0.528248 0.50211 -0.487375
419 1 1.19514 1.15916 2.9071 -0.132519 -0.593448 -1.11774
420 1 8.47554 5.38698 7.22254 -0.201646 -0.667186 -0.244377
421 1 2.4311 6.97606 8.20378 0.715316 -0.299961 0.350562
422 1 6.31017 1.79552 3.26382 -0.224734 -0.701086 -0.515349
423 1 6.84334 2.99317 4.19149 -0.0507115 -0.548418 -0.10637
424 1 2.49246 4.31265 2.79151 0.573289 -0.445785 0.526828
425 1 7.96305 2.75837 4.0485 -0.0707317 -0.412545 -0.0678612
426 1 0.83814 1.97148 7.97998 0.530235 -0.878447 0.0665038
427 1 7.36219 3.79774 1.65633 -0.161089 0.00675575 0.314288
428 1 3.06419 7.13592 2.06807 -0.782121 -0.307356 -0.0118955
429 1 5.76785 0.869485 8.08321 0.459016 1.04675 -0.569635
430 1 8.56016 2.45834 2.6326 1.39595 -0.0833516 0.842553
431 1 8.91358 6.3118 6.78181 1.10115 -0.187176 0.168891
432 1 2.18945 8.39522 2.15099 -0.362126 -0.140394 0.948293
433 1 7.89047 3.10492 5.78369 -0.741044 -0.19999 0.0393951
434 1 7.41839 3.04434 3.15509 -1.13833 0.234918 0.549959
435 1 7.95686 6.60566 6.49154 -0.231137 -0.361772 0.323608
436 1 1.58235 7.66406 8.30186 0.664738 -0.398172 -0.529173
437 1 3.12994 6.19026 2.66956 0.917465 -0.78403 0.0616952
438 1 3.85586 5.45141 2.35453 0.0422614 -0.928465 -0.466074
439 1 5.34864 2.91589 6.68621 -0.955028 -0.309686 1.78343
440 1 2.84801 0.672033 1.36408 -0.284164 0.640099 -0.54118
441 1 5.9833 2.34166 8.68625 1.57202 -0.684088 0.134602
442 1 2.56732 8.56938 9.19872 -0.0357726 -0.947488 -1.18589
443 1 2.31119 5.3487 1.00932 -0.234158 0.557781 -0.291886
444 1 5.77233 6.04435 7.35095 0.369927 -0.938341 -0.267826
445 1 0.784336 7.16513 8.02885 -0.481512 0.747503 1.49814
446 1 8.68641 2.43835 8.79363 0.231652 0.692473 -0.252998
447 1 0.35231 4.58068 2.76025 0.145038 -0.332591 -0.342076
448 1 1.39592 8.47795 2.93427 -0.604022 -0.667619 1.92246
449 1 6.37349 7.89664 5.48512 -0.441721 0.418695 -0.308094
450 1 1.80434 0.367167 8.37539 -1.65231 -0.553219 0.838043
451 1 7.32514 4.13954 7.59207 0.36006 0.136732 0.318784
452 1 9.06634 6.62414 0.845311 1.88566 0.512372 -0.4939
453 1 3.20543 8.93821 8.20618 -0.0460297 0.563985 -1.22692
454 1 3.92497 6.5085 0.269099 1.1402 -0.553724 -0.519797
455 1 1.10753 8.12585 4.55443 0.857516 0.288732 -1.04996
456 1 1.51586 6.00935 6.16178 -0.905159 0.839296 0.594672
457 1 6.89576 5.21612 6.23332 -0.30688 0.097385 0.879116
458 1 3.70547 8.27448 5.07374 -0.990042 -2.46139 -0.909411
459 1 7.44486 2.5862 4.92181 0.433432 -0.0511124 0.390146
460 1 3.1438 2.58239 4.65571 -0.158953 0.763089 1.33856
461 1 8.82182 2.82703 6.88655 -0.340553 0.255934 0.14941
462 1 6.36037 7.62495 1.28156 0.0247544 -0.23483 0.25401
463 1 0.794531 0.263815 1.03172 -0.810083 -0.888384 0.87868
464 1 9.02552 7.56018 0.449523 0.989914 -0.0167181 0.669666
465 1 9.05807 7.36956 7.11242 0.664558 0.25977 0.227772
466 1 2.64007 8.31485 6.69769 -0.206648 0.0117842 0.282045
467 1 5.13182 1.73471 8.17979 -0.146901 -0.0985488 0.76427
468 1 7.49336 8.196 5.96631 -0.942315 1.24808 0.558211
469 1 6.65595 5.25265 4.29529 1.42723 -0.0833875 1.49951
470 1 6.79894 4.86771 5.31904 0.0875228 -0.690118 0.0325202
471 1 8.58984 1.22328 1.03915 -0.440934 -0.334602 1.03848
472 1 9.11987 2.19107 7.81929 -0.272083 -0.81226 0.234865
473 1 4.62494 3.74173 6.87888 -0.160973 0.366679 -0.459834
474 1 3.62812 0.581104 6.37497 1.54301 0.601371 -0.375494
475 1 9.27671 9.36155 1.49296 0.563054 -0.0385418 -0.823307
476 1 0.969747 4.56582 7.79373 -0.906577 -0.90008 -0.296909
477 1 1.00189 0.352609 4.56635 -1.6965 0.643074 -0.833066
478 1 5.59417 6.9126 1.05752 -0.835958 0.33364 0.166876
479 1 0.475794 2.89359 7.45546 0.0621936 0.97975 0.765063
480 1 0.188896 7.72588 1.2961 0.255732 -0.04598 -0.684947
481 1 5.36147 2.19433 3.16738 0.872044 0.0162518 0.230275
482 1 5.11749 3.62756 0.567236 -0.169301 0.12763 0.602626
483 1 2.00274 4.7665 7.44101 0.177041 -0.135572 -1.28608
484 1 2.98541 1.9509 3.77941 1.05269 -0.765149 0.44369
485 1 7.62744 7.62687 8.97262 0.756073 -0.875905 -1.02816
486 1 5.83895 8.19989 8.90322 -1.44974 0.635714 0.0245194
487 1 6.52179 7.11704 4.79871 0.955578 0.033927 -0.0446953
488 1 8.30027 7.35787 7.9191 -0.442534 -1.43205 0.298002
489 1 0.190272 0.999065 1.50184 -1.90085 -0.0173253 -0.0375946
490 1 4.14808 9.15983 0.54426 -0.0226405 -0.683527 0.17298
491 1 5.16284 7.70516 2.55604 1.33804 -0.172061 -0.168964
492 1 3.82333 0.494616 5.21491 1.16531 -0.0338125 -0.474258
493 1 0.0578544 3.13676 3.35803 1.23421 0.575323 -0.354256
494 1 5.78617 1.69512 5.12414 -0.359 -0.489297 -0.479755
495 1 3.96227 1.75494 3.73093 -1.04291 0.387294 0.360057
496 1 3.77754 2.6697 5.66214 1.25082 0.27521 0.007484
497 1 1.2534 3.58857 7.61636 0.270831 -0.166209 -1.69341
498 1 1.72221 1.43071 1.96837 1.20715 0.130323 0.0840544
499 1 3.53644 8.01438 8.71709 -0.899301 0.466401 -0.315458
500 1 6.64291 3.6253 9.31188 0.167068 -0.650921 0.347762
501 1 5.06456 5.73728 3.12495 -0.240005 1.26833 -0.174083
502 1 0.337228 0.267591 6.9476 -0.841731 -0.156198 0.131162
503 1 4.89259 8.12042 6.57741 0.578606 -0.692709 -0.920812
504 1 6.40243 6.77024 6.96356 -0.666021 0.500867 0.397375
505 1 3.83664 3.78861 5.8154 -0.790796 1.20908 0.0421946
506 1 8.27717 8.05339 5.03858 -0.960881 -1.23954 -0.349208
507 1 0.3673 2.13799 1.22702 0.0249564 -0.767831 -1.06499
508 1 6.70119 1.3979 0.857196 0.211417 -0.502728 -0.83778
509 1 4.38815 7.91691 8.1218 0.262904 -0.40727 1.25939
510 1 1.86788 7.58804 2.71915 -0.558925 -0.025847 -0.534366
511 1 8.23031 0.652123 4.51654 -0.106771 0.698056 -0.784189
512 1 5.98738 4.02369 3.26337 0.416292 1.09221 -0.10344
513 1 9.38975 7.27186 8.85142 0.642819 0.406526 -0.595057