ITEM: TIMESTEP
41330000
ITEM: NUMBER OF ATOMS
1000
ITEM: BOX BOUNDS pp pp pp
0.0000000000000000e+00 9.4000000000000004e+00
0.0000000000000000e+00 9.4000000000000004e+00
0.0000000000000000e+00 9.4000000000000004e+00
ITEM: ATOMS id type x y z vx vy vz
1 1 9.0103 4.89446 0.719859 0.215401 0.471422 -1.08871
2 1 6.86544 6.97389 0.608858 0.0948866 0.292047 1.07294
3 1 3.58052 2.51187 3.1419 0.382034 0.614111 0.0110846
4 1 6.31879 7.94253 8.68773 0.857476 -0.0864563 1.14825
5 1 1.41318 8.5302 3.82258 -1.19614 0.79465 0.181953
6 1 6.67086 8.08957 7.05706 -0.204882 -0.345616 1.10968
7 1 2.40249 0.576939 1.6313 0.182109 0.632464 0.38161
8 1 4.74384 0.916944 6.88169 -0.819621 -0.417806 -0.724407
9 1 2.38216 5.02255 5.6884 0.898257 -0.294495 0.402584
10 1 2.14659 6.7263 9.2661 0.034433 -0.631104 0.327103
11 1 6.70205 9.32621 6.01781 0.163224 -0.263289 0.247075
12 1 9.03028 0.199001 0.636391 -0.972853 0.211634 -0.960016
13 1 1.83446 2.78653 1.04235 0.597158 -0.497048 -0.303334
14 1 4.26531 4.59991 3.99614 0.132991 0.193809 0.332093
15 1 7.90416 2.41348 0.693747 0.737798 0.0915483 -0.886239
16 1 1.05332 1.19188 6.19343 -0.113934 -0.858871 0.315518
17 1 8.61994 2.86741 1.22212 -0.740255 -0.374267 0.959663
18 1 5.50738 6.61203 7.91443 1.03164 -1.61061 0.372979
19 1 4.33303 4.67764 8.61714 0.759411 0.19757 0.445336
20 1 8.37973 5.90222 6.55307 0.0847506 -1.91687 -0.941472
21 1 8.35507 9.0791 3.02417 0.0804108 -1.15664 1.16173
22 1 3.91927 4.38241 7.68531 0.114115 -0.652216 0.12292
23 1 4.99855 1.56082 8.78299 0.121941 -0.049398 0.408516
24 1 2.96155 5.58519 6.38318 -0.408313 0.596722 -0.0408791
25 1 6.9585 1.644 0.954175 1.20492 -0.149883 -0.568246
26 1 0.470614 3.27064 3.55616 0.650954 1.13702 0.648508
27 1 0.265046 7.37099 1.65613 -0.73548 0.030792 0.396055
28 1 3.90123 1.97625 2.01901 0.256241 -0.271659 1.49982
29 1 0.533314 5.13642 6.78866 -0.213323 -1.80088 -0.464546
30 1 0.0148363 4.05175 6.2883 0.666068 0.204642 0.35712
31 1 2.58664 2.30528 1.88891 -0.233157 -0.208302 0.893002
32 1 8.07781 6.40335 5.49395 0.518203 -0.245622 0.298949
33 1 3.18802 8.22947 8.40869 -0.298673 0.266313 1.09956
34 1 5.53485 -0.00406282 3.35717 -0.871568 -1.45504 0.893524
35 1 0.248722 1.75189 1.5626 0.484386 0.390906 -0.163903
36 1 3.83673 8.82635 2.41931 -0.142004 0.45593 -0.637317
37 1 5.44105 9.31453 8.90345 1.1818 -0.363665 0.632985
38 1 0.916608 7.87574 3.2233 1.09968 0.770836 -0.155024
39 1 0.517563 7.7503 8.02575 -0.458878 -0.893715 0.648992
40 1 7.19856 1.98158 9.32819 0.202833 0.622143 -1.3722
41 1 7.44956 7.30717 5.35798 0.903221 0.401759 -0.351889
42 1 1.50306 1.22289 5.1187 -0.189589 0.913185 -0.949754
43 1 1.18536 9.25625 8.50144 0.10062 0.594349 0.437506
44 1 1.30598 2.68993 5.70584 -0.511231 0.0844267 -0.0689189
45 1 5.95068 3.35991 4.07571 -0.846689 0.0824758 0.799813
46 1 3.06685 3.45081 3.70928 1.01726 -0.194348 -0.255513
47 1 1.30901 6.1244 0.706921 -0.745841 1.05856 0.75659
48 1 6.08743 5.40379 2.97746 -0.821394 0.0849891 -0.446549
49 1 2.29362 4.00616 6.34269 0.669993 -0.169669 -0.192884
50 1 1.46931 7.4634 4.02083 0.359221 0.577928 -0.206377
51 1 1.12486 5.93164 2.97885 1.00817 1.01878 0.135926
52 1 3.36591 0.737907 2.04332 -0.340128 0.957745 0.109719
53 1 3.01313 1.58203 3.59724 -0.331717 0.313867 0.940062
54 1 6.39212 7.01196 9.10926 0.0136426 -1.51099 -0.313106
55 1 1.84621 6.00121 8.54213 1.5826 -0.428196 0.726451
56 1 1.4236 4.55839 8.7827 -0.634853 0.507411 1.36052
57 1 8.54785 6.23609 7.72722 -0.398197 0.0792111 0.716735
58 1 7.25588 8.43324 8.69229 0.163036 -0.41255 0.854946
59 1 7.59025 8.09735 7.49303 -0.128697 -0.363249 0.305222
60 1 2.7108 7.36093 3.77674 -0.529375 -0.957629 -0.922049
61 1 3.14135 1.70124 2.59832 -1.15474 0.148142 -0.666901
62 1 0.379357 0.679306 1.21614 -0.707791 0.116651 -0.403622
63 1 7.38186 0.473467 6.65341 -0.312727 0.397578 -0.801296
64 1 7.94211 7.33606 0.657444 -0.213427 -1.61699 -0.808258
65 1 0.671328 1.327 4.52426 0.294962 -0.904813 0.246396
66 1 2.57407 6.08605 5.58695 -0.789417 0.013484 0.434696
67 1 3.10116 9.19705 1.67721 0.638565 -0.0453204 0.689335
68 1 4.93982 6.50946 0.00477313 -0.77152 1.02514 -1.35102
69 1 5.57446 4.0433 2.98363 0.0197037 0.188441 -0.890241
70 1 7.44148 2.66811 3.35677 -0.400038 -0.251422 -0.652427
71 1 7.29908 3.20855 0.209803 0.212177 0.481688 0.391203
72 1 5.91388 9.02389 4.43888 1.15943 0.518078 -0.39331
73 1 2.97568 6.66304 6.54538 -0.601883 0.879822 -1.0033
74 1 5.80801 7.32002 4.07143 0.426779 0.131218 0.297536
75 1 7.41602 2.13701 8.25879 0.853244 0.970964 -0.429764
76 1 6.92683 2.71645 1.00094 -0.904004 0.408496 0.387987
77 1 2.13627 3.2273 3.38905 0.435098 0.138045 0.203877
78 1 3.24574 7.59293 1.91291 -0.128143 -0.928001 0.0710809
79 1 7.37254 0.936093 7.72138 0.249072 0.366343 0.170452
80 1 8.57455 7.21814 9.01634 0.606784 1.05179 0.91373
81 1 3.53219 7.20853 5.84614 0.464251 0.421397 0.0261942
82 1 6.19713 1.34295 4.29813 -0.248607 -1.37605 -0.747929
83 1 3.83909 5.51749 4.62026 -1.30269 -1.31763 0.0120739
84 1 0.719447 7.05184 6.14899 1.04145 0.370042 -0.898386
85 1 2.00312 1.77134 0.183799 -0.337892 0.607657 -0.574428
86 1 3.39852 3.95351 0.14754 0.770662 0.144164 -1.33887
87 1 5.61351 2.14759 4.92515 -0.420642 -0.0705526 -1.0579
88 1 9.04935 2.66205 8.0974 0.0351201 1.14092 -0.269603
89 1 1.21565 3.9236 3.18141 -0.126856 0.812752 0.0403803
90 1 7.47632 3.71326 2.45667 0.710836 -0.0268113 -0.39208
91 1 8.52273 5.86217 4.57919 1.09046 -1.08504 1.49685
92 1 6.98183 6.25929 8.62403 1.0068 0.0719641 -0.461622
93 1 2.87433 8.97531 5.06015 0.34187 1.19454 0.840947
94 1 1.63598 8.6239 2.73484 0.717835 0.30193 0.443411
95 1 2.02374 3.69727 2.44946 0.742963 -0.19643 -0.236904
96 1 3.1977 0.166562 9.36156 -0.238556 0.237455 0.817675
97 1 2.22483 1.37363 2.22687 -0.0443764 0.318948 -0.951395
98 1 5.50059 1.40443 3.39891 -0.456323 0.144464 -0.250024
99 1 1.79951 0.169282 3.38299 0.349871 -0.472483 -0.837317
100 1 6.56865 6.56841 4.1744 0.380369 -1.00586 -0.291948
101 1 4.55011 5.82169 3.90352 -1.08644 -0.77688 0.11821
102 1 6.7141 0.313762 4.53327 0.352684 -1.84154 -1.06351
103 1 0.542909 9.10435 0.88717 -0.896628 -0.650437 -0.758573
104 1 3.85191 8.69971 9.16583 0.42687 1.20558 0.742849
105 1 8.27239 8.10695 5.62517 1.27703 -0.16844 0.457517
106 1 8.28888 1.90939 7.72872 -0.682259 0.0242012 0.747182
107 1 7.97707 7.62115 1.99036 -1.8586 0.263144 -0.828728
108 1 0.627712 2.18739 6.59051 1.06042 -0.398074 -0.651351
109 1 6.73219 3.44067 3.19201 0.5854 0.231908 -0.91145
110 1 0.956613 6.08395 6.66804 -0.390294 -0.220014 0.91688
111 1 3.93475 6.59478 9.07513 -0.791486 0.772704 1.32608
112 1 6.19238 1.23073 0.352596 0.214145 0.770513 1.11724
113 1 4.98627 3.99225 7.06764 0.817199 -0.412539 -0.760746
114 1 2.79148 0.671514 2.91777 -0.239827 0.425403 -1.39777
115 1 4.91676 9.04975 4.64634 -1.05229 -1.05638 0.0491718
116 1 5.64493 4.3772 7.84896 0.30143 -0.632864 -0.306426
117 1 0.0352335 6.3794 1.19273 -0.110762 0.354152 -0.419995
118 1 7.61858 2.57926 7.28725 0.705607 -0.0107768 0.565969
119 1 6.41068 7.69984 4.95643 0.365517 0.913933 -0.0484151
120 1 2.14474 5.04881 1.02809 0.0752959 -0.792667 -0.40203
121 1 5.90848 7.68933 7.74524 -1.24977 -0.605856 0.16654
122 1 1.91075 8.45255 8.89959 1.57663 0.105831 -0.817369
123 1 1.34686 8.43215 7.86334 0.525244 -0.147221 1.13451
124 1 5.8611 0.281239 5.29941 -0.469087 0.613741 0.206907
125 1 6.70393 4.92641 6.37878 0.681304 -0.385407 -0.354952
126 1 0.795682 4.24025 2.17675 -0.794811 0.034474 0.687203
127 1 2.11786 9.11791 4.35255 -0.0345789 0.652354 0.646908
128 1 4.2092 7.8203 7.20186 -0.975379 -1.75528 1.51651
129 1 3.99174 3.40756 0.869588 -0.0375989 -0.286509 -0.564521
130 1 3.89979 8.10725 6.26155 0.70806 -0.368145 -0.611202
131 1 9.12556 1.04383 4.30379 0.776458 1.40866 0.777408
132 1 7.12812 3.28965 4.18906 0.82411 0.0489619 -0.0114071
133 1 5.48238 7.87103 1.86338 0.163734 -0.563063 0.938352
134 1 3.6922 7.32797 4.79787 -0.779149 -0.747628 0.570258
135 1 4.60597 1.16134 3.98956 -0.543667 -1.19292 0.0162619
136 1 1.85719 2.2608 7.70807 -1.29688 0.390583 -0.624431
137 1 2.90842 5.0083 0.0807592 -0.75719 0.279441 0.300469
138 1 7.35186 3.59536 7.209 0.654227 0.632198 0.689983
139 1 0.0669561 4.18998 4.91998 0.345339 -0.646732 -0.855046
140 1 3.22491 4.59084 5.03184 0.449701 0.172063 -0.155578
141 1 4.54696 9.06266 6.47985 -0.602857 -0.165842 0.153828
142 1 1.19082 2.67211 0.132328 1.10369 -0.273981 -0.323052
143 1 3.54671 5.83744 0.483547 0.176247 1.11177 0.376063
144 1 1.37561 3.60297 6.48992 1.22023 -0.533401 -0.506343
145 1 6.70928 4.82524 7.92254 -0.37821 0.98 0.0466024
146 1 7.94804 1.47488 2.1157 1.73291 -0.277284 0.173871
147 1 3.92363 8.93609 5.6309 -0.901324 -0.158112 0.618909
148 1 6.39451 4.06211 7.00697 0.351705 0.625305 -0.665373
149 1 7.85726 5.67388 2.91726 -1.93384 -0.470634 0.959029
150 1 5.23827 0.118087 1.27332 0.0242329 -0.136454 0.334564
151 1 1.30318 8.52601 4.80917 0.313467 0.296083 0.0852785
152 1 5.46556 7.29268 8.81709 -0.496087 0.383508 0.109528
153 1 1.08148 6.69527 9.16163 0.602242 -0.668398 1.2492
154 1 6.39085 5.02667 0.828187 0.283503 -0.529433 0.735841
155 1 6.88273 6.04446 2.13303 0.461191 -0.221073 0.200897
156 1 4.65746 8.72535 3.01946 0.348369 -0.15243 0.421091
157 1 6.36854 3.77395 5.97857 1.03517 -0.164697 -0.942483
158 1 4.92849 5.37684 9.13164 -0.292443 0.0646632 0.902117
159 1 1.11094 7.49445 5.01758 0.378363 -1.54651 0.820748
160 1 5.69535 8.07194 6.44247 0.123116 0.269507 0.941845
161 1 0.426037 4.60782 8.6434 0.16128 -0.856474 0.204121
162 1 0.327247 0.829583 0.0512783 -0.792148 -0.516036 0.0353367
163 1 0.336842 4.97461 5.72895 -0.568857 -0.0545264 -0.0146554
164 1 5.60636 8.52337 2.69016 0.436023 0.498695 0.524544
165 1 8.11097 9.23529 1.27921 -0.54498 0.489861 -0.276197
166 1 5.39114 6.32702 4.34967 -0.971546 -0.912416 -0.0257261
167 1 3.89739 6.79682 1.93977 -0.0446025 -0.0117869 -0.547893
168 1 6.85655 5.72332 7.01027 -0.000280718 0.705207 0.136556
169 1 2.41135 5.0382 8.55841 0.117252 -0.498083 0.173387
170 1 1.96527 1.64532 5.9 0.600488 0.600397 0.53788
171 1 9.15666 4.43335 2.58892 -0.30562 -0.695551 0.853597
172 1 2.49925 4.17239 9.11445 0.240108 0.698023 -0.346397
173 1 7.64047 6.28489 0.250712 -0.0686035 0.0103125 -0.848854
174 1 8.98242 3.38962 5.47227 -1.04078 0.354256 0.224605
175 1 6.51492 9.03266 2.56912 0.850105 -1.18802 0.213961
176 1 1.29525 1.56289 7.16537 -0.177114 1.10731 -1.3872
177 1 4.77012 9.15673 8.00632 -0.171542 -0.876549 -0.279145
178 1 8.68344 4.63752 5.50699 1.65862 -0.787721 1.06629
179 1 5.39516 8.32371 3.65517 0.546962 -0.64983 -0.338268
180 1 0.501865 8.94446 4.34764 -1.01815 0.982002 -0.99381
181 1 6.08132 7.73651 0.935564 -0.137844 -0.346839 0.669411
182 1 4.17707 2.1715 5.70663 -0.278507 -0.800241 0.426772
183 1 1.67951 6.27928 7.53996 -0.00473341 -0.602909 0.795542
184 1 4.27002 0.943945 8.02489 0.187232 0.691086 -0.102325
185 1 2.49356 6.78402 8.12821 -1.78415 -1.11246 0.728013
186 1 2.36274 4.11875 5.30041 0.872997 -0.23333 0.264236
187 1 3.48969 2.40801 8.48138 -0.785275 -1.12663 -0.188302
188 1 3.76134 5.88816 1.47297 1.16853 -0.260953 0.798294
189 1 2.42649 4.01394 4.32952 0.116917 1.08407 0.418041
190 1 6.7561 3.62233 1.68653 0.137983 -1.16656 -0.751881
191 1 4.66676 6.15489 8.46916 0.298874 -1.04675 -0.622539
192 1 0.771741 5.81786 7.65953 0.484978 -0.0724673 -0.793925
193 1 3.30906 5.27391 7.82762 -0.0969693 0.270643 -0.972577
194 1 2.801 3.13939 8.74825 -0.158277 0.121447 0.129439
195 1 8.52815 8.79996 4.15022 -0.32495 0.036803 0.660365
196 1 3.18262 0.635053 0.952765 -1.0199 0.449577 -0.796921
197 1 1.52225 6.64099 5.48516 -0.180145 0.400899 -0.651385
198 1 2.71371 4.11523 0.94375 -0.764621 -1.24058 -0.0845817
199 1 1.83484 6.78789 6.58164 -1.47071 -1.01626 0.274699
200 1 3.39155 8.86046 6.73485 0.828077 2.26995 -1.17994
201 1 1.7997 8.00572 1.2235 0.333496 -0.130234 1.12812
202 1 7.95364 1.36997 4.01937 0.595441 -1.38986 -0.264028
203 1 3.75871 6.06819 7.07103 -0.213775 -0.0168889 -0.62637
204 1 4.22344 3.06162 6.44291 0.198525 0.625222 -0.651364
205 1 6.54627 7.68304 5.98775 0.739437 -0.402448 -0.697849
206 1 0.663572 1.79988 5.58746 1.25282 0.0577148 0.220564
207 1 7.83173 3.60308 1.42601 0.287159 -0.0727768 -0.91736
208 1 8.06427 3.81944 5.6866 -1.43302 -0.0504372 -0.378454
209 1 4.95088 1.77279 7.61735 -0.402886 -0.375419 -0.608548
210 1 1.12432 1.80065 9.02007 0.814746 -0.010818 0.555586
211 1 9.1068 2.48825 3.09175 1.45405 0.325527 0.321337
212 1 4.97011 7.06067 2.36912 0.339769 -0.16572 -0.735429
213 1 2.23514 2.22917 3.98492 -0.751259 -1.47267 1.16192
214 1 8.04643 2.64782 9.07459 -1.15608 0.156543 0.177282
215 1 3.09572 6.60197 4.38664 0.229351 1.05375 0.272919
216 1 4.33319 5.77341 6.31393 1.47735 0.511964 0.118244
217 1 7.17571 0.889682 0.154318 0.0721284 0.898417 0.159448
218 1 5.41452 4.95111 1.37976 0.932123 -0.0797118 -0.101262
219 1 5.65396 5.55524 0.439108 -1.59181 -0.183035 0.532096
220 1 8.96018 1.23593 0.631897 0.878421 0.653214 -0.0746218
221 1 7.33613 0.61104 5.42185 -0.435004 -1.07409 1.42892
222 1 6.66387 4.39486 2.60762 0.576854 -0.45177 0.718843
223 1 3.6419 9.05117 0.752061 0.380112 -0.240649 -0.159595
224 1 7.28656 7.67472 2.83544 -1.0156 -0.403301 0.502764
225 1 6.28872 5.86524 6.00454 -0.295933 1.03353 0.249559
226 1 0.77539 7.06882 2.599 0.116588 -0.552516 0.708586
227 1 5.08121 7.43435 0.561628 -0.0376476 0.131521 -0.293647
228 1 6.59739 3.72676 8.06275 0.413994 -0.861662 -0.388301
229 1 0.684537 8.06261 0.767164 -0.263521 0.749445 -0.0236958
230 1 4.12066 2.21271 0.959106 0.281765 0.324492 0.31581
231 1 0.864863 5.67168 8.74237 0.201549 0.169796 -1.01222
232 1 6.30962 5.17756 8.8855 -0.935808 -0.498354 1.56165
233 1 7.8067 6.83916 8.1048 -0.314586 -0.229256 -0.0267876
234 1 3.58246 7.62114 9.31987 -0.686514 0.00908038 -0.702435
235 1 6.87859 6.72732 6.5828 0.68954 0.343555 0.0811072
236 1 0.33432 8.74064 8.3793 -0.84983 1.35814 0.94219
237 1 7.68999 0.877925 1.12022 -0.423286 1.49376 -0.361302
238 1 8.15543 8.16018 0.0358746 -0.0801179 -0.859114 1.50693
239 1 4.43257 8.16414 5.12364 1.5204 2.27719 0.173156
240 1 4.95309 2.86497 5.44058 0.345295 0.158312 -1.01512
241 1 2.40871 5.01659 2.04543 0.202767 -0.0368657 1.52203
242 1 8.06347 2.80349 5.57045 0.158765 0.101144 -0.0114081
243 1 1.92358 8.88815 1.65451 -0.322602 -0.789319 1.37862
244 1 5.51795 8.49561 8.23573 0.414501 -0.40816 0.626199
245 1 5.87084 4.14434 2.0088 1.55409 -0.335565 0.357421
246 1 0.813042 7.05066 0.71936 0.7741 1.13037 -0.120448
247 1 5.37147 3.01581 3.22825 -0.20949 1.13554 -0.113036
248 1 5.4159 8.17987 4.64534 0.19946 -0.472736 -0.750006
249 1 3.28785 4.41381 8.58692 -0.692336 -1.15801 0.162373
250 1 4.47886 6.59721 5.64776 0.393218 0.584464 -0.703656
251 1 6.75284 1.74124 7.51465 0.882675 -0.83904 0.740974
252 1 1.30894 2.2356 4.77031 -0.641151 1.11727 1.01958
253 1 0.620881 6.01033 5.72309 -0.444334 -1.14819 2.3682
254 1 6.8782 1.90938 1.97356 0.0394823 -1.05391 -0.151135
255 1 5.13076 3.2765 8.9343 0.296897 0.443857 1.69969
256 1 2.933 3.79519 7.95116 -0.160073 0.31983 0.531308
257 1 4.58798 1.32822 0.441165 0.990214 -0.76717 -0.167411
258 1 2.05306 1.25926 3.32065 -0.787543 -0.733654 -0.300134
259 1 2.96699 6.04002 8.99333 0.389546 0.415351 -0.843603
260 1 3.12889 3.42268 6.65473 0.0949019 -0.754883 -1.00331
261 1 7.99535 4.03651 0.360363 0.283966 -0.718895 0.241611
262 1 4.75056 8.6394 1.92556 -1.22064 0.328925 -0.359676
263 1 5.25732 4.88245 3.53623 -0.261813 1.34778 0.773939
264 1 7.93331 5.27689 5.27731 0.0213672 -0.233621 -0.0457595
265 1 5.5126 4.27368 4.3704 0.180776 -0.406386 0.303433
266 1 6.56222 6.91587 2.60563 -1.85901 -0.437634 0.239007
267 1 4.85592 1.66504 2.57809 -0.59762 -0.610073 -0.0554558
268 1 5.53457 0.986735 6.2172 0.94082 -0.0639602 0.587884
269 1 4.25941 4.54667 1.2872 -0.375502 -0.985864 0.731621
270 1 7.85438 8.26905 3.59544 -0.241929 0.0948755 -1.25725
271 1 6.55234 6.00514 0.0951822 -1.31261 0.576943 0.0373481
272 1 8.34093 0.35653 3.82317 -0.223249 0.46306 -0.795922
273 1 8.97677 1.56117 2.54039 1.24652 -0.353464 1.63154
274 1 7.02735 7.48057 8.08766 0.576959 -0.78544 0.420763
275 1 3.74561 7.53323 3.70038 0.0120554 0.757474 -0.135937
276 1 8.86405 6.26881 3.13195 0.955526 -0.508158 1.5212
277 1 3.84679 0.445125 2.93444 -0.37257 0.225388 0.874129
278 1 2.71589 6.04143 7.31197 1.13258 0.127061 0.452737
279 1 2.54474 8.7846 3.52815 -1.0561 -0.100948 -0.0810077
280 1 4.05637 1.51821 3.14037 0.606976 0.370878 -0.00761916
281 1 6.50102 8.17874 3.27106 0.802474 0.0990506 -0.923569
282 1 8.53538 8.04784 2.91017 0.148486 1.19947 -0.0974538
283 1 9.37105 7.44942 3.40887 -0.679382 -1.29508 -0.146252
284 1 7.05242 7.69496 3.91656 -0.555828 -0.21462 -1.44658
285 1 6.5009 9.16369 3.62085 0.0449382 -0.130735 -0.510469
286 1 0.241652 1.40967 8.46211 0.564582 -0.395186 -0.470405
287 1 3.01519 7.96916 5.31276 0.615743 0.647362 0.51829
288 1 3.86755 0.0794105 8.42308 0.688127 0.772385 0.190476
289 1 7.3165 1.54841 6.48459 -0.886196 -0.0399085 -1.19035
290 1 2.26981 7.90378 8.00442 0.18587 0.29536 0.0963601
291 1 4.41933 3.88228 0.0395449 -0.525731 0.830613 -0.825389
292 1 9.1591 8.48146 6.02279 -0.283411 -2.1405 0.80003
293 1 2.39547 1.41711 4.55412 -0.156524 -0.0124361 0.532856
294 1 9.24681 5.90366 7.01834 0.0766229 -0.665279 -0.169605
295 1 8.36872 5.23578 7.33251 -0.611471 0.276208 0.80826
296 1 5.89236 6.68105 0.583749 -0.253338 1.13319 0.169186
297 1 4.95536 3.60914 2.27274 0.0220757 -0.252436 -0.31591
298 1 4.25977 6.76071 6.62519 -0.788889 -0.121136 0.0117002
299 1 5.71966 7.50085 2.92762 1.20509 -0.935576 -0.038235
300 1 7.74554 2.506 1.68512 -0.0712649 -0.0259216 -0.561713
301 1 2.2383 1.00511 7.52766 0.0488134 -0.368554 0.380712
302 1 8.32016 9.3616 6.59398 0.0637206 -0.307466 -0.0550515
303 1 1.48244 9.00059 0.322372 0.403217 0.710671 -1.38994
304 1 7.77244 4.62668 2.83938 0.534018 0.284267 -0.696727
305 1 3.46128 1.49169 0.513479 -0.670254 0.927109 -0.142269
306 1 6.8593 8.57301 4.43592 0.700135 -0.0195836 -0.500077
307 1 6.40817 8.72439 0.64514 -1.13652 0.257759 -1.08606
308 1 9.01808 0.516282 7.04742 -1.74751 -0.715567 0.908605
309 1 9.25309 6.3103 8.7046 0.56483 -0.635983 -0.241601
310 1 5.34952 5.59823 6.24837 0.184567 -0.345604 -0.597029
311 1 7.65756 6.72846 1.52027 -0.0524915 -0.489581 1.17963
312 1 3.22535 4.984 1.12587 -1.32249 0.306766 0.137431
313 1 7.0883 0.894109 2.08563 0.336364 -0.314095 -1.06345
314 1 7.83681 3.5774 3.45049 0.916548 -0.778944 -0.318778
315 1 3.66376 5.28399 5.76433 -0.556759 -0.0619757 0.844786
316 1 2.00529 4.9807 4.67378 0.56139 0.425548 1.58978
317 1 9.05017 1.9386 7.03132 -0.405693 -1.02656 -0.188468
318 1 9.21743 6.51816 6.2042 0.0149585 -0.511994 -1.48826
319 1 5.66081 9.29664 6.34099 -0.72308 0.212231 0.0158166
320 1 5.20842 4.63578 5.32395 0.487785 0.651884 -1.2577
321 1 0.572486 1.92384 2.61852 -0.111702 1.16202 0.828295
322 1 1.43372 6.32261 3.88663 0.498615 -1.07434 0.772576
323 1 3.20537 7.03718 2.8296 -0.104437 0.72768 -0.378626
324 1 2.8624 4.52765 7.09459 0.219405 0.216282 -1.28141
325 1 4.17811 4.36705 2.29196 0.335758 -0.667706 -0.453141
326 1 8.0462 1.75329 5.55897 0.714897 -0.551445 -0.422266
327 1 5.26908 0.758769 8.03027 -0.616046 0.934464 1.25236
328 1 6.12821 3.66857 9.00915 0.357876 -0.763213 -1.07633
329 1 8.75581 1.86741 8.73787 0.59476 -1.03583 -0.501152
330 1 4.05306 0.179731 7.25368 -0.687581 -0.430774 0.141385
331 1 3.85797 1.91466 4.0964 0.930283 0.750039 -0.114545
332 1 3.41878 1.14034 5.71526 -0.169045 0.754931 -0.812035
333 1 8.29533 4.47107 1.93927 0.0638173 -0.550738 -0.723991
334 1 0.69222 7.83362 6.98587 -0.689729 -0.517363 0.847126
335 1 8.05736 0.892077 2.95993 0.363889 1.01638 -0.598919
336 1 0.896372 5.95503 4.72757 -0.135566 0.0909094 0.272955
337 1 6.03171 5.13219 7.21394 0.895842 1.57345 -0.519565
338 1 0.120284 0.385967 8.50459 -0.64374 -0.760924 -0.300442
339 1 0.981565 4.79294 7.73362 -1.29526 -0.894944 -0.576894
340 1 2.54112 0.61641 3.97662 -0.484557 0.321081 0.305034
341 1 8.98278 9.31985 7.82934 0.311438 -0.0402127 -1.02145
342 1 7.68357 5.48244 1.89608 0.209427 -0.688239 0.501658
343 1 4.45794 5.28027 1.95096 0.0793371 1.28782 0.0681262
344 1 0.732605 0.284569 6.60498 0.752843 -0.5469 0.135064
345 1 5.8531 7.02213 6.22942 0.714062 0.0371755 -0.592633
346 1 7.27181 5.2609 0.380168 0.310122 -1.15376 -0.693981
347 1 5.64037 4.54764 6.33172 0.134131 0.225898 0.621353
348 1 8.41509 3.37133 7.56246 0.399282 -0.255954 0.463312
349 1 7.67311 4.2844 8.71342 -1.67613 -0.391922 0.00324864
350 1 3.40601 2.85103 5.79863 0.759299 -0.275122 -0.899374
351 1 7.61684 6.66602 2.69185 -0.236324 0.633821 -0.283634
352 1 9.34157 8.9355 6.92738 0.277789 -0.343366 -0.430743
353 1 8.72084 2.33172 4.93937 -0.737515 -1.33324 -0.0360845
354 1 0.32457 6.94307 7.17898 0.522485 -1.2755 -0.0463491
355 1 0.962001 6.15131 1.71813 -1.46538 -0.249815 -0.303723
356 1 4.44737 1.17296 5.63999 0.308704 1.44246 -0.567307
357 1 1.14167 2.79888 8.44501 0.146947 -1.04499 0.420768
358 1 4.68804 7.41108 4.35216 0.0456891 0.389272 -0.608186
359 1 5.20962 7.1402 7.08459 -0.292854 0.489707 0.531089
360 1 3.40196 3.91442 1.67998 -0.404966 0.64266 1.10383
361 1 4.63723 1.84962 4.816 -1.01895 0.121599 -0.573166
362 1 4.12472 1.20391 1.39388 -0.448817 0.280729 0.385401
363 1 7.11901 4.07973 0.861743 0.295917 0.548987 -0.630453
364 1 2.0946 5.24868 7.58828 -0.0323988 0.545485 -0.998111
365 1 0.760375 2.64372 1.28742 0.988661 0.56258 0.111314
366 1 5.96579 8.81028 1.71235 -1.06933 1.45017 -0.0945182
367 1 1.87298 4.17743 1.49374 -0.922695 0.232369 0.0977487
368 1 3.28736 1.88228 5.0313 1.12063 -1.36233 0.120416
369 1 0.338359 6.20595 0.252762 0.235875 -0.680346 -0.128872
370 1 8.66867 9.15067 8.95908 0.511833 -0.0512246 0.543927
371 1 3.63145 5.48274 3.48289 0.185002 -0.395348 0.0857607
372 1 4.61457 2.54305 8.4365 -0.0503053 -0.816051 0.829511
373 1 5.43771 6.94556 1.42241 -0.34176 0.636421 0.295358
374 1 8.59726 7.19154 5.13213 -0.159 1.63824 -1.88557
375 1 4.90908 4.9733 7.0227 -0.200457 0.403096 0.255243
376 1 2.38099 8.9134 8.21007 -0.441438 0.75822 0.312557
377 1 2.50198 7.32375 7.18037 0.392564 -0.587318 -0.676658
378 1 5.68332 1.07763 1.23169 1.20051 0.70796 -0.0575787
379 1 6.39151 3.02603 6.67327 0.397556 0.54829 1.0964
380 1 7.97549 4.97197 6.22063 0.175883 -0.147625 -0.613678
381 1 4.13265 0.0873548 1.67468 -0.501086 0.457816 1.0729
382 1 5.44866 6.33068 5.49254 0.659351 0.142972 -0.71258
383 1 8.90484 8.32213 7.83625 -0.481062 -0.225329 0.24647
384 1 3.51363 9.00338 3.47197 0.458561 -0.0812471 0.367204
385 1 4.584 7.94735 9.01523 1.32284 0.650577 0.719498
386 1 9.2808 5.22733 4.79111 -0.0592651 0.0514271 -0.771798
387 1 0.274706 1.36865 3.40144 -0.0855469 0.470917 0.711914
388 1 6.21124 0.169517 0.0904059 0.139695 -0.158061 0.728663
389 1 6.11949 2.7944 5.63838 -0.644983 0.125306 0.310154
390 1 2.68604 5.12827 3.00354 0.364543 -0.555784 0.464237
391 1 5.8494 0.893826 8.86467 0.226051 1.41805 1.0716
392 1 3.50262 2.87672 0.166655 0.646212 -0.350596 -1.13295
393 1 0.461752 5.49669 1.09065 0.87789 -0.670522 -1.08129
394 1 8.85901 5.43621 1.52451 0.356428 0.216106 -1.46595
395 1 0.382673 9.23885 9.3473 -1.16439 -0.502887 -0.19932
396 1 2.11039 2.25224 2.97087 0.431105 0.738035 -0.582835
397 1 6.00366 4.07467 0.808614 0.784189 1.16011 -0.0573766
398 1 9.34176 4.54046 1.62237 -0.475421 -1.14288 -0.773062
399 1 6.97761 1.94134 3.93705 0.0684006 -0.151822 -0.425396
400 1 3.04652 6.00098 2.30896 -0.532966 -0.262896 -0.100526
401 1 3.94902 2.02598 7.61379 -0.679893 -0.108355 0.47225
402 1 1.69878 4.4063 0.443609 0.490291 1.59701 -1.36365
403 1 3.83763 3.90365 3.25375 -2.01554 -0.890035 1.18401
404 1 0.779766 6.69987 8.22539 0.274925 -0.799378 0.321423
405 1 3.94391 4.00211 6.71362 -0.960209 -1.95938 -0.704144
406 1 7.46669 8.56852 0.788702 -0.0500975 -0.0582124 1.17515
407 1 6.39949 0.563877 7.93229 0.220585 -0.767663 -1.09763
408 1 2.00505 2.42061 8.83749 -0.474253 -1.20816 -0.688823
409 1 3.13333 2.64777 4.28965 -1.2357 0.652756 -0.261975
410 1 0.543834 2.11842 7.78529 1.12063 0.944669 -0.698186
411 1 4.70579 7.72203 3.27565 -0.345531 0.763854 -1.47447
412 1 1.36752 0.164737 4.87625 0.448524 -0.185884 -0.407096
413 1 1.5296 7.03513 1.69285 -0.694374 0.971228 0.587062
414 1 6.88216 1.32991 8.54507 -0.470242 0.667671 1.81422
415 1 8.80278 0.857537 9.01827 -0.394348 -0.647327 -0.247189
416 1 0.445224 1.94906 0.466998 0.950513 0.2586 -1.79255
417 1 9.23121 3.20288 4.47059 -0.607899 -0.0376814 0.00462359
418 1 2.93298 1.93289 5.99377 -0.146659 -0.101338 -0.00776817
419 1 6.97367 2.84555 2.36768 -0.0290416 0.0184291 0.784361
420 1 0.933683 4.78167 4.89024 -0.517602 -0.112793 0.388209
421 1 6.20573 5.49821 3.95056 -0.034134 -0.125164 0.901153
422 1 8.5987 3.2077 6.52448 0.868965 -0.802798 0.82551
423 1 0.499898 2.41038 4.13957 -0.518707 0.553249 1.74419
424 1 4.09193 7.87125 2.43732 -0.050607 -0.675384 0.722065
425 1 2.17296 3.29786 7.09957 0.302499 1.46226 -0.740328
426 1 3.68687 1.36236 6.72424 -0.301246 0.561361 -0.740279
427 1 8.36618 4.21443 6.81166 -0.117223 1.13407 0.00449664
428 1 2.38729 7.22759 5.79893 -0.858866 0.090319 -0.539792
429 1 6.13831 0.430174 1.9402 1.02275 -1.08635 0.907673
430 1 6.25592 5.8529 4.98039 -0.46662 -0.391772 1.32419
431 1 8.13157 2.19809 6.52193 0.765273 0.924182 -0.361333
432 1 5.25908 0.573728 0.303707 -0.440971 -0.277676 1.64986
433 1 2.23068 8.10713 4.37456 -0.33023 0.450033 -1.18659
434 1 7.47136 7.15568 9.09502 0.034417 1.55277 0.498034
435 1 1.68256 3.51922 9.24154 0.66314 -0.53255 -0.560254
436 1 0.114069 6.24524 2.35965 -0.156684 0.236595 -0.440965
437 1 6.4631 6.83121 1.53122 -0.307681 -0.0650066 0.494474
438 1 2.28943 7.96635 2.14418 0.885795 -0.92568 0.715209
439 1 2.19011 7.90874 3.12581 -0.0756634 -0.474445 0.282011
440 1 5.9048 6.33418 2.26507 0.616194 -0.431765 0.0707221
441 1 5.43942 2.4131 2.11563 0.930393 1.05887 -0.52116
442 1 6.54164 4.16212 4.5955 -0.414797 -0.242319 0.260672
443 1 2.00304 6.02008 1.53096 1.10959 -0.520542 -0.844302
444 1 8.99907 5.39407 3.65714 -0.155959 -0.458669 -1.52524
445 1 5.45153 1.91218 0.521897 0.154387 -0.0912709 0.890148
446 1 8.32234 0.755623 5.98091 0.402174 -0.545165 -1.46055
447 1 1.72005 4.77588 2.67974 -0.0370329 -0.49596 -0.472882
448 1 0.810956 8.2132 9.10449 0.0756875 1.06248 -0.455293
449 1 4.31752 5.35339 7.938 -0.0632266 0.470471 -0.13414
450 1 3.82439 5.05194 6.87829 -0.0304907 -0.00475998 0.954201
451 1 4.82571 7.59935 8.06394 0.640962 -0.502651 -0.702464
452 1 4.15275 8.40425 8.11384 -0.311943 0.0587799 -1.24599
453 1 2.72703 1.0209 6.41305 -0.311092 -0.345931 0.156115
454 1 3.3565 8.95942 7.74321 0.430813 0.0029656 0.677569
455 1 8.60261 4.53813 4.51969 -1.71203 0.514169 0.42196
456 1 8.08918 3.43413 4.70827 -0.479718 0.571912 0.591344
457 1 7.10634 9.15646 0.0556473 -0.469753 -0.213067 -1.05204
458 1 2.77618 6.23801 3.40774 -1.01403 1.50624 1.18018
459 1 8.6461 3.24849 0.265471 0.463287 0.438943 0.944576
460 1 6.63793 2.73987 7.72075 -0.216664 0.0253904 0.232378
461 1 8.67589 3.94778 1.0539 -0.645353 1.40847 0.352359
462 1 3.56767 7.42208 0.995267 -0.874717 1.1403 0.599598
463 1 4.24682 2.1379 9.27839 -0.885643 -2.40438 1.64652
464 1 9.31405 3.77402 7.94303 -1.10746 -0.423646 -0.35451
465 1 1.46476 7.25823 7.51044 0.101256 0.393995 -0.15983
466 1 3.15944 1.52293 8.12521 -0.401237 0.949454 0.12806
467 1 7.08604 0.853083 3.69063 0.131184 0.900957 0.807467
468 1 0.124107 7.56534 5.34991 -0.590028 -0.315742 0.191303
469 1 6.5083 0.970793 6.03058 -0.256761 -1.10174 -1.13296
470 1 0.0353646 2.99578 7.19163 0.0869902 0.843533 -0.322865
471 1 5.09018 8.6076 5.74854 -0.045106 -1.1953 -0.54606
472 1 8.50897 2.87113 3.84836 -0.100775 -0.150389 0.72391
473 1 4.85537 2.83325 0.571046 0.448609 -0.0664783 0.36823
474 1 8.84828 0.919417 1.61634 0.301321 -0.824406 -0.0766491
475 1 2.788 2.69518 7.68444 0.479759 -0.0618902 0.212823
476 1 0.364569 1.18015 7.31877 0.225903 0.110176 -0.881514
477 1 3.12108 1.55999 1.48215 0.288925 -0.250349 0.262012
478 1 4.27707 8.12401 0.539708 0.839577 0.154748 -1.04989
479 1 1.22927 2.85935 2.90984 0.35356 0.927223 1.10993
480 1 6.67785 2.80077 8.86521 -1.12234 -0.511642 0.77018
481 1 2.94481 6.58991 1.35517 0.370468 -0.230066 0.753063
482 1 1.59662 5.65656 5.50557 0.548541 0.0194453 0.0401272
483 1 4.31681 6.49014 4.62432 0.51656 0.576531 0.699728
484 1 4.75696 0.283894 5.39048 -1.15534 -0.517388 0.373582
485 1 5.3102 5.4828 8.00679 -0.263348 0.993119 -0.064732
486 1 8.89334 1.95466 3.96131 0.280814 0.626997 0.58417
487 1 8.81872 5.40087 2.61799 -0.93896 0.261766 -0.010519
488 1 7.73916 6.20786 3.85336 0.984667 -1.29281 0.155492
489 1 1.16285 1.23032 0.695937 -1.2613 0.299984 0.764694
490 1 4.37695 8.48308 4.01348 0.277567 -1.16197 -0.21856
491 1 7.46456 9.2375 3.84535 -1.33731 0.20199 -0.912837
492 1 8.27326 7.14185 6.125 -0.765352 0.764038 -0.474023
493 1 5.84616 1.57794 8.10992 0.472891 0.24204 0.157731
494 1 7.29494 1.39111 4.76083 -1.05493 1.73423 0.466719
495 1 4.8249 3.80431 3.62958 0.0401414 0.515003 -0.135472
496 1 2.69528 1.89087 7.15028 -1.80285 0.235863 -0.294463
497 1 2.10045 0.721022 0.689354 -0.267747 -0.301755 0.124041
498 1 8.07179 0.286205 0.265354 0.0404198 -0.561434 -0.0591538
499 1 4.17442 2.9474 3.90168 -0.982722 -0.230852 0.0655759
500 1 5.72775 6.11346 8.82565 0.0222428 0.998371 -1.05769
501 1 4.90915 7.48243 6.06902 -1.38224 0.31296 0.682754
502 1 0.317652 3.24838 2.54099 1.00669 -0.258274 -0.628581
503 1 4.61928 5.6612 5.29116 -1.10185 0.5562 -0.492015
504 1 4.91605 0.901027 1.99039 1.25833 -0.0143125 0.746847
505 1 8.29751 5.23875 0.0964931 0.505362 0.208591 0.235077
506 1 1.98795 8.09366 5.48442 0.24504 1.04758 -0.00620644
507 1 7.41066 0.265827 8.6158 -0.667041 -0.965227 1.9916
508 1 2.77729 8.28571 1.21991 -0.397382 -0.386856 -0.996549
509 1 8.79257 0.96254 7.91777 -0.408851 0.532897 1.25735
510 1 0.463432 0.721311 5.44338 0.00224747 0.26522 -0.382431
511 1 7.06542 5.16899 4.48498 -0.298646 -0.0118543 0.295472
512 1 0.408924 6.45328 3.49235 1.1621 0.273087 -0.976395
513 1 2.19096 7.07489 4.74497 -0.761301 0.384411 -0.423649
514 1 7.85606 7.14405 4.29935 0.310297 -0.900494 0.19697