ITEM: TIMESTEP
7720000
ITEM: NUMBER OF ATOMS
1000
ITEM: BOX BOUNDS pp pp pp
0.0000000000000000e+00 9.4000000000000004e+00
0.0000000000000000e+00 9.4000000000000004e+00
0.0000000000000000e+00 9.4000000000000004e+00
ITEM: ATOMS id type x y z vx vy vz
1 1 1.52525 2.30096 6.99166 -1.19315 0.952866 -0.0158089
2 1 7.41973 2.67595 8.34196 -0.577574 -0.474112 0.581331
3 1 2.71226 5.14789 2.51676 0.936704 0.0458301 0.800254
4 1 6.10498 6.65949 0.571624 -1.20058 -0.173753 0.458334
5 1 2.32596 8.77847 5.22464 0.401189 0.0546631 -0.430017
6 1 6.78996 0.74622 7.68432 -0.683346 -0.411026 1.36086
7 1 0.0140967 7.82512 0.0229498 -0.315424 1.79875 -0.00746924
8 1 4.27356 2.52986 6.50525 0.492009 -0.466538 1.31261
9 1 2.92734 4.52359 4.88272 0.258639 1.24368 -0.0994
10 1 9.02166 6.25287 7.97543 -1.13667 1.10476 0.403471
11 1 8.64058 0.762395 8.39045 -0.566609 -0.329717 0.735211
12 1 7.22534 1.39687 1.7944 -1.32668 -0.458722 -0.42088
13 1 9.084 2.69069 3.72903 0.193541 1.10489 -0.673727
14 1 2.92376 6.48961 9.35701 1.05375 -1.17128 0.717537
15 1 0.98737 1.92274 9.34158 -0.331677 -0.0495832 -0.317842
16 1 2.71498 9.30478 6.05268 -0.1639 -0.920098 -0.371907
17 1 8.08389 2.71002 7.51578 -0.724411 -0.928365 0.484756
18 1 9.2844 6.76116 9.26683 0.812766 0.939788 0.253519
19 1 2.65287 2.12954 8.71415 0.194489 -0.213805 1.21691
20 1 6.37208 3.79069 6.9161 1.40767 0.0138114 0.501558
21 1 1.76198 2.24976 3.51075 0.457646 0.21375 0.0947741
22 1 3.45248 3.08169 6.94798 -0.153044 -0.519339 0.0357881
23 1 6.29458 2.64154 8.27047 0.433678 -0.0105496 1.93889
24 1 4.33067 6.97961 7.80834 -0.136711 -0.242296 0.556088
25 1 6.61886 1.84899 7.47356 0.0760368 1.00041 0.882701
26 1 9.14059 6.35793 4.40347 -0.283586 0.518956 -0.0130047
27 1 7.25662 8.31901 0.0378822 -0.0591959 -0.417043 0.345981
28 1 3.54295 3.86742 5.37887 0.15855 0.734567 -0.679973
29 1 0.700642 1.63728 7.34035 0.271315 -1.65727 -0.14894
30 1 9.02835 1.32609 2.34616 -0.539197 0.137007 0.728147
31 1 1.39677 5.81977 1.69864 -0.258468 0.287724 -0.311619
32 1 4.66147 1.60375 4.66394 -0.138184 -0.173271 -0.852517
33 1 1.96339 2.55446 0.0522317 0.425525 -0.140042 0.261114
34 1 6.76938 7.48957 3.21134 -0.739011 0.541319 0.397266
35 1 7.78906 9.25331 3.49133 -0.152847 0.49095 -0.683016
36 1 8.73217 6.98844 3.68599 -0.122377 -0.556242 0.738979
37 1 6.91332 3.77499 2.21133 0.34956 -0.654429 1.51566
38 1 0.939727 8.80304 3.74884 -0.17886 -0.306529 0.836465
39 1 2.70646 8.13271 4.21704 -0.214188 -0.283981 -0.210917
40 1 1.90659 1.5827 9.10718 -0.396602 0.0374358 0.177688
41 1 6.87389 8.25826 8.50241 -0.246179 -0.709888 -0.77295
42 1 1.38603 7.91698 8.34307 -0.653021 0.240779 -0.235047
43 1 2.82481 2.41593 2.01081 -0.20396 -1.2163 0.46568
44 1 4.32201 3.28022 5.36906 -0.551588 0.794783 -0.497153
45 1 5.60976 0.194705 7.41433 -0.128453 0.0953797 -0.849609
46 1 1.09266 6.56053 2.27946 0.932462 0.153592 -0.242089
47 1 3.22646 6.90022 8.04797 0.388275 0.620113 -0.996742
48 1 5.23715 4.50442 4.34652 -0.640765 -0.298257 -1.27345
49 1 3.59578 3.93294 6.37756 0.0639193 -0.0892292 -0.428019
50 1 1.41498 1.05984 2.75834 0.605524 0.222189 0.376879
51 1 3.79842 5.52493 4.60792 1.06814 -0.378122 -0.8507
52 1 4.99284 1.61562 0.861915 -0.197915 0.0246806 1.16558
53 1 6.11785 2.84394 4.90103 0.0543785 0.916832 -0.348633
54 1 7.81099 6.70379 7.70744 0.422801 0.337842 -0.539297
55 1 2.63161 3.43254 5.42392 0.511114 0.366719 -1.55233
56 1 1.56951 3.38404 5.44146 0.0652161 -0.932163 0.333614
57 1 0.906003 0.635021 7.59884 -0.841747 0.417073 0.231313
58 1 7.35723 9.32762 9.28074 0.637337 0.8933 0.305772
59 1 8.27554 8.56164 4.28917 -0.279167 -0.0654899 -0.127825
60 1 1.38441 5.05254 0.0143215 0.206705 -0.0186798 -1.24871
61 1 5.05594 6.42566 2.61124 -0.345752 0.172834 0.128524
62 1 0.897293 1.28683 0.789092 1.55825 -0.342289 -0.62643
63 1 5.39682 5.23047 8.99884 -0.193074 0.31597 1.34497
64 1 4.15417 5.91207 7.77227 0.31585 -0.826358 -0.979864
65 1 3.72218 2.36291 8.59048 0.123928 -0.327836 -0.824809
66 1 5.36059 3.60607 7.24528 -0.306245 0.0446189 0.300056
67 1 3.68053 7.81382 2.91438 -1.64469 0.296264 0.194688
68 1 3.78664 7.40336 9.08794 0.259175 0.578794 -0.842153
69 1 4.14695 4.67118 9.23991 -0.0768932 0.265395 -1.8546
70 1 1.52894 3.84195 3.10489 -0.295844 -0.93938 0.870519
71 1 7.11912 4.54445 8.91977 0.790106 1.30588 -1.03169
72 1 5.6908 7.02341 8.98191 -1.99251 -1.21683 -0.346021
73 1 2.40399 8.40113 0.420451 -0.170205 -0.530155 -0.178712
74 1 6.62297 8.52134 7.43137 1.69002 1.63723 0.702293
75 1 2.2184 0.735232 4.19305 -0.795288 -0.20055 0.527307
76 1 6.17432 1.68925 2.2202 -0.646175 -1.36252 -0.00147468
77 1 3.46952 3.02287 5.94225 0.111792 -0.458838 1.2199
78 1 0.209604 6.65066 0.853209 0.369949 -0.491905 0.755674
79 1 4.5709 8.5228 2.33439 -0.399883 -0.650416 -1.4291
80 1 7.54309 5.17423 4.71437 0.061744 0.135513 1.20777
81 1 3.24769 0.499847 4.78814 -0.38921 0.579898 -0.501444
82 1 5.73337 0.916125 2.84316 0.0884458 0.415617 0.221322
83 1 3.95189 8.20862 5.20459 -0.826851 1.36952 0.542328
84 1 0.693841 7.27266 8.77542 -0.650335 -0.216337 -0.0260816
85 1 2.41188 5.86147 1.73346 -1.63981 1.24998 -0.849726
86 1 5.84603 5.68137 0.961099 0.823583 -0.232927 0.664336
87 1 7.67121 4.05667 4.79838 -0.276304 0.0270722 -0.546783
88 1 0.590435 7.31625 7.72119 0.808633 0.210668 -0.397141
89 1 0.202385 5.14611 2.04727 -1.05411 0.731477 0.328805
90 1 6.43699 8.02989 4.04225 -0.992271 0.470394 0.364767
91 1 8.93289 5.54611 7.0532 1.77174 -0.312851 -0.184876
92 1 0.318798 7.81659 6.89149 1.35706 -0.0849223 0.676408
93 1 1.72816 7.72818 0.89763 0.149557 -0.577891 0.0570706
94 1 7.55557 7.2025 9.30257 0.79584 0.438831 0.404903
95 1 6.02466 5.98791 3.58967 1.41575 -1.26639 0.716999
96 1 3.7223 7.89462 8.07737 -1.43497 0.437434 -1.44026
97 1 4.30008 5.1083 1.25951 -0.0689522 -1.8883 -0.823051
98 1 7.9466 7.87247 0.82636 0.755697 -0.94412 1.89792
99 1 1.69044 1.44102 5.46214 -1.10778 -0.11987 0.115869
100 1 4.98356 1.50422 5.81323 -1.15524 -0.146112 0.0556235
101 1 3.78217 7.04373 3.63101 0.478854 -0.981258 -0.313366
102 1 7.90328 8.73641 8.6647 1.2675 -0.231794 0.593701
103 1 1.9779 1.87016 2.50833 -0.0598501 -0.843432 -0.123583
104 1 1.49553 8.89888 0.71047 0.363294 0.385561 -0.0620232
105 1 7.48363 0.040263 7.17752 -1.52152 0.0153659 0.370714
106 1 5.226 2.50167 5.80147 -0.605038 -1.05989 1.90582
107 1 8.57354 8.98017 1.58082 -1.3117 0.0358074 1.47536
108 1 8.44698 9.0865 6.65468 -0.196015 -0.7182 -0.347414
109 1 5.23455 4.8289 2.1385 -0.188156 0.00452458 0.813937
110 1 0.385165 6.7179 6.10415 -0.207503 -0.420434 0.551507
111 1 1.7176 9.31955 7.18618 -0.114625 -0.278027 0.493045
112 1 4.4105 3.18011 3.14579 0.311211 -0.197537 -1.77122
113 1 1.192 4.71704 8.23622 0.824686 -0.03333 -0.10242
114 1 3.30428 6.14519 3.97486 0.323606 -1.78062 -0.36157
115 1 3.93059 1.0878 5.44606 -0.552321 -1.01471 -0.359132
116 1 3.20119 5.71042 7.6619 0.544652 0.433833 -0.319059
117 1 6.90243 6.28286 8.00147 0.883327 0.357086 -0.205749
118 1 7.5144 2.08624 0.981371 -0.00436276 -0.070401 0.663751
119 1 9.30495 5.44853 1.01443 0.433716 0.830965 -0.485213
120 1 5.49809 9.11109 4.26531 -0.0240204 0.855801 -0.321536
121 1 5.17331 7.9436 6.47421 -1.17309 1.5009 0.451532
122 1 9.30134 1.07035 0.461949 0.868675 -0.477658 -0.44058
123 1 2.0827 2.88753 2.62562 -0.151627 -0.0760831 -0.70572
124 1 1.12115 6.95831 0.230843 -0.32905 -0.0111071 -0.100034
125 1 8.23753 3.22807 4.48772 -0.914422 -0.714395 -1.15072
126 1 0.322924 3.79782 6.58588 -0.43845 -0.47294 1.28528
127 1 2.91054 7.07291 4.22689 -1.25364 -0.837776 -0.586415
128 1 5.0454 0.0998981 8.39472 0.759484 -0.0269222 -0.247611
129 1 3.50602 5.76607 1.29599 -0.42869 -0.532591 0.253602
130 1 2.05112 4.07894 7.83164 1.48431 0.141525 -0.704039
131 1 8.67255 0.731656 3.21585 -0.381055 0.55515 0.422161
132 1 6.5041 5.34793 4.41089 0.162462 0.320305 -0.0462696
133 1 8.70313 6.31343 0.513749 -1.42595 0.244218 -0.244276
134 1 5.23178 0.792005 6.63714 -0.200341 0.108542 0.0325458
135 1 5.76491 1.30329 7.56899 1.16623 -0.529045 -1.47262
136 1 1.83405 0.479594 8.77205 -0.286184 -0.387889 0.718593
137 1 2.22229 5.48761 7.58558 -0.749022 -0.810299 0.979613
138 1 5.73009 2.27759 9.14849 0.266945 -0.0862977 -1.26935
139 1 8.79289 8.21841 5.24956 -0.318992 -0.337582 -0.291709
140 1 1.10764 4.46609 3.79915 -0.606203 1.09351 0.282933
141 1 2.48684 7.13692 7.20943 -1.04482 0.653918 0.0888141
142 1 3.79536 2.20611 7.47149 -0.527627 0.0733469 -0.0191643
143 1 2.58585 6.16088 8.34745 -0.668857 0.154754 0.393148
144 1 9.26696 6.0658 5.45055 -0.162131 1.10467 1.27086
145 1 5.1376 5.16029 6.80198 -0.0502478 -0.310601 -0.333232
146 1 6.54741 9.04227 1.79752 -1.54913 0.225221 0.216261
147 1 0.703257 8.81723 6.56833 0.352737 -0.682168 0.121629
148 1 7.15081 3.31146 7.51321 0.312322 0.558633 0.761935
149 1 0.954033 8.5468 1.73928 -0.302341 1.21007 0.769034
150 1 5.0272 8.13502 5.20792 0.880027 0.741787 0.387502
151 1 9.16296 8.53718 6.23916 -0.677534 0.146018 0.296591
152 1 5.57408 8.85272 0.630204 -0.461456 -0.132647 0.0542423
153 1 0.722392 6.15876 9.10149 -0.621855 0.666831 0.817325
154 1 6.12146 6.89943 7.91451 -0.175101 0.0150797 -0.254758
155 1 6.11731 8.43706 6.49443 -0.0158909 0.970056 0.169222
156 1 3.35828 2.13015 1.08562 -1.29918 -0.314052 0.122549
157 1 7.53325 9.3934 6.10419 0.226314 -0.0787174 0.902695
158 1 4.43688 9.3496 6.93262 -1.12608 1.07211 -1.07351
159 1 7.4022 7.5022 6.15096 0.514075 -0.256317 0.0580381
160 1 7.71353 1.96634 9.19185 0.385945 -0.0303324 0.0372975
161 1 8.72496 3.82875 1.05265 -0.306667 -0.435552 -0.917323
162 1 8.04474 4.14543 0.173736 -0.446369 -0.274413 0.550593
163 1 8.44924 2.37627 8.45054 0.536878 -1.38004 -0.381455
164 1 3.88631 7.92775 6.34155 0.469511 -1.67907 -1.02305
165 1 0.539571 0.259118 0.508097 0.370402 -0.986922 0.360231
166 1 8.35889 5.83324 4.83618 -0.481824 -0.782231 -0.162908
167 1 6.0898 8.11212 1.32102 0.839479 0.631647 0.97517
168 1 5.7251 3.42934 1.76978 -0.249186 0.8985 0.714199
169 1 3.02041 5.60702 5.77674 -0.335046 -0.353018 0.164542
170 1 1.51144 7.55173 7.34836 0.882213 0.198974 0.125139
171 1 8.7622 3.60996 3.69155 -0.245329 -0.173157 -0.324457
172 1 5.20785 0.590392 1.00311 0.760393 -0.0570889 -0.709461
173 1 6.84249 5.80811 2.96768 -0.456849 0.995501 -0.367202
174 1 2.39059 3.23771 3.64825 -0.788205 -0.254257 -0.489434
175 1 4.11652 0.275551 1.00101 -1.05708 -1.1127 -1.62538
176 1 0.153532 9.33708 5.74563 -0.36354 0.784459 -0.379156
177 1 2.63881 9.17239 4.23293 0.327772 0.372096 -0.278441
178 1 6.43345 7.01511 6.32079 -0.844257 0.731311 -1.04075
179 1 5.35527 6.18255 0.12118 1.49817 0.282886 -0.0619037
180 1 3.65176 0.57501 6.45504 -0.243938 -0.0894702 -0.478973
181 1 8.45855 4.95233 1.00634 -0.752824 0.384251 -1.11443
182 1 6.24314 2.83136 2.40857 0.654528 0.321309 -0.239981
183 1 4.06423 8.71215 0.595903 -0.202875 -0.542774 0.00290233
184 1 3.20403 3.36522 8.61991 -0.227339 0.419345 -0.925865
185 1 0.480506 3.64192 5.56803 -0.544012 0.220567 -0.661251
186 1 8.03917 6.81626 5.65905 -1.27761 -1.69057 0.22748
187 1 5.09993 2.73731 2.42326 0.163151 0.518241 0.617412
188 1 0.90484 6.22201 4.17988 1.16757 0.812067 -0.421185
189 1 1.77727 2.8087 4.43587 0.0723315 -0.687393 0.579836
190 1 8.76094 4.16675 4.65026 -0.748227 -0.0715232 0.0462744
191 1 4.91448 3.82406 8.22294 -0.00726051 -0.561762 -0.118093
192 1 8.17361 4.97503 6.55039 0.602076 -0.445615 0.407113
193 1 4.37977 0.188465 4.78973 -0.444894 0.651483 -0.282751
194 1 3.70455 1.18407 7.25113 0.453788 0.0574813 -0.210153
195 1 7.84357 8.98604 0.760207 0.266366 -0.917427 -0.114937
196 1 4.76559 0.204198 3.78598 -0.637907 -0.678539 0.662276
197 1 1.69942 4.8691 2.86328 -1.49423 -0.606407 0.603271
198 1 2.40549 3.21873 7.10969 -0.24797 0.122245 -0.494362
199 1 2.04337 7.48646 3.82141 0.968916 -1.0753 -0.132663
200 1 3.68597 9.0861 4.32621 0.599225 1.48406 0.901249
201 1 7.16416 7.23163 8.37984 0.302732 -0.793336 -0.120025
202 1 0.787478 2.80285 5.07143 -0.135501 0.993996 0.146639
203 1 1.23832 6.62717 6.69172 -0.110797 -0.853024 -1.11594
204 1 5.48822 4.15902 6.3462 -0.342431 -1.7359 1.358
205 1 0.292546 6.40734 7.20257 -0.693677 0.069844 -0.625924
206 1 4.67347 0.96465 2.83772 -0.868715 -0.08942 -0.783315
207 1 6.02856 0.47153 8.35535 0.244528 0.567529 0.254561
208 1 7.39952 4.31446 5.78625 -0.198319 0.364198 1.36146
209 1 6.23427 0.222063 0.78267 0.178634 0.107753 0.903003
210 1 0.3949 4.91153 7.2703 -0.579672 -0.587209 -0.230948
211 1 3.32111 3.2095 3.0163 -0.702143 0.235359 1.16389
212 1 6.42447 7.47019 2.06578 0.376609 -0.42129 -1.06803
213 1 3.41414 0.14592 7.38904 -0.594995 -0.191968 -0.362906
214 1 8.31416 4.96139 8.9271 0.84394 -0.45831 -0.00309221
215 1 1.2827 7.92801 6.37906 0.250852 -1.01553 0.920695
216 1 3.91153 3.22855 7.96605 0.0131627 0.0556296 0.366726
217 1 7.30178 2.86649 1.69122 0.464435 -0.38462 0.979025
218 1 4.6391 3.29791 1.59238 0.727101 0.107243 -0.631882
219 1 4.71618 5.37313 0.398089 0.0111196 0.223397 -1.08114
220 1 8.46471 2.54657 0.334589 -1.50103 0.157541 -0.880978
221 1 0.971681 8.47991 7.45311 0.605661 0.209894 0.426025
222 1 4.98727 3.89189 2.39731 0.452332 0.815967 -0.582027
223 1 -0.028541 8.13182 1.48756 -0.532417 0.216269 -1.09964
224 1 6.9642 6.0347 0.494897 0.850713 0.154432 -0.239162
225 1 1.98657 4.8513 4.46397 0.59539 -0.50158 -0.358403
226 1 7.23317 5.63018 8.74267 0.796631 0.0639692 -0.0456246
227 1 3.29573 0.487083 1.79644 0.451123 -0.0178329 0.0213006
228 1 6.79622 4.26758 7.84304 0.379546 0.115579 -0.770607
229 1 2.20701 0.24185 3.25057 -1.2246 -0.863964 -0.481931
230 1 2.31663 0.00394453 0.358148 0.536096 0.0646075 1.23167
231 1 1.42616 5.39653 6.28305 -0.0592502 1.046 -0.0160748
232 1 4.42621 5.49776 8.73122 0.551684 -0.202243 0.78344
233 1 8.7575 7.48625 6.26475 0.347221 -0.561501 0.24348
234 1 1.24799 3.97305 0.320228 -0.145917 0.070522 -0.970863
235 1 8.26006 4.75876 5.38476 -0.0347857 0.479675 0.124973
236 1 2.86719 7.45255 0.356255 -0.620687 0.0341452 0.242667
237 1 7.32903 1.44968 6.96809 0.137448 0.493419 -0.154777
238 1 5.75776 7.85462 8.16096 0.393242 -0.861851 0.329854
239 1 1.80292 6.52177 7.59914 0.346745 0.301204 0.664778
240 1 5.61115 0.625858 5.60963 -1.00741 1.1382 0.654489
241 1 6.40443 5.034 3.41103 -0.232867 0.51816 -0.0442741
242 1 5.86145 3.11428 6.26988 0.504139 1.29954 0.962992
243 1 3.79373 8.86916 1.7197 0.127021 0.485489 -1.25975
244 1 6.7548 3.45491 1.17138 1.72216 -0.102715 -0.662614
245 1 7.9635 2.7897 2.42398 -0.514924 -0.83858 -0.324503
246 1 0.361872 5.19749 0.0400016 0.364983 0.58924 1.2372
247 1 8.48012 1.66633 1.614 0.969469 0.297596 0.702346
248 1 7.84284 5.81092 7.00701 -0.852204 -0.93027 -0.718221
249 1 8.99326 5.18974 8.08211 -1.12378 0.906208 -0.902092
250 1 3.17696 8.5666 3.40196 1.13882 0.182258 0.0606495
251 1 0.210966 0.910886 3.03321 0.442035 -0.0149543 0.226117
252 1 4.38042 4.91185 3.76673 0.489637 -1.16378 0.490011
253 1 1.00099 5.20671 4.66873 -0.315989 -0.364776 -0.0250939
254 1 8.54312 0.364347 4.16898 -0.81389 0.373181 -1.1202
255 1 6.7224 6.60843 9.0542 0.169539 -0.0906537 -0.263197
256 1 8.97198 4.41525 7.03715 -0.243602 0.727731 -0.401653
257 1 3.26395 8.95763 9.38136 0.0960313 0.781729 -0.568912
258 1 4.05136 0.969148 4.05631 -0.893309 0.0603841 0.480755
259 1 4.39412 4.55813 6.56353 -0.436114 0.245648 0.398975
260 1 4.17683 9.24601 7.97649 0.356145 -0.596585 -1.07297
261 1 5.70447 4.70673 0.528819 -1.27499 0.89191 0.950693
262 1 3.81237 2.6968 2.20027 -0.255788 -0.558324 0.431218
263 1 6.56234 2.10585 6.32119 0.897255 -0.733238 0.183703
264 1 6.62731 5.67691 5.49574 -1.11458 0.933012 0.283118
265 1 6.37772 3.76913 4.72326 0.36217 0.23252 0.16595
266 1 7.44741 5.22063 3.68712 0.252539 1.00041 -0.228944
267 1 2.5394 0.778142 2.36369 0.11332 0.783893 -0.351039
268 1 5.36201 2.08833 8.11116 -0.411691 0.789177 -0.427254
269 1 1.92367 4.3155 8.90199 0.521986 0.721549 -0.550088
270 1 8.28501 9.27042 7.70406 -0.66765 -0.0210858 0.835914
271 1 1.67248 2.00727 0.830547 -0.841218 -1.12605 -1.07094
272 1 5.57652 2.00866 6.65478 -0.0368574 1.16155 0.558341
273 1 8.17792 4.44886 3.38382 0.550881 1.01026 0.00863508
274 1 5.2077 6.50513 7.57078 -0.0463366 -1.17119 -0.615262
275 1 3.83144 6.40907 8.77744 -0.486564 -0.73715 -1.44137
276 1 9.13784 7.49183 2.75543 -0.424735 0.7059 -1.11844
277 1 7.56244 3.70367 3.82475 -1.77766 0.0432285 0.582517
278 1 3.23277 2.13295 6.63593 -0.101155 0.938164 0.402983
279 1 1.10631 0.182292 1.32985 0.154558 -1.21108 -1.37481
280 1 5.55784 3.61627 0.500762 0.0476641 -0.37487 0.623865
281 1 5.8105 7.43856 4.75405 1.23576 1.39042 -0.854104
282 1 5.10229 9.38283 2.84547 0.469501 1.03601 0.782518
283 1 8.9272 7.64939 4.35993 0.391159 0.254237 0.08215
284 1 5.50071 8.49535 7.27694 -0.365545 0.392638 -0.613334
285 1 4.05449 4.29184 4.52187 -0.0818778 0.110994 -1.18243
286 1 9.25922 0.33663 6.72105 0.418954 0.389788 -1.42435
287 1 3.06852 7.2569 6.11706 0.308999 1.55311 0.0373502
288 1 1.74494 2.55691 1.75357 -0.297641 0.704352 -0.792184
289 1 6.42805 3.20639 3.91381 -0.517044 0.978764 -0.387803
290 1 1.11414 8.51039 5.44246 -0.579909 0.73981 0.294591
291 1 2.67054 0.698449 6.93166 -0.308509 -0.494388 -1.2946
292 1 1.35259 4.35386 5.164 -0.849364 -0.414652 -0.283312
293 1 4.18503 8.94936 3.3497 0.854353 -0.254991 -0.333191
294 1 2.35616 5.25442 8.87068 -1.37306 -0.904418 0.157248
295 1 4.61617 3.46989 6.35155 0.250399 -1.25646 2.13944
296 1 5.14636 5.55344 7.9134 -1.04462 0.586496 -0.450303
297 1 0.100471 4.3098 8.09782 -0.136025 -0.323433 1.63041
298 1 2.12631 7.04705 6.26729 0.253348 0.570634 0.778421
299 1 5.30955 7.69685 2.05873 0.280631 0.173111 -0.342209
300 1 7.05761 4.29353 3.08312 -0.773867 -0.835753 -0.975099
301 1 9.39148 1.83737 6.52178 1.25608 -0.0895825 -0.794782
302 1 7.15477 8.63657 4.48636 -1.93851 0.767498 -0.509061
303 1 2.15864 7.29718 8.17719 0.112785 1.03081 -0.462973
304 1 6.65718 2.0937 4.23203 1.1825 0.475001 -0.690382
305 1 2.96771 0.857686 0.876571 1.28598 0.817802 1.46509
306 1 8.40944 7.94661 3.30572 -0.748662 0.299208 0.00730559
307 1 4.93483 8.36856 1.23095 -0.713346 1.18181 0.299657
308 1 5.38045 0.760745 4.58824 -0.92862 -0.200766 0.271762
309 1 1.3176 3.27103 6.51891 -1.09745 1.56331 1.60137
310 1 2.57949 1.40261 4.86946 -0.240843 -0.83498 -0.56682
311 1 6.0141 1.26118 1.18573 0.996757 0.898177 1.25847
312 1 0.289242 3.98822 1.91261 -0.333511 -0.235094 -0.479881
313 1 7.71863 3.9033 1.5041 0.477754 -0.167258 -0.247647
314 1 5.04388 4.17665 9.2052 0.940638 0.481201 -1.26059
315 1 3.54502 4.79802 7.23243 -0.68351 -0.312309 -0.894761
316 1 2.5619 1.27304 3.35264 -0.750243 0.0020855 0.622833
317 1 1.38654 2.61619 8.66876 -1.06903 -0.742394 1.01345
318 1 0.837701 6.36353 8.02639 0.377752 0.185849 -0.051711
319 1 3.12762 7.97647 7.13669 -0.241708 -0.352216 0.259405
320 1 5.92927 0.415377 3.71415 0.0758882 0.34697 -0.921932
321 1 3.23865 4.83687 3.97385 0.266788 -0.597673 0.850828
322 1 0.429012 8.29279 8.38671 -0.817513 0.0941728 -1.29074
323 1 3.71832 7.93763 4.21917 -0.509195 0.434862 0.587657
324 1 6.74724 5.26037 1.18659 0.65566 0.362022 -1.07773
325 1 6.76076 4.97372 2.27713 -0.174365 -0.26573 -0.234103
326 1 1.69518 8.16534 4.6567 -0.963617 0.449453 0.468751
327 1 4.71977 7.04405 0.170465 -0.653183 0.115535 -0.504347
328 1 3.53291 3.85482 0.364647 0.563889 -0.171616 -0.616535
329 1 1.38972 3.6737 2.08191 -0.393167 1.44587 -0.381899
330 1 3.10419 2.72855 0.0816942 -0.228934 0.0364515 -0.28301
331 1 4.29442 1.63292 8.1099 0.000514614 0.0163527 -1.56225
332 1 0.799178 3.00521 0.0796236 0.888952 0.424887 -0.897059
333 1 5.8152 5.62526 2.65401 0.674278 -1.26749 0.548865
334 1 3.56634 5.65928 6.68566 1.20786 -0.687861 -0.212278
335 1 5.05644 2.5882 0.610027 -0.411797 0.0176039 -0.232272
336 1 8.99149 3.18103 5.35187 -0.745667 -0.206505 0.0446148
337 1 5.06398 7.58593 7.4366 0.075047 0.337123 1.21201
338 1 8.37333 1.72006 6.64247 0.379449 0.0646613 0.888411
339 1 9.03414 5.31742 6.11941 -0.337117 0.352317 0.000831445
340 1 8.17411 7.14402 2.70004 -0.406051 0.238918 -0.321502
341 1 0.471184 8.69531 0.708541 -1.01715 -0.275147 0.18415
342 1 4.86006 6.43713 8.57738 0.119955 -0.955399 0.355191
343 1 2.36759 4.43447 3.51004 -0.835186 -0.587574 0.200627
344 1 5.22426 9.19448 5.26594 1.22755 -0.295079 -0.615723
345 1 6.97957 7.16255 4.31067 0.480688 -0.146613 0.724848
346 1 0.58241 4.58887 0.876649 -0.82361 -0.439501 0.188248
347 1 3.63641 3.1559 1.21437 1.27781 -1.19167 0.198262
348 1 6.94411 3.47701 8.55456 -1.37358 0.043715 -0.59655
349 1 6.53081 3.70453 0.133409 0.873404 -1.0873 0.622293
350 1 5.65596 7.59179 3.04744 0.92161 -1.72071 -0.36628
351 1 7.71377 3.20197 0.691329 -1.39226 0.565912 0.532217
352 1 4.69648 7.62016 8.61424 -0.436375 0.554424 -0.50178
353 1 0.772376 2.56348 3.92406 -1.59722 -0.710218 -0.473961
354 1 0.887248 9.10974 9.05536 0.0829487 0.2686 -1.10112
355 1 0.512377 5.43385 8.4488 -0.738113 -0.37442 0.223857
356 1 3.04276 3.8088 7.71046 0.319052 -0.0788474 0.455627
357 1 8.21889 8.74412 2.54837 -0.778412 0.440512 0.265037
358 1 6.07878 6.67945 2.75274 -0.312442 -0.347139 -0.454425
359 1 3.00472 2.71047 7.87373 0.0758492 0.213801 -0.350055
360 1 3.21248 3.6322 4.42784 0.243193 -0.336428 0.61139
361 1 1.06833 2.86688 2.93287 -0.99073 -1.39146 1.00182
362 1 5.99532 4.11394 3.66436 0.310372 1.14286 0.712204
363 1 7.85021 5.83488 1.02375 0.0628935 0.834635 -1.12535
364 1 2.07177 2.14296 7.8652 -0.200069 0.864392 -0.595666
365 1 1.24437 3.69572 8.40957 0.117502 -0.253078 0.873519
366 1 5.44831 6.8501 6.60081 -0.680677 -0.559945 -0.901963
367 1 2.52693 4.81464 1.43551 -0.430062 -0.750409 0.192428
368 1 1.72811 7.80927 2.21436 2.10174 0.194748 -0.0643093
369 1 6.11831 4.37598 8.92192 -0.262967 -0.665826 0.397761
370 1 5.52556 2.31462 1.50814 -0.416982 0.675652 0.157573
371 1 0.380142 7.1443 4.01742 1.44839 0.811588 0.278403
372 1 2.70161 4.23467 6.90568 -0.113591 -0.57732 -0.68214
373 1 6.36764 9.03255 9.2279 -0.514665 0.561617 0.116224
374 1 6.33585 6.44655 4.71118 -0.852386 0.752495 0.576682
375 1 4.55499 6.15138 6.82921 -0.373208 -0.350585 0.297308
376 1 3.81954 1.62118 9.26198 1.22709 -0.513305 1.60025
377 1 1.76307 6.636 8.78328 -0.357195 0.208638 -0.487882
378 1 5.83466 0.387357 1.93948 0.993159 -0.183722 -0.0582787
379 1 8.09656 4.85414 7.58324 0.0652515 0.727679 0.843643
380 1 9.00227 6.40179 2.64907 0.189967 0.00977516 -0.762819
381 1 1.91915 1.01867 0.588044 -0.652422 0.123984 -0.545838
382 1 7.12429 6.75961 2.49281 -1.20723 -0.19108 -0.392272
383 1 8.0659 5.80416 8.15028 -0.287408 1.07896 0.953545
384 1 5.6455 8.71748 2.12621 0.415971 0.598666 1.12364
385 1 4.67046 9.13867 9.28211 -0.655962 0.478226 -0.176227
386 1 9.17885 1.49311 3.93788 0.65468 0.0550481 -0.190322
387 1 0.180601 0.230673 3.90718 -0.0486223 -0.490211 -0.0817737
388 1 8.77361 1.65769 9.10103 -0.486712 0.675056 0.143971
389 1 6.75801 2.88705 5.67904 -0.030533 0.0127091 -0.514197
390 1 3.30269 6.01598 2.32446 1.53214 -0.625073 -0.980318
391 1 4.26341 0.714849 8.59006 -0.819258 0.324245 -0.889953
392 1 9.24457 2.34595 4.66939 -1.17798 -0.863961 -0.449299
393 1 2.7889 8.08372 8.84228 1.01147 -1.20559 -1.04103
394 1 0.117571 3.76485 0.346413 -0.889526 0.606124 0.675028
395 1 8.80699 9.2597 5.00693 -0.094084 0.783238 -0.100626
396 1 3.38842 2.73865 5.00721 -0.271324 0.449676 0.391648
397 1 4.51835 3.63583 0.595551 -0.770996 -0.425126 -0.3745
398 1 8.00065 6.0861 2.95999 0.484871 0.404238 -0.383392
399 1 8.97529 4.09579 2.83854 0.508677 0.402994 0.251088
400 1 6.46231 8.3819 2.59493 1.33229 -0.269525 -0.168023
401 1 4.05424 1.52227 6.29531 0.0217456 0.150449 1.68702
402 1 0.890147 1.46414 3.61669 -0.166982 -0.420116 -0.257977
403 1 9.22134 7.13984 1.82219 -1.5085 0.49542 0.0618981
404 1 6.89793 7.09679 5.3689 -0.0202024 -0.187733 -0.22643
405 1 2.80611 1.67564 7.4408 0.771952 0.0217231 -0.2888
406 1 4.45788 2.23113 1.59802 -0.540874 -0.0640663 0.902841
407 1 5.16055 1.48289 1.99008 0.288621 -1.04336 -0.581545
408 1 0.672033 2.93103 2.01283 0.24376 0.666241 0.73056
409 1 4.3237 3.27116 4.30055 0.430022 -0.833244 -0.0999875
410 1 0.484343 1.96094 5.60243 0.135423 1.345 -0.852086
411 1 5.11078 1.27652 3.77881 1.53382 0.616336 -0.887398
412 1 7.58677 1.44113 5.25331 -0.584334 0.0550587 0.5298
413 1 1.00144 8.09433 9.42387 -0.51936 -0.558302 0.532444
414 1 7.85962 3.17974 5.54999 -0.877362 0.1693 0.0339756
415 1 1.67034 3.19917 0.894967 -1.15479 0.388382 0.537656
416 1 6.96826 1.09476 0.909091 1.10829 -0.214749 -0.519693
417 1 1.32365 6.91025 5.70176 -0.103107 0.212226 -0.231661
418 1 4.32517 0.873492 1.82057 -0.151345 -0.45492 1.01413
419 1 7.14797 3.05554 4.70239 -0.332875 0.154082 -0.226204
420 1 1.61057 1.72834 4.38242 -0.036623 -0.219704 0.776928
421 1 5.97634 7.75809 5.66678 -0.381014 -0.387138 0.472088
422 1 4.96809 2.65332 4.83676 0.912349 -0.109545 0.5794
423 1 9.4194 3.0806 2.75382 1.42425 -0.0806601 -0.0972195
424 1 6.31401 0.140005 4.77913 -0.404776 0.755408 0.852402
425 1 2.58208 2.21027 4.18156 -0.455764 0.582548 -0.0829608
426 1 8.42776 0.0855057 9.14214 0.38622 0.019867 -0.953063
427 1 6.96947 5.214 7.3742 0.701863 0.739558 0.382712
428 1 3.16686 8.81623 8.09765 -0.22161 -1.41596 0.427983
429 1 5.52321 7.51534 0.690881 -0.657737 -0.655636 0.702775
430 1 4.59372 7.39063 4.42986 -0.536054 0.886772 -0.0970163
431 1 8.79656 1.54276 5.69 -0.450335 -0.307917 -1.06775
432 1 4.59034 0.439953 5.8956 -0.358458 -0.719788 -0.410616
433 1 4.39361 8.32936 7.23344 1.09484 -0.494324 0.496965
434 1 5.62268 6.78314 1.72011 -0.0633802 -0.983168 0.228816
435 1 0.259192 2.00655 3.03342 -0.155451 -0.567557 0.908459
436 1 0.0788167 1.69913 1.27427 -0.0884296 -0.299696 0.151374
437 1 8.20192 6.57246 1.81487 -0.937913 -0.264735 0.505634
438 1 8.91811 0.0584913 0.632837 -0.201691 0.143966 0.0285776
439 1 4.52287 7.33366 2.49013 -0.348693 0.359816 0.364044
440 1 9.11179 5.27982 2.91925 0.304629 -1.01197 -0.2632
441 1 6.27323 2.27424 3.2455 -0.930095 0.785452 -0.465578
442 1 5.93468 2.7733 7.28544 0.105262 -1.06934 -0.786967
443 1 4.48706 6.22397 1.06065 -1.0441 0.504553 -0.0440172
444 1 8.80438 6.35892 6.37276 0.352946 -0.28151 0.532205
445 1 4.66726 0.822932 0.119819 1.10563 -0.178075 -1.14552
446 1 8.12519 3.7988 7.36794 0.448131 -0.843088 -0.397521
447 1 3.61355 5.25513 3.02365 0.268839 0.34922 -0.650384
448 1 7.27424 7.53486 7.35021 -0.0885926 0.206784 0.450468
449 1 0.0480492 0.441897 9.01887 0.652082 -0.31768 1.14399
450 1 3.1242 4.5193 9.08173 0.249832 -0.714669 0.0474265
451 1 7.10019 9.36915 8.22002 0.871178 -1.30683 0.204491
452 1 6.18914 7.59543 7.22166 -0.611021 -0.128514 0.937807
453 1 3.93593 7.85817 1.77715 -1.07104 -0.226579 -0.9182
454 1 4.45208 7.12591 6.58022 0.679656 -0.0337437 -1.17593
455 1 7.12376 5.35886 6.36075 1.04136 0.217843 -1.44025
456 1 7.39865 6.21765 5.03671 0.110798 -1.02905 0.137572
457 1 4.88239 9.25106 1.65369 -0.467435 -0.27172 0.505408
458 1 0.762583 7.54692 2.05957 -0.845719 -0.671511 0.878155
459 1 8.91632 7.32313 0.774936 1.67249 0.940788 0.658911
460 1 7.75958 0.866548 9.02055 0.517509 0.642845 -1.48243
461 1 0.15346 5.50903 4.13398 -0.259503 0.679383 -0.301315
462 1 3.0623 9.31154 2.66706 1.02177 -0.46153 0.152002
463 1 1.52145 1.21492 1.66337 -0.597384 0.983292 -0.798711
464 1 0.284582 2.85289 6.11285 0.238424 0.779848 -0.904894
465 1 8.51422 8.13975 7.07539 -0.234034 0.226257 -0.710885
466 1 7.30113 9.29341 2.50469 -0.124812 0.703392 -0.538202
467 1 6.18797 2.77428 0.594015 0.0251335 0.753599 -0.446389
468 1 7.41503 1.25115 4.21493 -0.478816 -0.944141 -0.385542
469 1 1.44619 2.4006 5.93556 0.588337 0.0170864 0.239007
470 1 1.34212 1.45272 8.21348 -0.620578 -1.07472 0.581714
471 1 3.57326 8.88821 6.49273 -1.87312 1.40745 -0.871797
472 1 4.33988 5.42629 6.04865 -0.266566 -0.0464816 0.809354
473 1 8.821 4.01996 8.88017 -0.979088 -0.0222722 0.18
474 1 4.8609 8.14448 0.170677 0.236698 -1.33639 0.307625
475 1 3.27094 0.401141 8.40211 0.392407 0.721504 0.68594
476 1 0.320124 1.15064 8.28066 1.0815 -0.155911 -0.782112
477 1 7.63989 8.45244 7.64083 -0.662767 -0.322209 -0.654612
478 1 1.17413 0.817984 4.63171 0.365726 -0.325924 -0.936555
479 1 1.69206 5.20934 1.00208 0.322642 -0.58813 -1.10605
480 1 6.0671 5.77805 7.37648 0.960946 -0.0997411 -0.771135
481 1 3.7376 6.7368 0.616006 0.592399 0.72365 1.06343
482 1 4.96862 5.83602 3.60399 0.627805 1.70975 0.565635
483 1 5.1777 5.84526 1.78357 -0.417219 0.632253 -1.16981
484 1 7.10891 4.29812 0.698279 0.0457451 -0.498582 -0.468137
485 1 7.92587 6.11187 9.33347 -0.0212178 0.849523 -0.480572
486 1 0.607703 4.50466 2.84218 0.470428 1.61356 0.34586
487 1 0.385476 4.32754 4.68037 -1.43481 -0.328061 0.65323
488 1 6.929 4.42211 4.19713 0.913813 -0.475787 0.0442575
489 1 8.99624 0.198184 2.41808 -0.31573 0.484309 -0.622048
490 1 7.03039 6.09858 3.95318 -0.53218 -0.96884 0.0770039
491 1 6.03798 7.00786 3.83482 0.307795 0.915284 -0.72916
492 1 0.710359 7.64773 0.920084 -0.784352 0.619942 -0.15742
493 1 7.11054 6.5254 1.38157 -0.110309 0.585236 1.21038
494 1 5.35611 3.49766 5.44014 1.74976 0.091346 0.335913
495 1 2.9628 3.40906 2.04829 -0.151356 1.36478 -0.919269
496 1 4.37941 4.60688 2.77895 -1.26999 0.311156 -0.775462
497 1 8.31809 6.78556 8.607 -0.29356 -0.778897 -1.35475
498 1 8.21205 1.69031 7.639 -0.236287 1.24856 -0.270651
499 1 4.5024 2.29974 3.73883 -0.560573 -0.0909078 1.07368
500 1 6.40941 5.29816 0.0110932 -0.0437697 -0.0859687 -0.165322
501 1 6.27422 6.01336 6.41073 1.11686 -0.279843 -0.734531
502 1 8.55608 4.59453 2.05308 -0.323796 0.0453034 -0.593748
503 1 4.10834 7.19956 5.40401 0.92105 -0.880823 -0.0490822
504 1 5.02619 6.91464 3.54549 0.457554 -1.18132 -0.650067
505 1 8.10557 3.29699 8.9894 0.546939 0.96142 -0.233195
506 1 2.03572 6.07088 5.83061 -0.401984 -0.195636 -0.574767
507 1 7.3264 8.49718 6.59176 -1.01303 -0.254774 -0.883052
508 1 4.28808 5.6678 2.23151 0.11231 0.264392 0.133892
509 1 4.81368 1.87457 9.24515 0.388291 1.36021 -0.407219
510 1 6.02324 4.24571 2.50675 -0.154493 1.34928 -1.34963
511 1 4.73067 0.6451 7.57368 0.932863 -0.195209 0.404983
512 1 9.01885 4.61987 0.280924 -0.82484 0.243409 0.938975
513 1 0.55822 9.30087 2.74531 0.845948 0.916292 -0.2539
514 1 1.36197 5.40544 3.66209 -0.141363 -1.01405 0.27601