ITEM: TIMESTEP
66020000
ITEM: NUMBER OF ATOMS
1000
ITEM: BOX BOUNDS pp pp pp
0.0000000000000000e+00 9.4000000000000004e+00
0.0000000000000000e+00 9.4000000000000004e+00
0.0000000000000000e+00 9.4000000000000004e+00
ITEM: ATOMS id type x y z vx vy vz
1 1 5.73426 8.61556 3.48844 0.0196637 -1.93861 0.39847
2 1 1.77848 4.61343 0.971697 1.42025 0.256838 -0.038487
3 1 4.49492 1.97227 4.1161 0.594049 -1.35022 0.365485
4 1 0.489313 4.70138 0.183722 -0.304395 0.440658 -1.50652
5 1 1.08682 8.36267 5.64165 -0.492833 0.278653 -0.980161
6 1 5.84434 8.23854 6.81838 1.13931 -0.862755 -0.587972
7 1 4.96991 6.96123 4.71687 0.869576 -0.804287 0.485466
8 1 3.00105 1.06334 6.38883 -1.49829 -0.488404 0.812998
9 1 1.83495 6.05112 4.44044 0.0967894 0.663437 0.351152
10 1 0.974698 3.91698 0.674892 1.9644 0.536569 0.410426
11 1 5.36793 9.30911 5.32772 -0.137765 0.846138 0.121942
12 1 7.25186 1.67273 1.39317 -0.218559 -0.256018 0.214724
13 1 0.53598 0.081076 5.59487 -0.902385 0.0980293 -0.285882
14 1 4.033 4.41971 5.85641 0.883587 0.289038 -0.947853
15 1 0.64299 9.02336 7.63596 0.496497 1.26169 -0.367504
16 1 1.24221 0.571917 7.38814 1.00083 -0.591095 -0.94603
17 1 7.63133 3.5846 1.92895 1.00117 0.823619 -0.697478
18 1 4.76943 5.70225 8.03938 0.280053 0.235576 0.23307
19 1 4.19436 5.80961 7.15604 -0.587945 0.0456014 0.476344
20 1 8.40693 4.40884 8.49297 -0.325323 -0.767912 -0.771691
21 1 9.05056 5.2234 8.3248 -0.269197 -0.411928 -0.64691
22 1 0.125496 3.10857 7.44895 0.51569 -0.337847 -0.62267
23 1 4.90268 1.07791 0.103295 -0.261428 0.784979 0.349204
24 1 1.61447 7.63374 6.14686 0.193425 0.37205 -1.28045
25 1 8.89997 0.777807 3.28168 -0.65574 0.0998379 -0.288646
26 1 6.22268 4.06132 5.564 -0.833509 -0.855083 1.22524
27 1 8.96883 9.10489 1.05103 -0.837821 -0.319034 0.365872
28 1 4.40889 1.41089 2.11848 -0.276321 -0.878692 0.806621
29 1 2.56605 2.73764 3.55575 -0.283613 0.134361 -0.244919
30 1 7.78823 2.83325 4.61687 0.00639618 -0.133306 0.223805
31 1 3.28824 2.16875 1.07757 0.0485845 0.31986 0.768613
32 1 1.41404 2.39196 8.61143 -1.08056 -1.58903 -0.0478085
33 1 5.30058 9.36713 1.44383 0.0161263 0.516819 -0.705361
34 1 5.76025 9.11842 2.45086 0.98988 1.50625 -0.150604
35 1 3.53468 2.54572 3.73994 -0.27166 -0.336523 -1.28641
36 1 3.92842 2.16176 2.83627 -0.741414 0.127639 0.355024
37 1 5.29168 5.3433 7.16223 1.49414 -0.306204 0.175083
38 1 1.30198 1.28907 1.40505 1.24383 -0.50345 -0.639657
39 1 5.34197 8.58998 0.105441 0.478269 0.0143933 -0.234352
40 1 0.465823 7.82486 0.202092 0.798708 0.941476 -0.442522
41 1 6.38051 1.6932 8.37563 -0.452304 -0.402192 -0.529935
42 1 1.26202 0.594261 3.59139 -2.26365 0.642368 0.561792
43 1 2.17887 8.51798 7.07342 -0.393305 -0.663951 -0.0499079
44 1 2.51564 0.231473 5.90376 -0.178829 0.490825 0.0709684
45 1 0.292417 0.264064 3.49814 -0.436802 0.27752 -0.649237
46 1 8.83355 6.32674 1.6454 -0.943886 -1.70756 0.260287
47 1 1.07687 2.01784 2.56719 0.170763 0.584087 -0.509036
48 1 4.58448 7.43149 2.11833 0.0179879 -0.162513 -0.34282
49 1 3.70008 3.39245 4.41731 -1.02113 -0.26219 -1.10571
50 1 0.463765 3.09431 5.01305 0.0501418 0.287615 -0.396038
51 1 9.13018 4.85001 3.03839 0.324448 0.146843 0.781339
52 1 7.63956 9.34378 3.86781 0.733505 -1.54038 0.274567
53 1 1.87986 9.19183 4.08341 -1.19525 0.00413802 -0.328248
54 1 9.36416 6.28074 8.43978 0.0594898 -0.237434 0.196375
55 1 1.15509 2.90416 4.13959 0.92564 -0.0769222 -0.675683
56 1 1.62255 5.63246 3.49127 -0.628403 -0.500499 0.418459
57 1 1.34243 5.35303 6.63893 -0.00581547 1.72288 0.186018
58 1 5.89017 7.51832 3.37995 -0.326293 -0.809853 0.8378
59 1 5.04585 8.87012 7.32874 -0.857969 -0.122903 1.18218
60 1 2.27588 8.57792 3.37692 0.148927 0.320578 -1.94261
61 1 1.86895 0.43968 1.28436 -0.787939 0.205583 1.39798
62 1 6.00931 0.468243 0.88812 -0.350678 -0.278087 1.20646
63 1 7.99891 2.86908 6.60799 -0.86728 -0.45688 0.194541
64 1 0.937395 6.32806 8.8277 0.0646903 0.0135923 -0.521634
65 1 7.94406 1.26732 3.3428 -1.4467 1.55879 0.993198
66 1 3.73237 1.6835 0.294616 -1.35246 0.484603 -0.65742
67 1 6.41088 6.96877 7.61689 -0.256369 0.83489 0.465508
68 1 3.8385 7.73753 8.5255 -0.210354 -0.0224847 -1.0258
69 1 6.81981 6.57413 1.18174 -0.43653 -0.119485 -0.938388
70 1 6.90044 3.05294 3.34558 -0.895022 -0.0210845 0.31703
71 1 8.49755 3.2754 0.569062 1.02976 0.506175 0.183541
72 1 5.68822 2.15033 2.35502 -0.249561 0.187853 -0.231581
73 1 3.51075 7.60153 5.54999 0.35242 0.417756 0.799156
74 1 2.86174 0.405977 1.71438 -1.19047 0.128145 1.52826
75 1 7.13666 2.77329 1.2577 0.192293 -0.180961 -1.44041
76 1 9.05482 8.02756 0.916731 -0.291833 0.222969 1.04366
77 1 1.53967 1.25238 4.56886 -0.473477 -0.387775 1.37561
78 1 1.74818 7.04652 2.13124 -0.175535 -0.170418 -0.0517033
79 1 6.92176 0.83808 8.75327 -1.63543 0.281939 0.114732
80 1 1.24684 0.118398 8.34341 0.461383 -0.135758 0.165586
81 1 2.31852 7.76913 7.8665 0.668279 -0.639542 0.519317
82 1 7.51752 2.3512 2.15899 -1.34594 -0.241468 0.55781
83 1 4.52206 6.18768 5.26221 -0.152557 -0.4838 -1.3489
84 1 0.927145 4.38098 6.22867 -0.655108 0.342763 0.735754
85 1 0.467534 2.72793 8.77656 -0.756872 -0.493032 0.0624005
86 1 4.0548 2.58221 9.08458 0.555463 0.291326 0.835781
87 1 3.84798 4.3793 3.00701 0.988587 0.374241 0.173457
88 1 8.52803 1.52254 8.14991 -0.317577 0.0598402 1.18367
89 1 5.71158 4.82459 6.27066 -0.600083 -0.158497 -1.24322
90 1 6.46023 7.4946 1.02777 0.122697 -0.691544 -1.02809
91 1 7.76059 7.23093 4.15053 -0.0175776 0.892119 -0.161634
92 1 6.5928 8.40895 8.53309 -0.665971 -1.02933 0.227463
93 1 3.59431 9.12937 4.88324 0.169024 -0.420653 0.667251
94 1 1.37741 4.81364 5.39997 -0.369288 -0.876991 -0.991498
95 1 8.6115 7.65907 4.7145 0.940965 -1.60921 -0.551106
96 1 7.18857 6.08281 7.63792 -0.279542 0.876646 0.388455
97 1 2.59101 5.75831 3.01673 -0.522477 1.36221 -0.610465
98 1 4.89642 8.44006 2.05684 2.2254 0.0495831 0.438079
99 1 3.0844 9.02235 7.42126 0.314573 0.375301 -0.0369451
100 1 9.08424 7.83686 6.95499 -1.16862 -1.19767 0.598404
101 1 4.88504 6.07417 6.46347 0.130591 0.794609 -0.708254
102 1 3.32627 0.805574 4.46318 0.0204054 -0.14728 -0.0159152
103 1 3.3614 7.98407 7.61941 1.61133 0.285683 -0.450167
104 1 3.30062 6.46611 2.37654 -0.729435 1.39633 0.0265621
105 1 1.59 9.24602 5.35102 -0.082347 -0.491647 1.26211
106 1 6.53001 0.873915 6.53573 -0.0579252 -0.503801 0.458557
107 1 7.19339 7.32218 1.79561 -0.189959 0.324861 0.57631
108 1 9.08051 9.03091 5.06555 -0.688386 -1.2557 0.638026
109 1 7.39024 8.95645 1.99454 0.548657 1.07791 0.543227
110 1 0.790424 4.78039 7.29733 0.113978 0.0446855 0.803734
111 1 9.08044 2.43003 8.1143 -0.297708 -0.440606 -0.089391
112 1 5.74667 1.41612 0.638104 -0.045675 1.4802 0.275835
113 1 4.80284 4.72094 1.42863 1.43102 0.421768 0.524248
114 1 0.82073 2.97217 2.13904 1.14156 -0.662906 0.252044
115 1 6.01042 8.68453 5.7931 0.942678 -0.556375 0.534414
116 1 7.39928 1.67243 8.05354 0.52216 -0.47157 -0.0623285
117 1 8.28852 7.4083 7.63089 -0.697331 -0.42524 0.93233
118 1 9.30367 1.99307 7.27143 -0.617771 0.638938 -0.89276
119 1 2.9546 2.46992 7.76123 1.34824 0.785957 -0.404506
120 1 1.07638 7.75476 8.50911 0.287296 1.70604 0.442062
121 1 4.3338 0.0593792 5.78962 0.175028 -0.0175995 0.279468
122 1 1.45953 7.44476 1.0196 0.623991 0.210861 0.202101
123 1 3.33397 5.22271 5.36215 2.45288 0.278337 -0.695265
124 1 2.91405 1.85394 5.75698 -0.454558 0.20677 -0.187798
125 1 5.26822 5.59583 5.61502 0.619543 0.103732 0.522177
126 1 5.82141 4.50877 3.93332 0.186223 -1.42218 -0.0864646
127 1 4.49462 8.60181 3.56388 0.920634 -0.353186 0.0807416
128 1 6.00887 5.13536 7.96607 -0.598153 -0.343785 -0.608451
129 1 1.95495 5.95651 8.67676 0.882217 0.0426843 0.303504
130 1 3.65573 1.63523 7.21495 0.225201 -0.0720198 -0.600353
131 1 9.33955 1.77185 3.49294 -0.450858 0.744791 -0.576602
132 1 9.04383 0.646415 5.06105 -0.993258 -1.19982 -1.05136
133 1 7.54429 0.888919 4.26077 -0.116583 -1.17374 -0.114216
134 1 1.20414 6.34424 2.62171 0.423806 -0.745085 -0.0671048
135 1 7.18473 5.85196 2.95194 0.363235 -0.0253057 -0.0303209
136 1 8.20698 0.142819 6.73302 1.59736 -1.10735 0.945098
137 1 1.42422 5.18936 0.151416 0.766386 -0.70148 1.25732
138 1 4.91966 3.12888 9.39791 0.0606381 0.533498 0.221215
139 1 9.33568 1.50704 6.36576 0.230227 -0.350464 -0.814551
140 1 5.41867 3.46908 3.68808 0.280159 0.53834 -0.330705
141 1 3.37947 9.20943 0.874325 0.973371 0.177548 0.543658
142 1 4.25228 7.3416 0.0290223 0.837781 0.581453 0.0782683
143 1 4.45931 4.79107 7.43874 -0.728048 0.100702 1.02881
144 1 2.49605 1.01452 5.1648 -1.56121 -0.451273 1.92527
145 1 7.63066 4.96747 9.03795 -0.912032 0.387826 -1.0902
146 1 5.07848 0.996352 1.4578 0.394565 -0.284574 0.293499
147 1 5.21706 2.95612 7.6078 -0.994016 -1.16504 0.467143
148 1 2.62248 5.57324 7.97859 -1.08191 0.343305 -0.499901
149 1 3.25491 8.06715 3.2981 0.833073 0.398032 -0.114814
150 1 8.03165 6.33906 3.42662 -1.33163 -0.739474 -0.733126
151 1 8.81878 8.71048 6.58598 0.877686 0.894834 1.13517
152 1 7.06418 7.44724 8.94638 0.56075 0.363647 0.440297
153 1 2.35829 5.58029 0.258883 -1.01028 0.514888 0.570871
154 1 4.80693 6.30977 9.3658 -0.340837 -1.13932 -0.646308
155 1 0.809705 5.64342 4.22034 -0.41531 0.158676 0.418526
156 1 6.18453 7.94552 4.30619 0.0689964 0.610338 -0.378658
157 1 7.45938 5.92461 6.48026 0.180629 -0.0372387 -0.421163
158 1 3.08952 5.78821 8.92838 -0.522715 -0.0317012 0.220405
159 1 1.34337 6.41008 7.11552 -0.405938 0.307105 -0.0490083
160 1 3.04914 3.5965 8.32818 -0.405803 0.570691 0.215732
161 1 0.978416 1.82372 6.11907 0.447291 0.38352 -0.880149
162 1 8.89728 2.89667 9.09423 -0.0201971 1.20473 0.00142302
163 1 0.614114 2.89351 3.20087 0.744005 0.380836 -1.45822
164 1 2.54444 0.243366 0.405423 -0.1568 -1.33308 -0.852097
165 1 4.01428 6.01299 1.56597 -0.590479 -0.49874 1.18214
166 1 6.09548 6.81508 1.82741 -0.24891 -0.235246 1.47831
167 1 2.86038 6.05479 4.01674 0.952938 -0.616697 0.287247
168 1 7.43534 5.39983 1.03558 0.0415429 -0.621981 0.910723
169 1 2.55513 6.63021 9.32892 -1.43126 0.328864 0.47521
170 1 0.164805 3.98396 4.57209 -0.068795 0.778408 0.923556
171 1 5.8074 5.89219 0.128491 -0.952898 -0.675012 1.45813
172 1 2.22268 2.99037 6.96844 -0.43239 0.470603 -0.430283
173 1 6.62224 4.02217 0.710575 0.796529 0.962147 -0.774352
174 1 3.16436 4.82621 6.31559 0.503361 0.134942 0.0228827
175 1 7.07735 5.08534 8.07079 -1.00438 0.553743 -0.753024
176 1 2.09442 2.0148 6.4658 -0.227205 0.454418 -0.31652
177 1 4.10645 8.2178 1.49774 -0.407033 -1.32057 0.123753
178 1 8.28752 4.75679 1.6516 0.431541 -0.0107614 0.511774
179 1 4.85905 0.901095 5.58023 -0.991281 0.10561 -0.192956
180 1 0.930827 9.31444 2.6905 0.923575 0.732408 0.00370518
181 1 9.03899 5.88189 3.19537 0.68509 0.477388 0.770326
182 1 2.35734 2.80945 5.94454 0.086806 0.251461 -0.220058
183 1 2.96947 2.78475 0.23258 0.572844 -0.632114 -0.0600261
184 1 5.04348 7.8454 8.62305 0.988912 -0.196328 0.335051
185 1 2.71929 7.30066 7.04151 0.528006 -0.858831 0.556808
186 1 1.83525 3.55347 3.63276 0.390452 -0.290146 -0.953313
187 1 2.5329 9.3753 4.93676 0.295838 1.03459 1.14013
188 1 0.573644 7.97425 1.53557 0.533482 0.476537 -0.39828
189 1 5.06362 6.00997 3.05858 0.627881 -0.317782 -0.125166
190 1 4.96012 7.75103 2.99659 -0.354584 -0.206305 -0.216733
191 1 4.68432 5.0177 6.34296 1.6615 0.218329 -0.145972
192 1 9.00436 0.872846 8.91106 -0.685705 -0.5295 -0.193414
193 1 2.41764 8.81935 1.16277 0.583887 0.575886 -1.17377
194 1 8.19477 8.59557 2.65534 0.511365 0.638112 0.782503
195 1 8.42503 0.153972 4.4966 -0.545963 -0.520554 -0.227198
196 1 0.590796 1.11966 3.01878 0.759059 0.389002 0.419606
197 1 6.46519 6.3378 5.62213 -0.795324 0.745604 -1.37262
198 1 9.3097 1.10296 0.461986 -0.238014 0.225395 0.0525876
199 1 7.31959 0.165261 4.99821 1.01062 1.17599 0.907417
200 1 2.57831 1.52029 7.22481 -0.0763111 -1.34698 0.569307
201 1 4.82768 1.59142 3.0747 -0.0258119 -0.926572 0.502666
202 1 8.66337 6.58308 4.4702 1.24067 1.37152 -1.37102
203 1 5.58724 8.25378 7.85515 -0.298701 -0.511486 0.319801
204 1 5.48008 2.02912 8.99443 -0.781228 -0.701715 -0.443247
205 1 4.59313 0.320844 7.91302 -0.131063 0.905403 -0.359349
206 1 0.215537 8.33158 6.09598 -0.537587 -0.698658 0.370898
207 1 5.10324 0.515249 2.46678 0.641396 0.301698 2.18809
208 1 8.15238 4.39018 3.48262 1.00907 0.929391 0.381748
209 1 7.28755 9.28666 6.99057 0.715352 0.180601 -0.632735
210 1 0.970865 1.9253 0.0029944 -0.153872 -0.150709 -0.769582
211 1 8.11655 9.38626 8.71684 0.246538 -0.0170893 -0.514746
212 1 6.48528 7.39502 2.56396 -0.837057 -0.0795145 -0.439047
213 1 0.819185 3.83638 3.706 -0.678866 0.934735 0.699602
214 1 8.95864 1.74076 1.67492 0.902036 -0.718273 0.531569
215 1 3.6536 5.78728 4.61118 -0.620187 -0.758356 -0.0930973
216 1 6.48438 7.38922 6.62433 -0.329103 0.256599 -0.621747
217 1 3.49291 9.35998 6.42488 1.05355 0.361323 0.36713
218 1 2.26202 2.22223 2.46436 0.873321 0.0226085 0.140241
219 1 7.60109 5.91301 8.71805 -0.467441 0.158194 0.536151
220 1 1.27347 1.35456 8.14907 -0.154549 -1.12607 1.00041
221 1 7.76716 8.2371 7.13608 -0.569015 0.409456 -0.823995
222 1 5.84301 5.82822 1.29161 -0.634023 1.08284 0.852236
223 1 0.197911 0.75864 7.22328 0.834398 0.314522 -0.538289
224 1 7.45045 6.02527 5.42179 1.47837 -0.401365 -0.0701316
225 1 8.3668 5.45486 6.84669 0.154684 -0.650806 -0.706409
226 1 2.85176 8.37196 5.34193 -0.362063 -0.829305 -0.370381
227 1 6.53002 6.97494 4.09197 -0.872792 0.208765 -0.171117
228 1 8.01232 8.99552 7.77874 -0.437844 -0.181069 0.662799
229 1 4.10777 2.40204 1.76004 -0.205647 0.693061 -0.228942
230 1 3.05833 7.51105 9.2261 0.0626206 -1.13119 -1.35329
231 1 5.75214 6.14146 7.57387 -0.230051 -0.340615 0.435879
232 1 5.77509 4.13271 2.87674 -0.842554 -0.411501 -0.536452
233 1 7.84118 8.32748 3.90818 -0.687433 -0.0952187 -0.486714
234 1 6.4674 8.9155 0.0853673 0.137925 -0.70438 2.57609
235 1 8.40405 6.26353 5.98687 -0.829396 0.311587 0.644612
236 1 8.91924 5.33219 5.92007 0.216744 -0.167198 -0.543905
237 1 7.47586 1.18506 2.37186 -0.943637 0.595073 0.150163
238 1 7.55672 3.87128 6.52479 -0.147721 -0.879384 -0.305691
239 1 3.9474 8.64404 7.01273 -1.15223 -0.0198694 0.510346
240 1 3.08429 2.4417 6.6422 -0.335989 0.493408 0.374357
241 1 3.00468 4.83409 2.65866 0.71862 -0.0580121 -0.167919
242 1 5.90993 4.82033 0.263975 0.547091 0.284879 -0.0491311
243 1 1.71889 5.60417 1.15453 0.133659 0.111438 0.19164
244 1 5.61302 6.83806 6.77863 -0.79713 0.328486 -0.0618124
245 1 6.40326 1.99579 3.57992 0.889504 -0.677414 -0.519684
246 1 7.36691 5.15306 3.92536 0.159403 -0.204475 -0.329944
247 1 4.08782 3.27084 2.61247 0.290458 0.808348 0.1236
248 1 4.9456 8.4937 6.19949 0.366018 0.166811 0.0694006
249 1 5.23703 3.39854 5.65319 0.237538 -0.207437 0.447972
250 1 5.60646 6.56827 3.74469 0.266135 0.168468 -0.545968
251 1 5.56534 0.427587 7.10501 1.01035 0.183013 -0.170804
252 1 0.105814 3.87739 5.61768 -0.838406 0.143659 -1.79815
253 1 2.32586 5.06662 1.73667 0.534629 -1.03231 0.867479
254 1 6.64135 1.77839 2.33127 0.34679 -0.593746 0.0135298
255 1 6.79011 5.81252 1.84159 -0.376402 -0.412988 -0.032319
256 1 8.68222 3.67978 1.55062 0.382743 -0.837996 -0.684015
257 1 6.53635 0.423776 4.27545 0.236248 -0.127833 -0.270001
258 1 1.62962 8.45474 2.56729 -0.0617741 -0.172164 -0.861235
259 1 3.02577 6.4333 5.94688 -0.300487 0.420794 0.817446
260 1 4.12648 3.55939 1.71565 1.16052 1.24306 0.451583
261 1 9.25913 7.22221 7.86199 0.18633 -0.0597002 -0.152218
262 1 1.90449 1.35635 0.476208 0.692872 0.341728 -0.75043
263 1 7.75602 4.96187 4.88316 0.620503 0.38476 -0.236112
264 1 8.2214 7.22996 6.55977 0.0543148 0.648394 -0.876226
265 1 5.76685 2.78092 4.90282 1.86411 0.722345 -0.113579
266 1 8.68239 5.45164 2.27523 -1.08718 -0.121616 -0.647147
267 1 7.50807 3.60695 0.772193 -0.605719 -0.115525 -0.216897
268 1 4.04241 1.15143 8.8837 -0.848587 1.24988 -0.673038
269 1 1.19316 6.47512 1.40576 0.497802 0.158518 1.25258
270 1 0.609973 8.26514 2.59876 0.196614 -0.462907 -0.379423
271 1 4.7305 7.49204 1.03793 0.630812 0.470592 0.257156
272 1 0.621365 4.72269 1.26194 0.57755 -1.24107 -1.26149
273 1 6.70766 3.82092 2.38326 1.48844 0.30603 0.907373
274 1 3.60636 8.16425 0.547502 -0.150185 -0.662872 0.576754
275 1 5.64884 7.70559 1.62063 0.71022 0.512996 0.174903
276 1 0.51859 7.75075 3.5358 -0.432994 0.0843625 0.135717
277 1 4.4871 0.226936 4.77797 -0.0990461 -0.205697 -1.06626
278 1 1.17302 2.74739 5.70323 -0.214113 0.640266 -0.493333
279 1 9.32427 5.43553 1.46047 -0.666078 0.481011 -0.39778
280 1 4.32426 0.746673 3.13297 1.17816 1.87099 -0.465233
281 1 6.54684 8.31963 1.92179 0.597906 -1.06198 0.949308
282 1 0.365009 3.67438 1.52235 0.190671 0.119397 0.00254165
283 1 8.95527 8.12509 3.52588 0.0825403 -0.142128 -0.157907
284 1 8.16641 7.62178 2.1315 0.762014 0.102672 0.566804
285 1 6.81856 8.68881 3.81467 0.707064 -0.481627 0.192514
286 1 1.84753 2.18609 7.58341 -0.352698 0.519172 -0.489455
287 1 2.68515 8.61125 0.1397 0.619565 -0.40335 -0.0405252
288 1 0.851419 7.58257 4.50198 -0.490372 -0.53984 0.496932
289 1 5.95229 1.23264 2.90257 0.0346882 0.610547 -1.38343
290 1 2.37762 7.5918 0.610429 -0.489302 0.832507 0.309573
291 1 6.66818 2.50101 7.68514 1.43823 -0.24521 -0.627267
292 1 2.68682 5.95976 5.0918 0.494738 -0.561164 0.189869
293 1 8.48196 1.97743 2.76859 0.292984 -0.426265 -1.24427
294 1 8.94419 4.35064 7.64447 0.537936 -0.723486 -0.866605
295 1 8.6116 4.4429 4.41934 0.733352 -0.0969319 -0.777501
296 1 7.16091 8.70493 0.963028 -0.568773 -0.117519 0.240896
297 1 6.07272 7.14486 5.08285 -0.740491 -0.121003 0.398622
298 1 2.37858 5.57781 5.97595 0.617532 0.432389 -0.499803
299 1 4.58027 8.60264 5.25801 0.758012 0.608008 0.0387241
300 1 9.10344 4.05189 -0.00777457 0.0165713 0.939658 -0.506471
301 1 3.01847 8.17075 6.52718 0.308504 0.237698 1.02681
302 1 8.02949 0.85664 5.19488 0.797626 -0.832186 0.140164
303 1 1.51715 0.741164 2.27477 0.574643 -0.215385 -0.0127872
304 1 8.34883 5.79153 5.07121 1.53417 -0.83277 -0.342483
305 1 1.42744 0.0593675 0.424525 -0.283173 -0.327361 -0.454058
306 1 2.08108 7.97765 1.7971 1.05218 -0.140668 0.58219
307 1 5.86787 1.20629 3.91811 -0.449939 -0.647699 0.609574
308 1 0.81548 0.810719 6.35915 0.0706936 -0.0553318 -0.884702
309 1 0.0461004 6.43868 5.95621 -0.0146576 0.43483 0.0698658
310 1 6.66449 4.9366 2.23242 0.339239 0.637251 0.123844
311 1 8.67671 7.12685 8.65416 0.727056 -0.276763 -0.0776604
312 1 6.30784 6.95223 9.37659 0.92935 0.448011 -0.391222
313 1 7.28163 4.39601 1.48668 -0.154342 -0.18073 -0.605892
314 1 6.37069 3.64109 4.11112 -0.107293 -0.802131 -0.588782
315 1 4.38383 5.17012 5.24524 0.922388 -0.676089 0.461532
316 1 9.06312 2.75738 6.5187 -1.01849 -0.184877 -0.724763
317 1 8.05307 1.02838 1.40049 -0.452802 -0.467935 -0.551878
318 1 8.39238 3.29229 3.95163 -0.993572 -0.174529 -1.01727
319 1 4.09197 1.46495 1.14502 -0.330121 0.577466 -0.170879
320 1 4.04814 6.67191 6.03626 0.966749 -0.272103 -0.852536
321 1 9.14391 2.79747 1.31579 0.167172 -0.500061 0.0391835
322 1 1.86901 7.72149 5.00126 -0.328443 -0.823498 -0.177178
323 1 3.28501 5.08226 3.6225 -1.55052 -0.150186 0.224388
324 1 2.21247 3.99253 7.0842 -1.63351 0.819219 0.135479
325 1 6.08075 8.52827 0.96392 -0.858328 -0.307869 -1.04825
326 1 5.55503 2.28214 5.84781 0.0660499 0.0617814 -1.42375
327 1 5.55705 3.16101 8.56918 -0.161789 0.171837 0.541136
328 1 8.53257 6.68104 2.56198 -0.725663 -0.0518386 -0.607742
329 1 9.15469 8.62976 0.022756 0.475246 0.725203 -0.826406
330 1 3.96777 5.19965 0.992151 0.131082 -0.409214 -0.195572
331 1 3.20563 0.705739 3.31085 0.46492 -0.370764 -0.265401
332 1 3.96075 0.110513 3.8784 -0.940828 1.10782 0.0415467
333 1 0.834668 4.71945 2.41012 0.0807636 0.824355 0.638424
334 1 1.11802 8.37756 6.73892 1.16526 0.406351 0.340755
335 1 2.46755 3.96744 1.48822 0.536921 0.292874 1.39366
336 1 7.75842 7.87163 5.79674 -0.927602 0.0706174 -1.07726
337 1 8.36417 0.0344326 5.68678 1.01428 0.257712 -0.106072
338 1 5.99548 2.48769 6.82636 0.305352 -0.532232 -0.589875
339 1 1.5662 3.53941 6.25641 -0.594725 -0.941612 0.415724
340 1 4.38282 9.21313 2.69245 0.0985275 0.0218843 -0.00448071
341 1 6.58491 5.34241 7.10091 -0.698834 -0.584247 -1.70146
342 1 7.12726 3.35546 9.23273 -0.145377 -0.239038 1.01355
343 1 0.418948 6.74769 3.12751 -0.277482 1.53443 1.98112
344 1 0.865572 1.5851 7.08493 -0.257822 0.377938 0.613923
345 1 9.34547 5.0419 6.84095 0.761939 0.0344768 -0.879703
346 1 0.662786 0.911553 8.86212 0.848235 0.200639 -0.626801
347 1 7.60571 6.9846 8.19648 0.513457 -1.72686 0.779154
348 1 6.8148 0.677047 7.64323 1.3876 0.297405 0.319394
349 1 3.63559 4.17158 1.02508 -0.396021 -0.360195 -0.62884
350 1 2.31846 3.83781 5.44073 0.0533191 0.172816 -1.37076
351 1 5.07008 7.90801 4.03827 -0.136616 -0.454866 0.665079
352 1 4.44105 7.93386 7.63532 -0.115494 1.61467 -1.05963
353 1 8.43588 4.42579 6.56144 0.169004 0.800622 0.498751
354 1 0.580457 7.17391 6.63086 -1.01539 -0.283647 0.765033
355 1 9.24032 7.51717 2.6754 0.613723 0.592669 0.741996
356 1 4.95667 2.99378 6.52564 -0.796559 0.201038 -1.16611
357 1 8.62675 3.85277 2.60049 0.390643 0.540543 0.142676
358 1 5.33664 6.67481 5.71338 0.216234 -0.22152 -0.300046
359 1 3.59921 6.61664 9.07884 -0.617137 -0.840233 -1.15732
360 1 4.96551 1.28864 8.3842 -0.00830503 0.15423 0.114252
361 1 7.14125 2.23378 5.17263 0.455309 -0.147386 0.702412
362 1 1.37294 8.7741 1.53696 1.10755 -0.0111751 -0.146443
363 1 7.88845 3.06448 2.93666 0.446683 1.05817 -0.796315
364 1 1.9153 2.15888 4.10568 -0.289784 -1.24478 0.986153
365 1 1.986 4.80597 8.67846 -0.0437897 0.343895 1.06836
366 1 5.93227 0.809573 1.98411 0.727142 0.477877 1.51593
367 1 1.95514 3.25484 0.666407 0.437166 0.405591 0.211067
368 1 1.43528 4.6482 3.39455 -0.382101 -0.0328049 -0.626549
369 1 8.28242 7.81737 0.211085 0.823472 0.450724 -0.0945309
370 1 1.89113 6.99075 8.44471 -0.344772 -0.076028 -0.351691
371 1 1.87037 1.96837 5.35878 -0.376234 0.564094 0.822825
372 1 4.81164 1.17109 7.33278 -2.00397 -0.575477 0.39773
373 1 6.88946 5.0957 0.291974 1.38693 -0.708145 -0.095404
374 1 8.70414 1.51046 5.61497 -0.339912 -0.966427 0.039417
375 1 4.2275 6.66376 0.754983 1.60656 -0.640171 0.0357202
376 1 4.55264 3.8837 0.653265 1.98601 0.311027 -0.96305
377 1 2.04986 7.92478 8.88076 0.473526 0.0860839 -0.0724023
378 1 5.4012 6.89422 2.61143 -0.945873 -0.764445 -0.101068
379 1 6.8168 4.1644 7.564 0.000279747 -1.51724 0.562486
380 1 7.43708 2.07494 6.94686 0.67986 -0.338026 0.269425
381 1 4.88885 2.6529 3.24539 -0.874728 -0.279019 0.499518
382 1 5.68999 7.67054 6.0029 -0.700023 -0.686711 -1.31009
383 1 0.101485 8.30108 8.44871 -0.000952358 1.36408 -1.00477
384 1 3.61419 0.607859 2.34165 1.20294 0.0933034 0.52403
385 1 5.32948 7.31689 0.0105269 0.522241 -0.0313995 -0.29041
386 1 7.64366 4.37394 2.54315 -0.0689013 0.611921 -1.5321
387 1 9.03536 8.20071 1.94667 -0.339406 -0.137193 -0.2081
388 1 3.60878 0.377782 8.26482 -0.921658 0.925669 0.879836
389 1 5.49018 2.2097 4.05374 -0.624654 0.335712 0.468719
390 1 2.31184 5.01523 5.11214 -0.368805 -0.495113 -0.213955
391 1 9.20258 8.85144 2.71384 0.335206 0.226907 -0.633612
392 1 5.67557 6.8294 0.80353 -1.44333 -1.53441 0.355094
393 1 7.45473 7.02719 2.78284 0.790509 1.03728 0.427004
394 1 6.7411 5.51073 4.85055 1.15709 -1.4694 0.233319
395 1 7.91417 1.60495 0.400321 0.197741 0.248891 0.930051
396 1 5.02594 2.00683 1.49183 -0.541365 0.348084 -0.541847
397 1 6.59241 4.32041 6.56002 0.658588 1.67166 0.017942
398 1 5.91141 4.12674 8.21881 0.447296 -0.615616 -2.05384
399 1 7.71914 0.209081 2.79009 -1.08963 0.850982 0.717154
400 1 1.45122 3.69793 1.67964 -1.50713 0.599738 0.294442
401 1 6.45299 5.48114 8.85367 0.461334 -1.31618 0.743526
402 1 3.14917 3.20571 1.29079 -0.36748 -1.09188 -0.671348
403 1 0.953745 2.80629 1.09479 -2.20659 -0.211211 0.586213
404 1 3.25545 7.50291 2.50266 -0.0129429 0.256171 0.183295
405 1 2.07802 4.55288 6.11105 0.590924 0.0671079 0.39631
406 1 4.7749 2.07681 0.492332 0.562654 0.440281 -1.05768
407 1 7.04436 0.64623 1.44522 0.565391 -1.01165 -1.6201
408 1 3.12998 2.07329 8.82814 0.047695 -1.25194 0.55575
409 1 2.77099 2.59439 4.93754 1.21352 0.673008 0.181541
410 1 8.11437 2.25849 1.25084 -0.0217754 0.152785 0.713017
411 1 6.04355 0.275305 3.25981 -0.276877 -0.902819 0.170411
412 1 3.17339 6.83092 5.02524 -0.731129 -0.224839 1.48656
413 1 0.201188 0.177274 0.379008 0.608752 0.228874 -0.33277
414 1 6.74543 1.06524 0.425819 -0.338542 0.202885 1.19637
415 1 6.06856 9.30779 8.67799 -0.268024 -0.426194 -0.641658
416 1 8.26129 8.93902 0.289684 -0.43598 -0.000896573 0.578341
417 1 6.82606 1.02224 3.36992 0.345898 -0.0426685 0.652838
418 1 5.19166 1.81876 4.98647 -0.854522 -0.27916 0.234159
419 1 8.92539 2.90934 3.15897 -0.531308 0.140654 -0.0477213
420 1 0.935845 2.09942 4.89991 -0.356103 -0.0227098 -0.970272
421 1 8.68071 8.2654 5.65761 -0.0346128 0.99739 0.642501
422 1 7.37198 3.6426 4.01305 -0.870251 -0.320837 -0.799664
423 1 7.61721 3.21029 5.70884 -0.38105 0.733323 1.47264
424 1 4.62604 6.01395 4.14515 -0.0259591 0.493413 0.281725
425 1 9.14655 0.553405 6.17512 1.38375 -0.524253 0.884411
426 1 1.61013 0.937242 5.56035 -0.286408 -0.233276 -0.157879
427 1 6.84957 4.42907 4.63744 -0.521055 -0.8409 0.346256
428 1 2.60536 1.18704 9.17186 0.586441 -0.134325 -0.63456
429 1 5.80121 0.642875 8.05948 -0.210467 -0.0379786 0.0638201
430 1 7.39277 2.16721 3.14548 -0.206855 -0.459443 0.281545
431 1 9.38554 4.9889 4.01724 -0.396159 -0.998649 -0.799873
432 1 1.26936 7.38095 2.97703 0.0993423 -0.0329832 0.178076
433 1 2.42947 8.32854 4.30712 -0.0553138 -0.732032 -1.23177
434 1 6.77489 5.27602 5.93417 0.507359 -0.0133368 -1.11015
435 1 8.4086 6.26119 8.22139 -0.15448 0.338944 0.116413
436 1 9.0989 6.77234 6.87132 1.02763 -1.25961 1.06551
437 1 4.77476 4.13213 2.35366 -0.288656 -0.394621 0.227313
438 1 2.00923 6.6543 3.25096 0.387466 1.21915 0.170658
439 1 4.07009 8.15791 2.65168 0.540759 0.268986 1.11246
440 1 3.2889 5.98663 0.680405 0.386138 0.215048 0.771656
441 1 6.10456 3.44204 0.027222 0.135719 -0.504719 0.551592
442 1 1.69748 5.31776 2.52039 -0.986822 0.603896 -0.697253
443 1 3.21774 3.86186 2.28205 -0.697736 -0.52332 -0.297882
444 1 7.55079 6.105 4.36187 -1.18713 -0.184424 -0.716832
445 1 6.89156 3.43097 4.97889 -0.946798 -1.14823 0.706112
446 1 8.11541 2.39208 7.70958 -0.753677 0.499378 -0.910531
447 1 8.82555 5.00542 9.3415 -0.234421 0.206093 0.0333301
448 1 2.24196 0.224625 3.18801 0.029847 -0.340741 0.452697
449 1 5.00529 7.6933 6.89594 -1.12682 -0.472433 1.04424
450 1 3.42224 0.683028 7.20826 -0.509873 -0.716046 -0.221471
451 1 5.66317 4.31109 7.25549 0.660983 0.00502622 0.33496
452 1 5.21886 7.13916 7.84942 0.797784 0.610102 -0.362002
453 1 3.02963 1.83234 4.33748 -1.74588 0.427306 -1.98233
454 1 2.67186 7.11208 1.73685 -0.950723 0.966123 0.222793
455 1 7.87769 5.06323 5.9021 -0.313673 -1.40777 -0.973422
456 1 0.210186 5.68034 9.24042 0.559936 -0.0669984 -0.221015
457 1 7.84417 6.78176 9.24898 -0.399076 -1.3381 -0.419893
458 1 2.50514 7.37666 5.81106 -0.804148 0.0323304 0.254578
459 1 8.65295 4.49636 5.426 0.680166 0.969916 -0.485687
460 1 4.91887 4.77558 4.41771 0.671419 -0.182147 -0.320686
461 1 0.292959 4.8424 5.13154 -0.590797 -0.74281 1.41876
462 1 4.3999 9.03109 0.657235 -0.367509 -0.469581 0.66941
463 1 1.87932 8.898 9.00318 -0.38263 0.0476395 0.728136
464 1 8.59426 1.30327 4.15152 -0.0524722 -0.343758 0.524812
465 1 1.65598 5.42926 7.7121 -0.269741 -0.941694 0.903483
466 1 3.09334 1.28142 8.07353 0.372886 0.470197 0.115239
467 1 6.22225 1.8124 4.66892 1.43546 -0.173416 0.68307
468 1 7.80578 8.76053 6.18175 0.439819 -0.00138603 0.222241
469 1 7.38567 0.440052 6.01806 -0.212027 -0.634923 -0.440811
470 1 8.23282 3.41219 8.2092 -1.73231 -0.759755 -0.191838
471 1 3.40088 0.593702 5.52634 -0.94771 -0.109463 0.614033
472 1 0.249063 3.19044 0.374711 -0.379359 0.329257 -1.76862
473 1 1.20331 2.58196 6.80537 0.622194 0.236601 -0.339809
474 1 0.58366 8.70742 0.74912 -0.296806 0.0990182 0.681407
475 1 0.218434 9.29748 8.66259 0.728367 1.85301 -0.515287
476 1 7.94279 0.703734 7.86109 0.529294 -0.0706457 -0.521305
477 1 8.65282 9.10082 3.58774 0.701305 -1.6813 0.785296
478 1 3.82944 8.76815 8.17478 -0.360517 0.270271 -0.381437
479 1 1.23719 2.91637 0.067222 -0.305025 -0.0519053 0.587123
480 1 2.50369 0.994682 2.53737 -0.270575 0.639967 0.703109
481 1 3.35682 1.67365 2.10459 -0.342352 -0.806455 -0.603153
482 1 7.35256 3.25194 7.51473 -0.701112 -0.38912 0.263997
483 1 3.88119 7.63406 6.6652 -1.30076 -0.432004 -0.937104
484 1 3.40445 9.05051 3.0613 -0.992117 0.462472 0.436634
485 1 5.59092 6.56164 8.59235 0.981835 -0.472953 -0.991027
486 1 6.17116 7.99059 0.0021177 0.607608 -0.534472 -0.357427
487 1 7.27383 8.08628 2.5942 0.036973 -0.170813 -0.0330837
488 1 7.31652 7.07835 7.1425 -1.67328 -0.985545 -0.842587
489 1 0.153525 1.32316 8.10636 -1.33104 0.146165 -0.191145
490 1 3.20794 6.92564 3.39884 0.464325 -0.616382 0.721812
491 1 8.19477 8.38998 1.37611 -1.18736 -0.564892 1.69597
492 1 4.10019 2.54224 6.45274 0.00344562 1.44345 -1.46314
493 1 9.13438 0.749079 1.50238 0.771398 -0.215601 0.64005
494 1 4.25596 3.49051 3.5903 0.671089 -0.547395 0.844755
495 1 4.85887 0.874781 4.09904 1.11827 -0.404997 -0.746559
496 1 3.72494 3.59246 0.0281971 -0.00335306 0.560766 -0.5865
497 1 1.66054 0.705786 9.04937 -0.243548 -0.667058 0.946726
498 1 7.82299 0.0322509 1.13838 -0.200192 -0.117859 0.0119426
499 1 4.30735 6.45952 2.50228 -0.723467 1.35764 1.08626
500 1 6.08709 3.41753 7.44743 0.152413 -0.139852 0.806559
501 1 5.56838 0.48637 6.16145 0.112853 -0.188792 -0.245227
502 1 1.15357 3.78863 5.38404 0.120995 0.279815 1.76023
503 1 6.07026 7.44295 8.49631 -0.887816 1.1576 0.805911
504 1 5.52623 4.09946 0.935325 0.448103 -0.576439 1.02517
505 1 6.44638 5.21537 3.24593 -0.667201 0.276119 0.798587
506 1 0.452943 9.28651 6.62571 -0.365364 0.269062 0.311767
507 1 0.471187 1.28288 1.98783 0.735759 0.911905 0.216114
508 1 6.58132 2.79396 2.08638 -0.331864 0.0151613 -0.416654
509 1 1.62181 7.39736 7.16598 0.100675 0.498588 0.143638
510 1 8.89407 7.02708 3.58633 0.204853 0.249183 0.230233
511 1 6.99999 8.61522 5.38409 -0.239309 1.05568 -0.644993
512 1 5.49058 5.48756 4.0059 0.733861 0.174796 -0.236372
513 1 2.26714 6.10524 2.10542 -0.147545 0.237937 0.677411