ITEM: TIMESTEP
91360000
ITEM: NUMBER OF ATOMS
1000
ITEM: BOX BOUNDS pp pp pp
0.0000000000000000e+00 9.4000000000000004e+00
0.0000000000000000e+00 9.4000000000000004e+00
0.0000000000000000e+00 9.4000000000000004e+00
ITEM: ATOMS id type x y z vx vy vz
1 1 3.28972 6.58911 2.55997 0.0772555 0.441442 -0.372007
2 1 4.004 4.74564 2.7581 0.141773 -0.0801934 -0.00112328
3 1 2.3906 4.37461 5.28981 -0.891662 0.396368 -0.557958
4 1 2.92451 4.26611 7.73224 -0.22682 0.772445 1.1453
5 1 1.77508 0.173387 2.67592 -0.00685226 -1.30319 0.611327
6 1 3.6801 7.09316 4.90476 -0.330951 0.235146 -0.712498
7 1 6.73277 5.63951 8.01633 -0.277768 -0.138926 1.69299
8 1 9.31716 1.53998 6.66455 1.07016 0.659442 -0.25094
9 1 0.931961 6.75222 6.50497 -0.501147 -0.587686 -0.0656783
10 1 9.19766 6.0758 0.0408057 -1.21576 0.528974 0.368506
11 1 2.06001 0.460305 5.23292 0.684035 -0.134407 0.652155
12 1 8.55536 2.01827 7.35478 1.1789 -0.24175 -1.49775
13 1 8.27258 8.43359 7.62082 -1.07938 0.961708 -0.626934
14 1 3.40388 5.71443 7.18831 0.357137 0.08926 -0.239207
15 1 8.6374 8.94831 0.834764 0.528068 0.643007 -0.2889
16 1 8.29839 6.46361 7.99897 -0.513329 -0.785354 0.696155
17 1 6.19965 0.398114 1.24062 1.26527 0.282864 1.02044
18 1 6.56006 7.79872 4.7528 -0.176369 -0.221367 -0.174425
19 1 8.76987 7.26392 1.70741 -0.0910513 0.109322 0.605911
20 1 7.02524 4.41558 9.29537 -0.19134 -0.403654 0.0223152
21 1 0.0545358 3.06673 9.00172 -0.276455 -0.229844 0.259515
22 1 6.80318 9.07182 0.623831 1.60624 0.958337 0.29807
23 1 8.07287 8.92046 8.98032 -0.114555 0.0672805 -0.612933
24 1 2.19195 5.11992 9.14319 -0.182502 -0.357848 0.418575
25 1 3.38718 7.59739 2.04009 0.793511 0.475042 -0.00463394
26 1 7.30148 0.602714 3.61565 0.28952 0.664559 -0.318243
27 1 7.78174 3.95346 7.96072 -0.454999 1.54442 -0.272758
28 1 5.62465 3.41308 2.64874 -0.411846 -0.669629 -0.476305
29 1 0.417527 5.76979 6.67085 0.409352 0.602548 -0.736781
30 1 8.67696 2.08594 4.04042 -1.07771 -0.565506 -1.76503
31 1 8.88209 1.25618 1.32291 -0.342372 -0.989418 -0.292287
32 1 6.66196 5.37217 6.11831 0.26565 -0.333595 -0.60264
33 1 8.65925 7.86955 0.748401 0.773754 -0.232608 -0.147923
34 1 2.87231 8.31783 0.521417 -0.316772 -0.826108 -0.40646
35 1 4.5294 5.45437 5.81827 -0.805447 -1.51487 0.342831
36 1 3.89557 8.32213 3.51691 -0.738757 0.0306819 -0.389934
37 1 8.55503 5.44208 8.07322 0.326613 1.04062 -0.00476482
38 1 0.617756 9.1331 1.53789 0.842705 0.528889 -1.38376
39 1 4.73059 7.79995 3.87009 -0.891736 0.568506 -0.212306
40 1 4.97539 0.151364 8.24316 -0.794455 0.131302 0.100352
41 1 3.48461 0.331619 5.90715 -0.517442 0.588067 0.194595
42 1 1.52274 0.331454 4.37752 -0.638919 -0.351046 1.00138
43 1 5.32008 1.18729 8.26134 0.864204 0.615169 0.374646
44 1 3.79351 1.07674 3.08776 0.0492807 0.634192 0.433977
45 1 1.32348 6.84137 9.08185 0.000816546 0.128243 0.531707
46 1 9.26529 3.77101 3.47503 -0.795593 0.564881 -0.345542
47 1 6.15524 8.69733 1.33934 -0.143392 -0.323248 -0.139349
48 1 4.47824 0.918598 5.79949 -0.686077 -0.875932 0.727195
49 1 2.21569 3.80247 6.07979 -1.17659 -0.677135 -0.334631
50 1 6.74162 1.40199 4.41829 -0.0276596 -0.199429 0.745178
51 1 6.47763 6.71971 2.48675 -0.716821 -0.533359 -0.663391
52 1 4.74048 7.79662 0.860107 -0.0451269 -0.49224 -0.434105
53 1 8.98295 0.0436558 9.13339 -1.12654 -0.0959862 -0.705006
54 1 7.6449 0.104562 4.41816 1.1035 0.597004 0.413855
55 1 0.91335 5.47316 3.06959 -0.34081 -0.039476 -0.196007
56 1 3.47868 8.09272 4.74218 -0.465742 -0.648271 -0.025687
57 1 3.29579 4.1898 5.80345 -0.279517 0.660732 0.317382
58 1 4.70826 4.84836 3.72942 0.404736 0.99436 -0.156318
59 1 4.9683 6.29749 7.24984 -0.348895 -0.037051 -0.053224
60 1 3.14787 1.75619 5.0145 -0.456546 -0.266669 -0.339719
61 1 3.73837 5.48069 3.4831 0.302915 -0.106052 -1.19945
62 1 4.50814 7.61862 1.94067 -1.00812 -0.0048697 -0.971452
63 1 0.402699 3.57624 6.62925 -1.05769 -1.06639 0.431615
64 1 1.17299 8.59367 2.86202 0.607897 -0.227999 -0.38095
65 1 7.13137 1.94944 2.11822 -0.656718 0.171126 0.833483
66 1 1.80001 1.15639 9.02555 -1.12731 0.0904146 0.072421
67 1 0.396045 4.62019 6.39858 -0.410023 -1.1236 -0.149756
68 1 4.90526 7.43478 7.63508 -0.579148 1.04337 0.518869
69 1 9.03977 6.82667 3.3589 0.406527 0.5622 -0.749284
70 1 9.04443 4.86002 3.35405 -1.13494 -0.651035 -0.0566636
71 1 7.28321 8.42436 7.3355 -1.02658 -0.241323 -0.11642
72 1 2.80019 2.01096 8.63215 1.22497 -0.215167 -0.885946
73 1 4.27936 5.64609 2.42447 -1.61006 0.178185 -0.273016
74 1 6.50132 1.59786 3.37934 -0.473153 0.337277 -0.594015
75 1 4.82216 3.01027 2.27762 -0.965863 -0.449611 0.869538
76 1 6.90416 5.97366 6.93022 0.408852 -1.2757 -0.832926
77 1 1.85229 3.58283 4.94977 -0.529816 -0.73946 -0.868984
78 1 4.89482 6.86725 1.35477 0.205615 -0.305579 -0.188482
79 1 6.55134 9.30277 7.50826 -0.709122 0.546137 -0.110554
80 1 0.925754 2.67765 0.316285 -0.241231 -0.71828 -0.17257
81 1 3.79102 4.8642 7.67789 -1.76891 1.14231 0.720568
82 1 4.25718 9.18138 1.56913 -0.18888 -0.74149 0.712042
83 1 5.44674 7.34616 5.92972 0.661718 -0.14923 0.889595
84 1 1.57195 6.02353 7.48586 -1.51986 -0.973529 0.233539
85 1 8.4489 3.16467 7.58867 -1.33347 -0.556459 1.07984
86 1 5.49254 5.40288 7.72999 -0.920943 -0.506396 0.0376087
87 1 1.03524 3.0316 5.12445 -0.149608 0.0217185 0.292321
88 1 7.42827 1.23161 2.68194 -0.306005 0.0454289 -0.343056
89 1 5.40436 6.91896 2.25252 1.79415 0.979283 -0.691865
90 1 5.70002 6.05015 2.77013 -1.34657 -0.421312 -0.221999
91 1 0.690731 6.73535 3.9532 1.25484 -0.429805 -1.59051
92 1 8.05217 0.636266 9.25399 -0.603913 0.364418 0.521763
93 1 2.72768 1.05136 5.87378 -1.07555 0.104522 0.270035
94 1 2.42723 4.25594 4.22427 -1.11772 -0.400039 0.535422
95 1 7.50431 7.37937 4.37222 -0.541366 -0.824736 0.056771
96 1 6.08969 6.78074 6.55029 0.849083 1.35881 0.891897
97 1 0.99591 3.66817 8.28414 -1.08807 -0.971706 0.246997
98 1 4.98568 8.46819 1.63109 0.538575 -0.169583 -0.910876
99 1 6.87317 9.07049 5.8035 0.365349 -0.282166 0.202242
100 1 4.99125 5.35627 9.35773 -0.106408 0.0282762 -0.921197
101 1 5.91346 5.00891 8.66242 -0.950621 -0.991555 -0.148863
102 1 1.98835 2.69767 2.55929 0.479842 0.376058 -0.66311
103 1 5.53179 6.37853 4.06575 0.374091 0.579745 -1.02024
104 1 7.06366 6.42469 6.07506 -0.135477 0.506246 1.067
105 1 0.383261 6.08397 4.69165 -0.257065 0.19064 1.27213
106 1 8.55351 8.11548 4.9478 -0.660324 0.940428 0.092464
107 1 4.17214 3.94804 3.68529 -0.523275 0.914991 0.824302
108 1 8.38516 0.0334742 2.95873 -1.47747 -1.03034 -0.341241
109 1 7.57186 4.97908 8.52661 0.133823 -1.14987 0.18176
110 1 8.96089 7.16191 7.6062 0.347772 -0.470781 1.01841
111 1 6.30854 8.37466 0.0928097 0.493807 -0.309582 -0.038518
112 1 7.58081 2.3882 0.0450224 -0.0776424 0.398491 0.523152
113 1 3.66246 4.95188 9.25326 1.25596 0.759316 0.539474
114 1 6.29513 3.85395 1.90903 0.302704 0.24932 -0.628993
115 1 4.66625 1.11449 2.34337 0.111791 -0.377753 0.382852
116 1 5.81685 2.71575 0.23345 -0.88092 -0.562871 0.156693
117 1 8.88294 8.73792 8.33395 0.478846 -0.478149 -0.00618741
118 1 8.03336 3.84914 1.14048 0.919222 -0.810264 -0.837366
119 1 3.92789 2.38963 6.14465 0.708827 0.718301 0.10608
120 1 1.97271 8.77465 7.85941 -0.271998 1.43592 0.893931
121 1 4.14187 1.72458 5.2634 -0.838393 0.888325 0.668535
122 1 2.72644 7.27585 4.47102 0.947221 -0.389123 -0.279331
123 1 3.94779 6.1488 0.619009 0.47261 1.24119 0.683083
124 1 0.376247 9.03387 5.92905 -0.380022 -0.260219 -0.709682
125 1 5.86856 4.35448 6.32552 -0.805472 1.09531 -0.508503
126 1 6.16574 3.27105 1.06211 -0.0791709 0.313308 -0.504902
127 1 4.08095 8.74669 5.24377 -0.0631611 0.246199 -0.583204
128 1 7.12027 6.88252 5.1777 -0.335839 0.263681 -1.19736
129 1 9.07834 7.13819 9.29559 -0.00192978 -0.0865895 1.30359
130 1 2.86156 2.53643 1.05224 -0.869026 0.37076 0.199427
131 1 7.48899 1.64549 3.7466 0.037798 1.52102 -0.013446
132 1 7.80503 8.34502 2.62147 0.489298 -0.221775 0.644475
133 1 5.24636 2.27465 2.98807 -1.36059 0.307172 -0.580203
134 1 0.433609 8.8748 9.05022 1.26849 0.680667 -0.140616
135 1 8.51461 7.50534 4.03942 -0.0601912 -0.597333 0.273012
136 1 7.55364 2.58067 7.64117 -0.89605 -0.965024 -0.216701
137 1 3.05313 4.85912 6.83697 -1.14408 0.714798 -0.367116
138 1 4.73243 8.20423 5.86951 0.0249906 -0.658856 0.745686
139 1 3.60818 2.68137 5.07127 0.675709 -0.865176 -0.5673
140 1 0.434079 4.53969 8.3855 0.550272 -0.680625 -0.446999
141 1 2.02488 7.84202 3.29303 -0.532832 0.959246 -0.423372
142 1 5.13272 0.643919 6.47141 -0.259787 -0.748979 -0.806721
143 1 5.09467 2.02719 0.72555 -0.436389 -0.9328 -0.336871
144 1 3.76051 1.22632 4.38742 -0.177353 -1.19229 -0.61704
145 1 0.788227 2.54074 8.49248 0.311905 0.243493 1.0409
146 1 1.05153 2.28908 1.67745 0.255605 -0.284899 -0.368751
147 1 8.01642 2.59022 6.71279 0.00160388 -0.844564 0.0852735
148 1 1.1249 7.74244 4.44525 0.243783 -0.206153 0.29408
149 1 2.84364 0.281456 2.63769 0.969777 1.04408 -0.906136
150 1 0.58132 8.49573 4.96932 0.340603 -0.706927 2.40385
151 1 7.3676 8.20087 6.30022 -0.00840943 -0.710041 -0.581871
152 1 5.94462 9.11359 4.89854 0.435858 1.79338 0.560308
153 1 1.89769 6.03609 0.216439 -0.421246 0.24987 -0.211802
154 1 4.22144 5.31578 1.37328 0.505236 -0.719587 -0.869304
155 1 9.15635 0.734976 4.03584 -1.00208 -0.722424 0.526509
156 1 6.48613 1.98034 7.53218 -1.12352 -0.301303 -0.398761
157 1 6.74396 5.56175 9.16411 0.583513 -0.298746 0.294699
158 1 3.04009 9.08775 8.11718 -0.317646 0.515308 0.91759
159 1 1.82103 6.81752 8.15503 0.11546 0.391106 0.876246
160 1 6.05235 6.17623 7.39273 -0.387856 1.44142 -0.467528
161 1 2.26779 2.82158 6.75802 0.0746258 0.186566 1.39448
162 1 0.0252744 3.39428 2.42607 -0.77505 0.788565 -1.37408
163 1 6.76387 2.77199 6.91032 0.0412822 -0.377674 0.291051
164 1 2.92245 0.489865 7.52353 0.415341 0.693892 1.11573
165 1 1.09934 6.47229 5.57018 0.675479 0.813266 1.30042
166 1 6.3941 6.50857 8.42655 -0.267759 0.265993 1.07314
167 1 3.86575 8.94755 0.529977 0.0921715 0.0185544 -0.0985007
168 1 6.97623 3.98005 0.935039 0.464759 -0.378139 0.397314
169 1 1.68793 4.55941 0.407881 0.933188 0.212691 -0.1621
170 1 8.40851 3.43144 2.04251 -0.348278 -0.892163 0.89735
171 1 6.20309 0.0808086 6.5112 -0.0550571 0.608063 0.258216
172 1 3.48686 6.73755 9.25318 0.662747 0.0043553 0.767861
173 1 3.37856 4.97265 1.87231 0.749847 0.5074 1.8185
174 1 4.43761 4.18434 0.0194308 0.903783 0.898279 -0.562358
175 1 8.51688 3.45317 8.64437 -1.01938 0.903353 -1.16884
176 1 2.90593 1.57885 3.63199 0.467729 -0.554776 0.373448
177 1 5.88792 6.54725 1.41631 -0.347583 -0.188301 -0.0214109
178 1 6.80815 2.83866 1.67045 0.294857 0.783543 1.04004
179 1 6.13028 2.79607 3.54506 0.514452 -0.0622591 -0.0287228
180 1 0.641959 0.924473 7.295 -0.236617 -0.452962 0.127663
181 1 8.73321 5.44987 1.72368 0.409746 -0.0456035 -0.328306
182 1 2.83347 8.26627 3.98592 0.260977 -0.318004 1.01408
183 1 3.79226 4.42028 0.792664 -1.07143 -0.0440931 -0.0183366
184 1 5.3388 6.92775 8.81196 -1.18394 0.830355 0.46021
185 1 0.323478 8.02236 6.30344 0.751041 -0.182574 0.602519
186 1 0.155821 2.78078 1.32244 -0.00339501 0.038446 0.471587
187 1 2.10348 2.11801 4.22064 -1.57055 0.0503142 0.611177
188 1 0.893091 5.94688 0.0679591 -0.108889 -0.531292 -0.251773
189 1 3.20588 5.13082 5.22916 0.168942 0.881079 -0.272694
190 1 4.40417 4.4036 1.76303 1.19132 -1.32359 0.121122
191 1 5.38734 2.77547 4.27683 -0.0913074 0.848438 0.04414
192 1 3.61734 1.31944 6.20431 0.318221 -0.0973493 0.44827
193 1 4.30322 1.99949 2.60637 -0.652179 0.525873 0.653773
194 1 1.81228 8.73957 3.76324 -1.30092 0.296414 -0.000816196
195 1 5.41089 8.30316 4.46778 -0.285652 0.189838 -0.308083
196 1 0.735614 0.253808 2.4897 -0.824124 -0.0929357 0.0693397
197 1 5.34368 3.80276 1.63266 -0.509798 -1.33863 -0.235304
198 1 7.24505 1.21728 8.94051 0.581902 0.540945 -0.950373
199 1 4.46984 8.8085 4.27364 -0.357558 -0.535204 -0.928677
200 1 1.28707 9.21316 8.56385 -1.03375 0.301449 0.0189897
201 1 4.63161 2.00505 4.36668 1.03029 0.34479 -0.741333
202 1 2.71964 5.90231 3.15945 -0.668773 0.171602 0.34585
203 1 4.45652 1.56004 6.63589 1.56018 -1.43678 0.78736
204 1 5.48011 6.70095 0.518704 0.0430254 0.276181 0.350272
205 1 3.71758 1.03274 7.19141 0.129721 1.6267 -0.766926
206 1 4.92513 9.10618 7.00072 0.463085 0.0976801 -0.153218
207 1 7.01469 4.38106 2.51748 -0.821453 -0.565582 0.836421
208 1 0.959622 5.68582 2.04456 -0.0240432 -0.0840504 0.0456047
209 1 6.55428 0.859633 7.20093 -0.465324 -0.413948 -0.956766
210 1 1.96243 3.36956 8.59533 1.10222 -0.849934 -0.665064
211 1 5.86756 0.0341347 0.316315 0.216916 0.462901 -1.23343
212 1 4.25154 6.69585 2.18052 -0.0809235 0.664392 0.189547
213 1 2.31397 6.14812 4.11666 -0.252901 -0.704995 0.13691
214 1 7.71859 2.73469 2.34303 -2.20011 -0.0436128 -0.828548
215 1 6.40729 6.00583 3.66343 0.35909 -0.0973669 -0.555539
216 1 7.97086 3.90313 6.87829 0.481434 0.0686165 0.134479
217 1 2.21172 0.629073 6.69639 -0.0471163 0.421614 0.0309511
218 1 1.91988 1.87392 3.07936 -0.2025 -0.216549 -0.603537
219 1 7.85068 4.6487 1.94179 -0.23435 0.169438 -0.72192
220 1 8.4047 0.267941 8.17075 0.257653 0.401418 -0.77355
221 1 5.45629 8.01137 6.78772 -0.400723 1.41469 -0.738216
222 1 5.12559 5.92059 1.92152 -0.128097 0.564758 0.204998
223 1 3.29348 0.279943 1.15136 0.260057 -0.786364 -0.935548
224 1 5.76597 5.56742 4.7079 0.598638 -0.513692 -0.731759
225 1 1.58456 2.87392 7.7475 0.202753 -0.858947 -0.457285
226 1 3.36108 1.78722 7.78414 0.0230124 0.498952 -0.503725
227 1 6.86271 5.87832 5.11106 -0.429118 0.0517554 0.176928
228 1 7.16437 0.0776465 9.09609 0.0983114 -0.630848 0.0674318
229 1 0.00992557 2.52968 6.88153 -0.0746412 -0.835722 -0.238769
230 1 6.9917 0.7115 0.457502 -0.122228 1.06535 1.53204
231 1 8.12414 3.77518 5.80148 -0.0600822 -0.44698 0.567287
232 1 6.79396 4.52194 7.90761 -0.488392 1.02707 0.0672553
233 1 8.07166 0.701507 2.0066 0.919983 -0.607013 0.753358
234 1 5.78477 8.44666 3.56521 0.190479 -0.51802 0.140316
235 1 6.83942 7.95673 0.890214 0.371533 0.856794 0.958779
236 1 8.30078 3.90263 3.66055 -0.425801 0.194537 0.0101454
237 1 6.73218 0.519307 4.98889 0.429337 0.910363 -0.103067
238 1 7.66054 0.644211 7.49908 0.504265 0.767371 0.977003
239 1 6.21756 5.12097 7.12599 0.332203 -0.553808 -0.393846
240 1 9.2301 2.04951 8.93203 -0.450075 0.325633 -0.112691
241 1 2.94698 5.00877 2.76331 -1.58814 -1.49257 0.755301
242 1 4.46603 4.93493 8.61948 1.19731 -0.936431 -0.353613
243 1 5.30963 9.40091 4.08284 -0.510457 0.76573 -0.327117
244 1 7.61479 5.2358 4.70004 -0.302213 -0.282613 -0.655815
245 1 6.84959 4.9132 1.67335 -0.625932 -0.842488 1.28457
246 1 8.03521 2.69107 4.63894 -0.574162 -0.755369 0.0927212
247 1 4.70102 2.88392 0.0922639 0.792298 -0.671205 -0.069867
248 1 5.77178 8.15522 5.45136 1.74192 -1.2058 -0.946671
249 1 5.35207 4.15235 5.32 0.00151795 -0.834386 0.183627
250 1 5.70534 4.2635 3.27488 -0.191053 -0.0916318 -0.824088
251 1 7.329 4.28677 4.9413 -0.489854 -0.855386 0.00796668
252 1 8.82149 5.94993 5.16009 0.685577 1.01921 -0.347795
253 1 2.24011 6.57468 1.53513 -1.1125 0.54409 -0.601607
254 1 5.2428 3.79377 0.601686 0.550464 0.212196 -0.65697
255 1 4.67407 3.93349 2.67657 -0.327832 -0.845423 0.489681
256 1 0.438734 5.73867 0.962348 -0.0189728 1.22232 0.810699
257 1 9.27421 8.35716 4.26052 0.382308 0.549273 0.591382
258 1 3.4881 6.16772 1.57269 1.05976 0.529683 0.287071
259 1 5.37063 1.90684 5.08795 0.898394 -0.282054 0.853325
260 1 3.81639 3.49597 2.04887 -0.730312 -0.362044 -0.561536
261 1 0.91706 8.20209 8.37862 0.812437 -0.185299 0.136687
262 1 7.28645 2.13831 8.3966 1.00982 -0.146231 -0.0354718
263 1 7.20911 4.4477 5.93936 1.01124 0.8415 1.41068
264 1 5.74846 0.839731 4.67448 -0.787712 0.952555 0.544329
265 1 3.5924 2.50533 1.89847 -0.466815 1.10284 0.824924
266 1 0.486791 6.75144 0.605802 0.959797 0.256089 -1.09527
267 1 6.09104 4.98188 2.38135 0.219433 -0.0262425 1.15163
268 1 5.1557 1.16576 1.35759 -0.917336 -0.292925 0.483724
269 1 3.28615 5.33009 0.812919 -0.280623 -1.10123 -0.497089
270 1 8.77447 8.10482 2.35087 -1.14006 0.439797 -0.999763
271 1 1.97171 8.21246 1.00866 0.486024 -0.676477 0.741819
272 1 1.23415 3.20082 1.12684 0.0292274 0.747791 0.300478
273 1 0.1334 5.90627 3.65383 0.811426 -0.308629 0.554373
274 1 4.49978 1.98956 9.05457 -1.09783 0.0247223 0.33886
275 1 4.54165 0.910696 8.99888 -0.0547218 -0.956978 0.640383
276 1 8.9276 8.31527 9.3065 -0.320541 -0.848233 -0.501762
277 1 6.75099 3.25531 2.67401 -0.209534 -0.638843 -0.157283
278 1 4.66834 2.68833 5.1894 -1.65399 -0.631465 0.656246
279 1 0.618785 3.97973 9.2908 -0.966093 -0.519912 1.16994
280 1 2.80804 1.53548 6.98055 -0.16113 -0.164363 -0.77607
281 1 4.01469 7.45193 2.87899 1.8166 -0.843219 -0.411278
282 1 0.765108 8.57458 3.82089 0.317554 0.572548 -0.0857708
283 1 2.11798 6.61215 5.96157 0.744512 0.323632 -0.270057
284 1 6.01667 6.42817 5.51064 -0.922442 -0.409481 -0.48939
285 1 0.970985 2.09228 5.57712 0.0378931 0.415678 0.769718
286 1 0.931139 1.6498 6.55088 0.0439074 -1.51135 -1.20842
287 1 4.40028 9.20345 6.10583 0.218952 -0.629927 -0.325049
288 1 0.494521 6.57917 1.7129 0.407263 0.248073 -0.836584
289 1 8.05036 1.7385 1.81618 1.23223 0.163809 -0.852857
290 1 5.23708 4.42634 8.21208 1.3119 -0.0985699 1.02471
291 1 0.64361 3.09453 7.51001 -0.28048 -0.898092 -0.360522
292 1 5.89778 3.37479 6.44233 -0.692601 0.155601 -0.741654
293 1 8.33115 4.92037 4.04912 -0.336431 0.343642 -0.309455
294 1 1.39832 3.50909 6.93378 -0.48327 0.469409 0.198292
295 1 5.09791 3.1332 7.15305 0.543527 1.30514 -0.159837
296 1 8.32592 5.51109 9.2105 -0.444643 0.100804 -0.921787
297 1 9.23832 5.187 4.30363 0.146851 -1.01722 0.738076
298 1 9.32744 3.8179 5.7544 -0.54069 -0.965975 -0.141969
299 1 4.18231 8.76381 7.70545 0.0814411 0.84601 0.463275
300 1 2.00258 1.68297 5.26607 0.981204 0.226027 0.409164
301 1 5.31679 8.54174 7.71001 -0.0082609 -0.155023 -0.481849
302 1 8.85832 7.54484 5.74488 -0.736865 0.0211853 -0.210858
303 1 3.99018 3.69852 4.81978 -0.577854 0.9689 -0.0785155
304 1 0.963541 6.03912 8.39979 0.263141 -0.420812 -1.10544
305 1 6.24763 8.30904 7.48965 -0.12683 -1.30985 -0.0837597
306 1 1.33708 8.98947 0.781643 -0.620128 -0.0780713 0.0507996
307 1 5.63251 1.69202 4.02742 0.0473776 -0.245999 -0.985101
308 1 2.40956 8.65261 8.95027 1.32409 0.309968 0.486144
309 1 0.409111 6.45772 7.45048 0.753451 -0.83208 0.134631
310 1 7.98532 6.66034 3.40603 -1.10875 0.355792 0.335119
311 1 0.438397 8.47575 0.560429 -0.623176 -0.234571 0.967537
312 1 3.69954 7.78489 0.305674 -0.293347 -0.268895 -0.200383
313 1 5.10224 6.92993 3.23071 0.0928145 0.431 -0.236729
314 1 5.26643 0.94013 0.397025 -1.14711 -0.697858 -0.278903
315 1 5.06037 5.94165 8.50442 0.487905 -0.158522 1.19355
316 1 9.13708 4.74818 9.25474 0.341309 1.1576 -0.016512
317 1 7.25563 6.35617 4.21718 -0.279649 -0.947217 0.144296
318 1 7.99036 2.79173 3.56754 1.71577 0.656265 0.101346
319 1 1.92139 1.11305 2.38095 0.0840445 0.985181 -0.533341
320 1 1.41792 6.27063 4.58174 -0.38744 -0.147396 0.776932
321 1 0.385369 4.5973 0.693332 0.955868 -1.34916 -0.650229
322 1 5.4975 9.03862 5.99502 0.317219 -0.130877 0.607811
323 1 8.96689 1.06474 8.77815 0.356451 0.627316 0.345794
324 1 0.115884 5.50867 8.56895 -0.667369 -0.760722 0.118759
325 1 0.43901 7.80792 9.27203 -0.0972045 0.140057 -0.257428
326 1 3.82605 2.11581 3.56056 -0.778156 0.514075 -0.0366693
327 1 1.89008 2.41285 1.24982 0.482208 0.432733 -1.76696
328 1 6.15549 3.47193 4.53987 -0.881291 0.47353 0.662032
329 1 0.332271 7.60217 1.32718 -0.0994078 0.539241 -0.370873
330 1 4.06103 2.55353 0.903914 0.776042 -0.801742 -0.461749
331 1 0.0710311 0.642174 5.21961 0.464438 0.139496 0.620861
332 1 3.2311 2.62118 7.01642 1.147 -1.00856 -0.319005
333 1 1.57451 4.29707 8.76477 -0.197695 1.11925 0.559625
334 1 1.90226 6.89285 6.95902 -0.959509 -0.263436 0.776048
335 1 7.06807 6.0233 1.69205 1.02369 2.0312 0.405544
336 1 7.47914 5.5345 3.5378 0.433737 -0.373034 0.987741
337 1 8.24624 0.990508 3.2215 0.956997 0.547504 0.57097
338 1 4.00085 0.342899 4.97746 0.387192 0.749297 -0.0524007
339 1 6.97484 5.20776 0.673321 -0.0200315 0.437276 0.190856
340 1 3.40288 7.37485 6.72677 -0.376723 0.940374 -0.343357
341 1 6.2604 7.21381 9.28806 0.363987 -0.723641 -0.859195
342 1 1.03014 2.12818 4.4635 -0.882113 0.408002 -0.802742
343 1 2.67482 6.9792 3.37418 0.265701 0.663288 -1.28118
344 1 2.63633 4.27213 8.82814 0.346243 -0.697757 0.335307
345 1 9.12997 4.83304 5.37718 -1.44456 -0.247204 0.302503
346 1 8.75355 3.77146 0.310373 0.953348 -0.538387 0.629065
347 1 7.54687 6.0418 8.60221 0.742393 0.0569716 -0.466647
348 1 8.90199 2.79519 3.10899 -0.165463 0.0914771 0.432044
349 1 2.73017 3.03699 1.99434 -0.194352 1.61842 0.0467926
350 1 2.1426 4.37699 6.89908 0.143271 -0.1214 -0.707948
351 1 5.11808 0.138205 1.09973 -0.400075 -1.0365 -0.699811
352 1 4.37776 5.28163 6.90408 0.847293 0.374705 -0.122589
353 1 7.60093 7.87203 5.2891 0.426567 -1.47367 0.878218
354 1 2.44505 6.67934 8.99197 1.69078 -0.577825 0.0380501
355 1 8.55366 8.33667 3.39654 -0.160978 1.45336 -0.425049
356 1 6.56138 1.66015 6.50032 -1.24646 -0.387008 -0.443472
357 1 1.42717 4.52023 4.6961 0.31488 1.13889 -0.613541
358 1 4.87681 3.87423 6.35341 -0.768178 -0.0105868 -0.000642494
359 1 0.736188 7.07006 8.26674 -0.131063 0.52406 1.15649
360 1 5.9842 2.20054 1.31498 0.074894 -0.456821 -1.08242
361 1 8.94123 0.162571 6.19272 0.734006 0.330581 -0.0367691
362 1 2.13284 8.89062 5.70159 -0.0570274 -0.182147 0.657826
363 1 9.06556 6.38678 2.34533 0.228568 -0.155028 0.465982
364 1 9.29191 2.49051 4.70122 -0.48052 1.17716 1.40552
365 1 4.44084 6.81276 8.43236 -1.10706 0.583179 -0.0347658
366 1 2.45892 9.09689 1.22994 0.616397 1.46545 -0.262852
367 1 0.201154 2.8315 5.76312 0.472613 -0.6837 -0.496864
368 1 4.51636 7.38577 6.51439 0.0501511 0.491791 -0.0619764
369 1 7.04231 7.63808 2.55906 -1.03402 -0.761445 -0.116125
370 1 0.935224 1.31498 2.38278 -0.7322 -0.30322 -0.670697
371 1 1.0847 0.160533 3.46909 -0.170321 -0.232559 0.163938
372 1 5.59979 3.17726 5.40181 0.0358932 -0.905019 0.475667
373 1 5.6661 0.362709 7.42763 0.053814 -0.277556 0.111428
374 1 7.23483 9.39636 1.49727 0.61679 0.118257 0.613797
375 1 2.85153 7.62393 9.09251 -1.44444 0.104218 0.239632
376 1 4.38121 3.6018 1.10916 0.270396 -0.570395 -0.148223
377 1 7.19121 9.34901 6.7433 -0.672774 0.3513 -1.37152
378 1 2.62837 5.68954 1.87822 0.0325232 0.0791129 -0.296325
379 1 6.78388 7.12941 3.55858 -0.296528 -1.24332 -0.0717656
380 1 8.1644 4.79295 7.35488 0.23515 -0.558084 0.345799
381 1 2.49988 2.82247 0.0508175 0.0900723 -0.526657 0.775134
382 1 4.63808 0.705723 7.3199 0.97808 0.743341 1.95502
383 1 2.48286 0.635509 1.67554 -0.757686 0.390326 -0.489845
384 1 2.33892 8.11583 4.98963 1.50295 1.09291 0.853768
385 1 4.54517 7.04048 0.152372 -0.37263 -0.439288 0.0877184
386 1 2.73688 9.20417 6.41753 1.03965 0.692384 0.245868
387 1 9.14139 2.12709 0.586305 -0.29462 2.14239 -0.302319
388 1 2.68512 1.81638 0.209111 0.611679 -0.745387 -0.558392
389 1 5.75848 2.41964 6.71861 0.37797 -0.712707 -1.00414
390 1 0.955196 5.41212 4.13117 0.113202 0.240023 0.442853
391 1 6.9464 8.21979 3.88909 -0.148225 -0.105988 -0.412004
392 1 2.31052 5.39576 0.918779 -0.637451 0.0181982 -0.958006
393 1 3.53716 9.04793 4.29773 -0.106202 0.203958 0.231162
394 1 3.26179 3.52266 3.95426 -1.21095 -0.456148 0.204912
395 1 6.14641 1.30494 0.769169 -1.50954 0.307338 0.244406
396 1 3.83523 2.47675 8.35249 0.61899 0.382187 -0.0371337
397 1 6.81861 5.77707 2.68968 0.216638 -0.157156 -0.263558
398 1 7.84288 5.47882 1.16724 0.466696 -0.0765986 0.771455
399 1 7.08156 3.15709 5.04003 1.09516 -1.82078 0.49954
400 1 8.41845 4.20004 4.81401 -1.13786 0.396226 0.192946
401 1 6.6015 6.32629 0.743798 -0.420531 0.239152 -0.0735909
402 1 8.83416 3.33465 4.26964 1.11879 -0.216044 0.168667
403 1 8.7459 2.44889 2.20101 -0.725397 -0.0113227 0.23735
404 1 1.43923 0.414391 1.55313 -0.675638 -0.958741 0.555748
405 1 2.42526 5.55229 5.83266 0.513316 -0.663325 0.316737
406 1 5.13421 2.06732 1.98861 0.364679 0.235801 0.772618
407 1 5.08352 7.92991 2.79566 1.62245 1.14653 0.353364
408 1 0.650902 1.78569 0.847657 1.14139 -0.70056 -0.949909
409 1 8.27813 7.06911 5.05201 -0.640673 -0.24759 0.715354
410 1 6.16369 3.83896 8.29718 0.930904 0.159195 -1.08328
411 1 5.03149 4.94561 2.75365 2.13533 0.326063 -0.925695
412 1 2.99236 5.42639 4.26441 0.223819 -0.0316291 -0.932089
413 1 1.83511 8.66131 6.76119 0.737181 -0.559835 -0.0343457
414 1 7.09509 8.43166 1.9347 0.987726 -0.377686 0.239593
415 1 7.76086 8.47538 1.12913 -0.263226 0.464592 -0.421108
416 1 7.76682 7.49653 1.83149 -0.617014 1.42111 -0.363907
417 1 8.63547 0.540675 0.642888 -0.252311 -0.0797272 0.493771
418 1 6.43444 2.72556 8.5531 0.392758 -1.63958 -0.00527445
419 1 2.87108 3.17302 3.03678 0.421491 -0.280884 -0.0372057
420 1 7.11997 6.5746 7.70887 -0.331033 -0.283245 -0.1683
421 1 9.35854 6.99847 6.58913 -0.364374 -0.461734 -1.44174
422 1 5.85731 0.537475 5.67023 0.0653275 0.790443 -0.145112
423 1 7.79827 5.57196 2.40044 -0.0711224 0.0719852 -0.504175
424 1 3.93661 3.05755 2.99873 1.085 -0.0184902 0.0835532
425 1 8.78205 4.40636 2.31141 0.363902 -0.0574998 -0.413128
426 1 9.25624 2.5118 7.95218 -0.755192 0.58766 0.38867
427 1 7.19594 1.96022 1.03111 -0.570719 -0.403134 -0.883303
428 1 1.74591 7.03613 3.94158 0.343091 0.76459 0.0551333
429 1 4.3851 1.5128 7.95758 0.652843 -0.0458217 0.965567
430 1 6.5549 9.24395 3.91556 -0.0214462 -0.255167 0.0921936
431 1 0.512922 5.32489 7.66322 0.41188 0.239131 0.0547602
432 1 0.59337 6.41959 2.815 1.05143 0.125071 0.16934
433 1 7.39598 4.50779 3.83006 0.899735 -0.766669 0.507527
434 1 0.423141 2.43356 3.57293 0.155167 -0.0494627 0.936255
435 1 7.03381 8.723 4.77936 -0.3554 -0.8019 0.2093
436 1 1.72535 7.74562 7.72665 -0.0588583 -0.582028 0.846556
437 1 1.96662 3.78983 2.28803 0.720033 -0.0115933 -0.157991
438 1 1.5467 6.61659 2.33733 -0.922338 -0.175814 -0.553732
439 1 2.49066 3.32578 7.72219 -0.606211 0.163435 -0.102001
440 1 1.08149 0.825626 0.640389 -0.168615 -1.23789 0.457992
441 1 5.19233 2.24282 7.68762 -1.27046 -0.442973 -1.23798
442 1 3.06757 8.57638 7.20694 0.513535 0.135982 -0.878722
443 1 1.6423 4.10403 1.39692 -0.73009 1.03527 -0.432517
444 1 8.76964 4.42257 6.33888 -1.0425 -1.46455 0.405348
445 1 0.943221 8.59613 7.498 -1.14023 -0.738525 0.520813
446 1 8.005 1.45836 8.03756 0.696348 -0.530933 0.64605
447 1 8.48654 2.79624 9.38658 -1.13759 -0.298048 -0.564158
448 1 1.04083 7.35079 3.17377 -0.255939 0.534619 -0.817389
449 1 6.15419 0.67924 3.74442 0.331218 0.582318 -0.568756
450 1 1.83006 0.240716 0.0543994 -0.509307 0.734879 -0.769802
451 1 0.62547 4.21681 7.45625 -1.1814 -0.623529 0.585479
452 1 0.151091 7.37167 2.49251 1.7369 0.869346 -0.291299
453 1 4.29385 1.78019 1.53545 -0.374317 -0.770945 1.40278
454 1 1.13803 7.65986 0.555278 0.3431 -0.236893 0.28794
455 1 4.45519 6.81079 4.16972 1.34152 1.18284 -0.301548
456 1 2.25599 5.2694 7.52545 0.687743 0.783133 -0.167026
457 1 6.39096 4.77495 5.18446 0.557455 -0.505767 0.141503
458 1 1.80962 7.17049 5.09365 -0.314731 0.988217 -0.684715
459 1 7.25542 2.12902 5.11265 0.103251 -0.850643 -1.36075
460 1 2.30565 3.15258 3.9699 -0.0315587 0.918364 -1.12236
461 1 1.91864 1.83875 6.37045 0.246739 -1.94365 1.26618
462 1 6.99089 6.98901 1.46026 0.297725 0.481809 0.372244
463 1 0.639899 0.559929 9.01569 -0.211881 0.972589 0.499429
464 1 9.31918 7.79432 8.36875 -0.123565 0.497843 -0.307549
465 1 8.85871 8.59225 5.8871 1.03182 -0.0986249 0.903172
466 1 1.68843 1.35699 7.27652 -0.0190676 0.758317 -0.807758
467 1 6.38667 1.63103 8.5317 -0.275851 -0.297135 -0.0179951
468 1 6.53987 7.48943 5.93778 -0.444575 -0.378099 0.0571144
469 1 0.491772 1.14445 3.3127 -0.506583 -0.728464 0.683407
470 1 9.0276 9.00308 5.0057 0.748247 0.212236 -0.0334909
471 1 9.0256 0.239414 1.60152 -0.180547 0.0743401 0.302734
472 1 8.65744 2.24716 6.03923 -0.96493 0.520684 -0.334514
473 1 6.90478 3.44677 7.7909 0.949893 -0.753013 -0.319605
474 1 2.06096 7.836 5.92914 0.488298 -0.193734 0.866672
475 1 8.12465 2.00005 2.98113 -0.966056 -0.338994 0.741262
476 1 2.99779 3.73184 6.81606 -0.260341 -0.479231 -0.4537
477 1 2.22295 1.07102 4.3477 0.194302 0.184087 0.940815
478 1 2.93798 6.33287 0.715239 0.791321 0.159203 -0.271701
479 1 1.19996 4.97188 7.06657 0.985553 1.48604 -0.272637
480 1 1.8498 7.64061 8.83836 -0.662396 1.38346 1.0296
481 1 5.15432 2.91699 1.20473 0.104578 -0.749924 1.75057
482 1 4.91386 3.20771 3.42248 -0.0640504 -0.820223 0.238462
483 1 2.77405 6.26998 5.09897 -0.240541 0.707453 1.21116
484 1 1.62632 1.44818 1.47336 1.14028 -1.31675 -0.705205
485 1 9.30192 6.59918 8.424 -0.243307 -1.17842 0.965004
486 1 7.28149 8.41004 0.0222012 0.33344 0.342827 0.506786
487 1 7.89478 7.29241 6.23309 -0.332132 -0.536693 -0.290042
488 1 7.83723 6.48937 6.85516 0.253932 0.303005 -0.588325
489 1 8.97287 0.9669 7.6119 0.589212 0.051985 -1.08128
490 1 4.84269 8.79225 3.36506 0.654018 -0.86922 0.266158
491 1 3.6159 7.38922 3.92483 0.633164 -0.138682 -0.904411
492 1 3.16656 2.25633 2.83657 0.322461 -1.41357 -0.391406
493 1 0.717937 4.50605 5.46235 -1.08408 0.105797 -0.202588
494 1 4.76224 0.998123 4.58812 0.290038 0.527515 -0.957023
495 1 3.02853 0.64056 4.80542 -0.488291 0.3351 0.145771
496 1 4.10905 3.26742 6.88914 -0.622345 0.0786518 -0.0599474
497 1 1.40306 5.08578 8.10623 0.528699 0.164166 -0.138343
498 1 1.43662 2.70783 3.50332 0.574414 0.351578 -0.0688606
499 1 4.68995 7.85056 8.54483 1.54161 -0.023499 -0.852753
500 1 6.82407 0.708585 8.18549 0.712134 1.14853 0.119362
501 1 6.55508 4.96488 3.30104 -0.170285 -0.866983 -0.180158
502 1 0.568272 0.614095 6.20105 0.577832 -0.272389 0.336873
503 1 5.5677 1.36691 7.22574 -0.695337 -0.764835 -0.0776058
504 1 7.05495 7.21003 6.88804 -0.0475083 -0.186921 -0.508285
505 1 4.37987 4.44103 5.59681 -0.983522 -0.798961 0.307232
506 1 8.32051 7.25446 2.63759 -0.322363 0.867644 0.60425
507 1 2.23549 0.824593 3.34213 0.0426849 1.10565 1.28298
508 1 4.99282 9.10768 2.37698 1.24409 -0.744963 -1.22909
509 1 6.00626 0.100856 8.43336 0.16614 -0.0967566 -0.372895
510 1 9.04723 6.32232 1.2174 0.860791 -1.15801 -0.725217
511 1 9.31458 1.87796 2.87 0.799987 0.333689 1.30511
512 1 8.56211 2.9075 1.10393 -0.124166 0.150105 0.13706
513 1 9.01503 4.00347 1.4073 0.308234 -2.09143 -0.826322