ITEM: TIMESTEP
86270000
ITEM: NUMBER OF ATOMS
1000
ITEM: BOX BOUNDS pp pp pp
0.0000000000000000e+00 9.4000000000000004e+00
0.0000000000000000e+00 9.4000000000000004e+00
0.0000000000000000e+00 9.4000000000000004e+00
ITEM: ATOMS id type x y z vx vy vz
1 1 4.54276 7.24116 3.34672 0.180452 0.149356 0.648609
2 1 2.41189 5.36654 1.5973 0.924875 -0.943347 1.53089
3 1 2.37214 3.81703 6.44264 -0.304866 -1.12294 0.769003
4 1 2.17937 6.70207 0.441159 -0.652878 -0.481028 -0.90697
5 1 1.84544 0.504387 3.83984 0.0591178 0.185916 0.67949
6 1 4.50418 6.29075 5.10147 0.686515 -0.676853 0.313432
7 1 6.42552 5.33448 6.41501 0.386081 -0.177462 0.450316
8 1 8.61498 2.18746 6.48947 0.287331 0.280126 0.313643
9 1 1.36646 7.38195 5.6034 0.465148 -0.868476 -0.180983
10 1 0.0965832 6.46553 0.02853 -0.216556 -0.333171 -1.04685
11 1 3.9315 1.0367 5.09963 -0.0301631 -0.509821 -0.51879
12 1 7.88929 2.19687 7.19375 0.646692 -1.18995 0.598514
13 1 7.6869 8.15206 7.34356 0.307301 -0.205563 -0.127334
14 1 2.80976 3.97782 8.08943 0.529315 -0.2821 -0.456205
15 1 0.0259102 8.63414 8.02406 -0.172535 -0.00912889 -0.148498
16 1 9.01123 7.4784 0.439161 -1.21352 -0.382515 -0.0266479
17 1 6.28403 9.19048 1.61578 0.395021 0.305159 0.203178
18 1 5.95705 7.46228 5.77585 -0.0760855 -1.10161 -1.24878
19 1 8.63652 6.3052 1.59978 -0.860038 9.76955e-06 -0.145446
20 1 6.94215 3.3025 1.66547 -0.153462 -2.26836 0.555666
21 1 8.70688 2.37471 9.25423 0.245045 0.445582 -0.759276
22 1 7.47135 9.16321 9.33345 -1.07565 1.25396 -0.850538
23 1 7.25812 0.285638 8.32818 -0.0675662 -1.48753 0.619372
24 1 1.52168 4.5557 8.74593 -0.555788 0.442783 1.16511
25 1 5.21698 8.8179 1.99621 -0.928507 -0.387028 -0.109417
26 1 5.42429 1.85573 3.6632 1.02848 0.0390949 0.552217
27 1 6.43272 2.71363 8.65255 0.608191 0.73303 0.101008
28 1 6.57419 3.10323 2.80515 0.0331845 -1.12732 0.940893
29 1 0.681142 5.15474 8.99905 1.14558 -0.511039 1.12778
30 1 9.27571 1.18882 3.37345 1.44902 1.71812 0.600126
31 1 0.497569 1.05854 2.24731 1.11711 0.0153752 0.47151
32 1 5.37652 5.52936 6.18549 0.695083 0.586948 0.881259
33 1 6.43005 7.76348 0.527659 1.03767 -0.754327 -0.0306146
34 1 3.62134 7.86862 0.560805 -0.106404 0.831336 -0.0376938
35 1 3.55886 5.81422 4.95641 -0.875079 -0.410878 0.315206
36 1 3.04406 0.141058 2.78001 -0.369949 -0.051418 -0.0898279
37 1 7.87903 4.78415 7.96966 0.011034 0.778231 0.943172
38 1 0.226523 0.70933 0.802834 -0.542871 -0.505299 -0.0901945
39 1 5.23494 7.93497 2.65501 0.478155 0.778389 0.134779
40 1 4.53401 0.869028 8.52022 -0.100148 0.0548772 -1.22751
41 1 5.0533 0.30926 6.56078 1.08541 -0.267694 0.540668
42 1 0.993825 9.12724 3.68711 1.15496 -0.595759 0.633431
43 1 5.34228 0.260974 8.79545 -0.0765285 -1.0237 0.166496
44 1 2.7979 0.894658 4.5382 -0.153679 0.924576 -0.270609
45 1 1.60032 7.05035 8.9978 -0.795223 0.112216 0.868334
46 1 1.05207 4.5417 2.9313 -0.514928 0.448703 -0.943112
47 1 7.19117 8.73047 1.58247 -0.144351 0.190657 1.22383
48 1 3.16663 1.78038 5.10518 -0.0786094 0.92732 0.565091
49 1 1.175 2.21745 6.37107 -0.727761 0.0259172 0.528472
50 1 8.07815 1.9826 4.50031 0.494196 -0.318436 0.160313
51 1 8.17271 7.29125 2.03616 -0.398041 -0.30495 -0.216313
52 1 4.95905 7.67246 1.79709 1.22381 0.588926 0.44003
53 1 0.34176 8.61756 9.0504 0.650716 -0.354145 -0.533577
54 1 5.6389 9.29356 5.73681 0.557986 -1.81384 -0.170528
55 1 2.09728 4.45268 3.1004 1.40747 -1.2485 -0.157573
56 1 2.15803 7.32166 4.94862 -0.556328 -0.914965 0.153803
57 1 3.55405 4.82787 5.31265 0.794349 -0.249408 -0.436769
58 1 5.39157 5.50582 0.891997 -0.501791 0.625193 -1.29661
59 1 5.75404 6.8284 6.78561 0.192051 0.556179 0.187346
60 1 2.57342 1.61437 5.88248 -0.882353 -1.14891 -0.470812
61 1 3.71267 6.6757 3.7366 -0.280762 -1.04087 -0.258262
62 1 5.61897 8.30617 1.10141 -1.20394 -0.0991707 0.717024
63 1 9.36034 4.04496 5.50753 0.286251 -0.833416 -0.336629
64 1 8.92014 8.87507 1.58661 -0.434844 0.728311 0.936908
65 1 7.34344 1.38472 2.7402 0.771796 1.06872 -0.0956028
66 1 1.18589 1.78844 8.34671 -1.27348 -0.513646 -0.369936
67 1 0.731286 6.45786 6.66956 0.18034 -0.812263 -0.998069
68 1 4.51669 7.66378 7.22051 0.232809 -0.500005 -0.152645
69 1 8.56492 6.80645 4.22542 0.0127604 -0.638912 0.0472754
70 1 8.80744 5.89363 3.74088 0.646614 -0.59105 -0.786182
71 1 6.62777 7.889 7.45584 -0.954537 0.911713 0.801631
72 1 2.95646 3.0289 9.22464 0.664764 0.130227 0.387283
73 1 4.22517 5.14766 1.76069 -1.51533 -0.0535393 -1.09654
74 1 3.81533 0.769479 2.5206 0.257448 0.299948 -1.12882
75 1 4.8962 2.60287 1.93522 0.035277 -0.61562 -0.293062
76 1 7.99754 6.15646 6.74457 0.151416 -0.646868 0.321668
77 1 1.50581 4.15549 5.75241 -0.868899 -1.15545 0.946469
78 1 4.1756 6.90334 1.77647 -1.18825 0.0591562 -1.02567
79 1 6.50012 9.00477 7.61995 0.518975 0.715219 0.244348
80 1 0.376778 1.8828 8.90305 -0.734424 0.721855 -0.561191
81 1 3.01838 3.50372 7.20304 1.62359 0.812703 -0.825135
82 1 4.51507 0.33636 1.83576 -0.268903 -0.435369 0.0952451
83 1 4.58402 7.22127 5.50283 -0.167663 -0.24557 -0.47122
84 1 1.13646 3.19404 7.01626 0.368402 0.657182 -0.306626
85 1 7.51758 3.2457 8.61923 0.431996 -0.147427 0.535636
86 1 3.69431 4.56396 7.42067 0.58975 -0.764537 0.698643
87 1 2.29368 2.44859 5.21328 0.559113 0.0670296 -0.138148
88 1 8.71676 0.740958 0.276896 -0.600128 0.737113 -0.443459
89 1 6.37756 6.52829 3.00436 0.245756 0.114887 0.745421
90 1 5.33005 6.39603 3.15396 0.788659 -0.293143 -0.502914
91 1 0.744182 6.66501 3.00697 -0.751927 0.832924 -0.896207
92 1 8.11613 0.500654 8.92304 0.104174 0.635525 -0.0213688
93 1 3.43277 9.23944 6.2683 -0.0100331 -0.235884 0.0082689
94 1 1.67236 5.1594 5.31175 -0.0612675 0.665515 -0.414975
95 1 7.80547 7.28487 5.24309 1.25503 0.773349 -0.459325
96 1 5.61756 7.52657 7.58034 -1.70855 -0.158466 0.404543
97 1 1.23989 4.78902 0.481885 1.36182 0.316076 -1.61344
98 1 5.86047 7.28377 1.35991 -0.00920379 -0.820498 -0.450846
99 1 6.37598 8.5024 5.75815 0.0603092 -0.535018 0.792132
100 1 6.36943 6.79843 9.33319 0.289527 -0.251917 -0.924184
101 1 4.91958 5.43226 7.51967 -0.676415 0.0214515 -1.353
102 1 3.04959 3.38726 2.29026 0.772212 -0.603763 0.00251244
103 1 4.55038 7.77349 4.48014 -0.0562151 0.623839 0.567716
104 1 5.83135 6.41322 4.81342 0.800415 -0.588511 -0.740416
105 1 0.275799 7.60854 5.50269 -0.424312 1.04309 -0.366588
106 1 8.1146 0.459525 5.58792 0.571868 1.44479 0.0624808
107 1 4.73246 4.60966 2.67772 -0.317867 0.40617 1.05491
108 1 8.07728 8.08575 2.74459 -0.431129 0.129339 0.288913
109 1 6.00073 3.70372 8.5453 -0.780533 -0.222562 0.162424
110 1 7.32756 6.29736 0.310733 -0.339307 0.824833 0.469647
111 1 6.29826 9.18459 8.64812 0.674315 -0.646373 0.392968
112 1 6.89304 3.27685 0.0913264 0.258454 -0.335993 -1.73868
113 1 3.30566 4.98405 0.133148 -0.619437 -0.33092 0.958712
114 1 5.02884 3.73182 3.30735 -0.879274 0.883618 0.129109
115 1 4.74428 1.41341 4.46905 -1.13081 0.519431 0.691861
116 1 7.32909 2.23251 9.01527 0.432225 -0.423378 -0.530448
117 1 8.32223 8.61265 8.02889 -0.666212 -0.373846 -0.190439
118 1 8.04277 3.58733 1.04868 0.445986 -1.36138 0.0998883
119 1 3.79139 2.83644 6.75544 0.129648 0.488261 0.394315
120 1 2.0336 7.65659 7.85333 -0.42119 -0.473117 -0.284945
121 1 4.45336 2.24072 5.08317 1.04186 -0.858134 0.251627
122 1 1.93448 8.3289 5.11811 0.322737 -0.668769 0.210795
123 1 4.6136 5.81787 0.0813022 0.509174 0.256208 0.163083
124 1 8.6181 9.03623 6.026 0.370563 0.079632 -0.387741
125 1 5.57547 4.83231 6.88647 -0.583846 -0.272784 -0.0184187
126 1 7.88203 4.74605 0.771551 0.545026 1.70827 0.957899
127 1 3.08279 7.70145 5.21443 -0.362941 0.634462 -0.385354
128 1 7.41578 6.3618 5.03778 -0.360719 0.270952 -0.570389
129 1 8.92496 8.07094 9.01498 -1.0741 -0.419805 -0.373394
130 1 3.51368 2.34498 1.14564 -0.0640104 0.485223 0.940714
131 1 8.12543 1.93816 2.07402 0.799071 0.149358 -0.0381133
132 1 9.05343 7.73663 1.4946 -0.777685 0.73225 -0.0708341
133 1 5.82282 2.82393 3.48568 -0.0317943 0.171843 1.04839
134 1 0.0890102 6.72906 1.1496 0.0290083 0.7482 0.871777
135 1 7.40991 7.06411 4.2341 0.0520851 0.0972765 -0.36995
136 1 6.54123 0.0532634 6.25606 0.954638 0.876779 0.266651
137 1 2.56996 6.58207 7.48985 0.801229 0.482943 0.743454
138 1 4.34787 7.92069 6.18839 0.574556 0.0287499 -1.09379
139 1 1.80089 1.0157 7.3846 1.06455 -0.502002 -1.15316
140 1 0.29053 3.81572 0.360023 -0.144277 -0.329136 -0.156731
141 1 1.79575 8.71932 4.22708 -0.165199 -0.491727 -0.736064
142 1 5.872 0.895337 6.13113 -0.318556 -0.234838 -0.441025
143 1 5.29496 2.62471 0.961215 -0.069432 -0.023196 -0.0888797
144 1 1.70532 1.10538 4.67261 -0.300767 0.0581815 -0.438818
145 1 8.94715 2.96145 8.37576 -0.500746 -0.454927 -0.300906
146 1 4.62857 1.4845 2.38115 1.28794 1.08231 0.360973
147 1 7.24769 2.44437 7.94408 0.0384777 0.366744 0.73808
148 1 1.70903 7.6708 4.00531 -0.180475 0.636181 1.05296
149 1 2.56839 1.87973 3.2443 0.311457 0.662227 0.616921
150 1 0.917981 7.87995 4.70977 -0.310943 0.90708 -0.187772
151 1 6.63321 7.36802 6.62413 -0.805998 0.0373711 0.573902
152 1 5.96481 8.7629 6.68752 -1.46359 0.471227 0.410335
153 1 3.50482 6.77803 0.961153 -0.211986 0.196424 0.531692
154 1 3.46072 5.74465 1.34317 1.23443 0.759256 -0.798032
155 1 7.61578 9.00587 2.98037 -0.480969 0.818609 1.59311
156 1 6.62243 9.25363 4.99965 0.0746543 -0.258722 -0.211198
157 1 6.25616 4.74424 8.79043 -1.1332 -0.568792 1.58878
158 1 3.98528 7.61524 8.85642 0.130447 0.429459 0.902322
159 1 2.30904 7.10003 5.98231 0.74197 -0.134392 1.79791
160 1 7.35497 5.24951 7.1538 -0.233108 -0.262541 0.00287414
161 1 1.00246 1.89246 7.35291 -0.639512 -1.14779 -0.0348884
162 1 0.538738 4.02661 2.04575 0.324882 -0.794057 0.893731
163 1 7.41557 9.02759 5.69554 -0.364575 0.764662 0.32704
164 1 2.89607 0.84085 6.44689 -0.938927 0.0261999 -0.160788
165 1 2.68231 7.13628 3.98352 -0.726301 0.562568 0.550771
166 1 6.0373 5.66089 8.2474 1.30847 -1.30636 -0.357221
167 1 3.49859 9.34537 1.77086 -0.624143 -0.535458 -0.265837
168 1 6.45736 5.01818 0.592501 0.139913 0.160275 0.40111
169 1 0.719365 5.73738 0.701727 -0.700708 0.40425 -0.451851
170 1 0.545185 1.82142 3.96837 -0.614775 0.0240829 0.403576
171 1 3.21762 8.40779 8.81644 -0.0463343 0.145734 -0.147888
172 1 2.23412 4.84704 0.00793293 -0.170892 -0.713874 -0.666535
173 1 3.28361 4.75141 1.25721 -1.06739 0.0769205 0.424439
174 1 4.26486 4.82132 9.16402 0.756821 0.106547 0.66693
175 1 6.71982 3.37988 7.86149 0.468433 0.36026 -0.268968
176 1 1.82514 0.62456 5.70183 -1.02706 -1.41758 1.39535
177 1 4.86133 6.17597 2.14416 0.20857 -0.153473 0.894403
178 1 7.08216 4.03754 0.777927 -1.53433 1.28528 0.467916
179 1 6.0531 3.95315 3.40562 0.750983 -0.702018 0.179722
180 1 0.181411 8.89277 6.36638 1.44857 -0.0683661 0.548568
181 1 7.4942 6.0997 2.1555 -0.133178 -0.635859 0.209614
182 1 2.09086 0.100432 4.89112 -0.65027 -0.26111 0.779286
183 1 3.95322 4.16461 0.558279 -1.11871 -0.0863212 0.153958
184 1 5.45526 6.51384 7.82644 -1.72396 -0.306368 0.187706
185 1 8.92573 7.68476 7.73021 -0.725356 0.0567523 0.44598
186 1 0.72408 3.50428 2.89745 -0.581819 -0.398365 -0.945481
187 1 1.59022 1.76189 5.50811 0.844236 -0.746345 -0.810537
188 1 0.853698 6.71886 1.84923 0.774139 0.51287 -0.0730447
189 1 2.63464 5.33964 4.96317 0.522881 0.407989 0.327238
190 1 6.08104 5.21291 1.51279 -0.0299299 1.48876 -0.0109014
191 1 4.90267 3.16263 5.01296 -1.6021 -0.625824 -0.184063
192 1 2.72706 0.802641 7.75848 0.276842 -1.0561 0.567933
193 1 4.49796 1.86898 1.41434 -0.0505788 0.183809 0.00921371
194 1 0.24429 8.54435 5.13112 -0.244098 -0.539204 0.194423
195 1 5.32423 0.0396804 3.01895 -0.421092 0.215703 1.4218
196 1 0.78298 0.104513 2.15964 0.329367 1.2591 0.839618
197 1 5.50748 3.55193 1.55482 0.0151889 -1.09631 0.166482
198 1 8.51293 0.242909 6.85028 -1.11297 -0.332442 -0.184076
199 1 7.17062 8.98818 4.1151 0.489903 -0.151321 -0.134837
200 1 4.07672 0.29318 9.22936 0.20633 -0.660066 -0.464979
201 1 5.36283 2.38119 4.51843 -1.26525 -0.299034 -1.1636
202 1 2.74457 6.46555 3.14744 0.44754 0.628321 -0.337298
203 1 5.16758 1.25719 7.00689 -1.09673 -0.770696 0.273856
204 1 7.13858 7.62074 1.54147 1.2351 -0.0207786 -0.346413
205 1 3.91224 0.874957 6.103 1.12014 0.143919 -0.570759
206 1 4.62909 0.49455 7.49331 0.454794 -0.525396 -1.3716
207 1 6.96507 4.02511 2.45073 -0.241825 -1.04832 0.855909
208 1 0.172092 5.03666 2.41684 0.988907 1.67683 -0.0493072
209 1 5.76921 8.5493 4.79892 0.418311 -0.483337 0.254342
210 1 1.54612 2.63884 7.84827 1.63771 -0.165867 -0.420065
211 1 6.91311 0.0304265 0.722555 0.376021 0.414583 0.473093
212 1 5.258 7.94097 3.80616 -0.919288 0.0597891 -0.0935733
213 1 1.33681 6.71831 4.66093 0.332477 -1.8379 -0.241185
214 1 7.55314 3.35617 3.12436 0.933306 1.08947 -0.512783
215 1 5.12744 5.68159 4.49804 -0.817307 -0.0352263 0.0166721
216 1 7.18298 4.15498 7.36595 0.113158 -0.51128 0.0600778
217 1 2.05225 0.361951 8.42643 0.575161 1.1392 0.812774
218 1 2.31154 2.7121 2.43066 0.483828 0.712796 0.463887
219 1 0.19913 4.88087 0.506592 0.856012 0.797722 -0.0616818
220 1 1.07596 1.44549 0.569105 -1.94435 0.0531683 0.00448445
221 1 5.50737 7.86213 6.65626 0.200432 -1.59 0.609196
222 1 4.48823 6.05293 1.17668 -0.100786 0.782439 -0.215997
223 1 3.77411 1.57637 8.82427 1.48934 1.01688 -0.124203
224 1 6.14781 5.30163 4.49044 0.345692 0.312245 -0.39177
225 1 2.37478 3.02477 8.2743 -0.566657 0.333218 0.607842
226 1 3.61664 2.52964 5.64839 -0.877548 0.498091 -1.19705
227 1 7.07094 5.34238 5.0431 -0.763211 -0.550999 0.447249
228 1 6.92548 0.479467 7.28798 -0.122191 0.136493 2.2554
229 1 8.91151 2.33461 7.51997 0.938686 -1.6395 -0.976046
230 1 7.39896 1.33761 7.81628 0.647261 -0.330688 0.564771
231 1 6.41772 4.99968 7.53244 -0.890292 0.0116649 -0.551883
232 1 5.46646 4.66018 7.93253 -1.15759 1.23493 -0.581634
233 1 8.7142 9.02288 2.84504 0.532214 1.72596 -1.23351
234 1 5.24509 9.12266 3.99079 0.858028 0.19601 -0.766652
235 1 7.27031 8.31894 0.652694 -0.590722 0.21254 -0.402736
236 1 8.64193 3.61176 4.59746 -0.118524 0.823269 -0.0247232
237 1 7.42186 2.29346 3.56735 1.14267 -0.108778 -0.465687
238 1 7.4059 1.34228 6.78002 -0.481064 -0.577776 -0.826128
239 1 6.14662 5.63558 5.51712 -0.111599 0.267863 0.822666
240 1 9.27787 1.65307 0.394734 0.181597 0.352606 -0.123556
241 1 3.07042 4.26131 3.12525 0.797464 -0.445313 -0.38712
242 1 4.10919 3.63106 7.44999 1.11883 0.94841 -0.0116441
243 1 6.3736 8.12325 3.99204 0.876439 -0.950505 0.778829
244 1 6.96329 4.4167 4.15136 1.23359 0.933784 0.202725
245 1 6.36108 4.11202 1.46721 0.255692 1.25369 0.83401
246 1 8.46273 1.07273 3.97485 0.133794 0.874552 -1.03553
247 1 6.27713 3.18317 0.926678 0.572823 0.557817 1.5054
248 1 5.15615 8.20972 5.68875 0.126436 -1.4934 -1.22919
249 1 5.30317 4.95154 5.1552 -0.848792 0.690083 1.33042
250 1 5.32089 4.64904 4.03776 -1.21115 1.28712 -1.06129
251 1 7.20639 2.6804 4.668 0.89094 0.347493 0.168008
252 1 8.60738 5.93868 4.76694 1.01817 -0.149971 0.890284
253 1 2.37646 7.93129 2.20224 -0.186614 -0.289153 -0.285144
254 1 5.66951 3.14146 0.0483245 -0.0226723 0.161435 0.0624125
255 1 5.06234 4.58665 1.58256 0.215552 -1.16253 0.512567
256 1 1.2902 3.67729 9.29326 1.33371 -0.202973 -1.31608
257 1 8.09633 8.615 3.74444 0.654446 -1.79882 0.302328
258 1 3.71187 6.94453 2.71222 -1.4706 -0.591678 0.193492
259 1 4.50245 3.81664 4.26546 -0.886798 1.32548 -0.457074
260 1 3.63785 4.31988 2.24386 -0.537096 1.67317 0.394096
261 1 0.639108 6.81302 8.65553 -0.834899 -1.30412 1.28748
262 1 6.1909 0.816537 8.76659 0.201081 -1.10061 -0.732906
263 1 7.66916 4.45671 5.12546 -0.0654074 -0.320179 -0.213559
264 1 6.60831 4.5664 5.50076 -1.12643 -1.00661 -0.577044
265 1 3.75541 3.12432 0.481 1.35127 -1.58266 0.226528
266 1 9.17638 5.53842 9.18479 -0.773619 -1.01621 0.421977
267 1 6.08583 2.63129 1.94369 -1.18452 -1.405 -0.0815153
268 1 7.24957 1.15418 8.87902 0.830145 0.0259528 -0.71994
269 1 1.62826 6.08283 1.6034 0.276964 0.435165 0.180484
270 1 0.536533 8.64684 2.87443 -1.66896 0.0411019 0.206006
271 1 1.65525 7.64621 0.494807 0.151899 1.64206 0.366212
272 1 2.13865 3.22812 0.470059 -0.226251 0.0312117 0.197673
273 1 8.7874 4.74047 3.81451 -0.147791 0.0741513 0.0789672
274 1 4.37196 2.64496 7.79635 0.0579094 0.950139 -1.40264
275 1 5.4193 9.334 1.0853 -0.370842 -0.43912 0.468675
276 1 8.76135 9.07925 8.79119 0.10737 0.276099 -0.818399
277 1 6.46833 2.07755 2.90021 -0.470741 -0.597859 -0.0484686
278 1 2.89208 2.9454 4.48683 -0.382027 -0.623425 0.512954
279 1 0.36934 3.50345 8.77899 0.487933 -0.377522 -0.457292
280 1 3.53974 0.703561 8.34927 -2.43901 0.297018 0.420914
281 1 4.15647 9.09733 2.54646 0.175659 0.230697 -0.357981
282 1 0.47447 8.17621 3.87692 0.360416 -0.813014 0.167449
283 1 1.7958 7.92537 6.28896 0.328096 -0.0624068 -1.58029
284 1 6.6574 6.33588 4.10906 -0.322648 -1.28126 1.08489
285 1 9.15862 1.14869 5.53617 -1.90428 1.42161 -0.65173
286 1 1.92467 0.218621 6.77403 -0.118485 -0.283587 0.447492
287 1 4.43005 9.0631 6.1089 0.27861 0.498061 0.343161
288 1 1.86944 7.20626 1.51039 -0.0319192 -0.185304 -0.333987
289 1 7.68028 2.63508 1.37166 -0.652163 -1.55133 -0.0430166
290 1 5.33885 3.70045 6.59738 -1.17575 0.208213 -0.141899
291 1 8.07606 3.14783 7.76492 0.654976 0.64359 0.918124
292 1 7.48493 3.15938 7.02506 1.97701 -0.135948 -0.74459
293 1 8.45671 3.74728 3.41502 0.0230525 -1.66565 0.344224
294 1 9.21352 4.25358 6.62963 -0.555209 -0.309195 0.828209
295 1 5.48306 2.75235 7.00977 -0.00211544 -0.116016 -1.63497
296 1 7.9701 7.53675 0.738402 1.3261 -0.210448 -0.215677
297 1 0.0539781 5.93267 5.49627 1.47587 0.3621 1.36962
298 1 0.786933 4.63102 5.16012 -0.402398 -0.131651 0.209818
299 1 3.69596 0.90176 7.15654 1.12822 0.269282 0.261106
300 1 0.871819 0.816735 3.96781 -0.185054 0.267057 -0.224534
301 1 5.46506 9.12937 7.86095 -0.359774 -0.832251 -0.47722
302 1 7.94598 0.202772 4.03214 1.21699 0.279813 0.915339
303 1 3.35387 3.87894 5.07128 -0.530781 -0.340359 0.108618
304 1 1.14529 6.06384 9.23932 0.63303 -1.22952 -0.135611
305 1 4.00162 8.20715 7.96548 -0.88141 -0.243602 0.263286
306 1 1.888 8.24101 1.29579 -0.0832366 -0.0218276 0.0172608
307 1 5.69672 0.462817 4.81624 0.0164202 -0.00979826 0.982431
308 1 2.33176 7.75948 8.85777 -0.07798 -1.47579 1.2338
309 1 9.23096 6.53583 7.2545 -0.918407 1.13894 0.639733
310 1 8.06622 7.21101 3.42351 -0.885876 -0.681598 -0.279156
311 1 0.756565 7.55016 1.15769 -0.432972 0.203406 -1.18828
312 1 5.34684 6.57509 0.636413 0.104797 0.000638687 -0.106691
313 1 4.81493 6.81292 4.21074 0.132146 -0.395625 1.19595
314 1 7.11318 0.448378 1.56317 0.122082 0.231394 0.0754843
315 1 3.86336 5.5728 7.72315 0.575781 -0.580473 -1.81881
316 1 9.17521 4.33044 8.97246 1.10441 -0.227919 1.34174
317 1 7.81333 6.09589 4.1401 1.1624 0.045015 0.463624
318 1 9.37691 3.26223 3.65776 -0.261131 0.587202 -0.172314
319 1 2.5563 1.74802 2.05694 -0.368515 -0.607783 0.438255
320 1 3.55443 8.7143 3.46171 0.0274905 -1.02943 -0.0624188
321 1 0.489746 2.5466 0.443729 -0.096924 -1.69076 -0.436094
322 1 3.76992 9.19677 7.64891 0.868323 0.763104 -0.280799
323 1 0.0968317 2.28642 1.3587 -0.55824 -0.531263 -0.501234
324 1 2.45376 6.78417 8.51961 -0.0836977 -0.516204 0.50026
325 1 8.30765 6.67034 0.372036 0.346873 -0.264863 0.0267442
326 1 4.43364 2.23596 4.01231 0.680837 0.978621 0.889023
327 1 2.40962 2.49149 1.11374 -0.264295 -0.407739 -0.38354
328 1 7.64279 3.52634 4.2159 1.49019 -0.48806 -1.48893
329 1 9.13515 9.21452 0.369747 -0.304876 -0.207363 0.857538
330 1 4.52534 3.58875 1.20017 0.202742 0.408291 0.723288
331 1 0.907413 0.0982507 6.1216 0.135518 -0.131356 0.428002
332 1 1.9781 2.58874 6.88063 -0.763411 0.59105 0.529762
333 1 0.536013 3.2015 1.31521 -0.0386999 -0.38699 -0.798005
334 1 2.81211 5.79118 5.90092 -0.339179 0.154874 -1.44182
335 1 8.1269 5.65936 0.198298 -0.721681 0.77425 0.345919
336 1 7.07232 5.40736 3.86646 -0.261343 0.949422 0.494089
337 1 8.94761 0.620876 2.46411 -1.48489 1.8683 -0.771591
338 1 5.23676 1.44699 5.29518 0.999043 -1.51173 0.871374
339 1 6.86321 5.98325 1.37466 -0.222262 0.498909 0.100354
340 1 3.59429 7.27242 7.21052 0.314103 -0.192941 0.371213
341 1 5.68141 7.24759 8.62325 -0.393904 -0.0994635 1.28011
342 1 0.0765193 2.13375 5.92643 -0.103614 1.74371 -0.463745
343 1 4.71156 8.6283 3.28261 1.27786 -1.1604 1.33965
344 1 1.45433 4.77766 7.74838 0.652533 -0.283878 0.406811
345 1 9.26301 4.99593 5.89942 0.549966 1.41476 -0.519835
346 1 8.74016 3.39875 9.24642 0.471717 0.349214 -0.349884
347 1 7.07269 5.32579 8.2988 -0.32791 0.259851 -0.974806
348 1 7.02935 0.467514 3.42933 1.11814 -0.34687 -1.1381
349 1 3.93636 2.92591 1.84355 -0.79326 -0.864243 -1.01162
350 1 1.72333 3.16132 5.98291 0.850189 0.759876 0.0326454
351 1 5.96141 0.161579 0.18287 1.40507 1.17062 0.347024
352 1 5.9151 5.84588 7.1876 -0.619008 0.157464 0.106371
353 1 9.28991 6.9027 6.1607 1.17597 -1.24717 0.840141
354 1 1.56368 6.67662 8.04218 0.490243 1.06402 -1.05672
355 1 8.92139 8.02093 3.43774 -0.769376 -0.0923739 0.736406
356 1 6.82078 2.83932 5.64929 1.02985 0.136988 0.14241
357 1 1.21178 5.8005 6.05606 0.65615 -0.671513 -1.42815
358 1 4.68316 2.7745 6.06026 0.0228132 -0.512992 -0.181131
359 1 0.72123 6.18354 7.78901 0.329562 0.455135 -0.470298
360 1 5.985 1.86846 1.02843 0.290306 -1.14965 -0.134957
361 1 7.57277 0.346163 6.42469 -0.848013 0.795047 1.66156
362 1 1.81278 8.99611 5.96746 0.905081 -0.384608 -0.307389
363 1 0.197867 5.87933 1.73259 -0.731983 -0.648442 -0.188617
364 1 9.15011 2.29048 3.40352 -0.803415 0.599143 0.67092
365 1 4.50595 6.13009 8.45422 -1.26801 0.130451 -1.0945
366 1 2.96529 0.784711 1.96585 -1.04327 0.573422 -0.373774
367 1 9.19243 3.25472 6.24763 -0.209975 0.172041 1.11411
368 1 3.81778 6.98402 4.7772 0.190705 0.403838 -1.50598
369 1 9.03881 8.13769 2.41096 0.512325 1.17294 -0.770481
370 1 1.65394 1.71398 2.56601 -0.815747 -0.597044 0.135541
371 1 0.328246 0.0534461 4.45572 -1.06491 -0.179048 0.694237
372 1 5.72712 3.94057 5.64669 1.42147 0.410053 -0.161865
373 1 6.81801 1.68326 5.96831 -0.463528 0.431674 0.347045
374 1 7.92408 0.947736 1.91932 0.0885726 -0.268215 0.160661
375 1 3.08027 7.12387 9.32297 -0.10336 -0.152254 -0.253478
376 1 5.01993 4.40424 0.57057 -0.075454 0.760478 -0.737712
377 1 5.03098 8.22901 7.92626 0.795212 0.164951 -0.756332
378 1 3.20635 5.94855 2.33917 0.0101294 1.22988 -0.251156
379 1 8.41206 6.42691 2.72512 -0.400923 0.311672 -1.3123
380 1 8.3334 4.98556 6.73778 0.0846145 1.50754 -0.565271
381 1 3.49249 3.13536 8.12039 0.0568094 0.93823 0.600099
382 1 4.86238 0.561375 5.52192 0.0447155 0.840385 0.861006
383 1 2.48796 9.04601 1.99359 -1.35133 0.330597 -0.558034
384 1 3.8994 9.35972 5.27112 0.0604657 -0.214346 0.273804
385 1 4.777 7.01007 9.2217 0.161006 0.235793 0.832161
386 1 4.31697 8.78048 4.2053 -0.501248 0.268672 -0.773442
387 1 0.189747 2.74329 2.31385 -0.51115 -0.434326 -0.333155
388 1 3.21376 0.536427 0.985273 -1.35709 0.526292 -0.0967507
389 1 6.10772 1.61956 6.87773 -0.139598 0.263635 0.178544
390 1 2.32521 4.91029 3.98514 -1.43846 0.248353 1.05929
391 1 7.35494 7.91931 3.59423 0.515468 -0.0245466 0.694754
392 1 2.87759 5.95712 0.323306 -0.36085 -0.78663 0.226254
393 1 4.67285 0.448018 4.54787 -0.652009 -0.824052 0.0639307
394 1 3.40158 3.78221 4.04798 0.765101 0.820609 -1.281
395 1 6.77 1.66225 1.84938 1.00658 0.994868 -0.0214303
396 1 3.04522 2.27551 8.57825 0.200006 1.3219 -0.407125
397 1 6.05494 5.61849 3.439 -0.347634 -0.583205 -0.842419
398 1 8.25223 4.7567 9.15429 1.31713 0.625741 -0.505014
399 1 7.38442 1.37133 3.86008 -0.532837 -1.58362 -0.384362
400 1 8.76255 4.60763 4.86276 0.0599493 -2.1885 -0.212073
401 1 5.57441 6.03299 9.14932 0.582905 0.511954 -0.6788
402 1 1.098 4.88334 4.17848 0.50186 0.508238 0.890066
403 1 9.00021 3.56131 2.57559 0.70391 -0.485877 0.830148
404 1 1.89105 0.556439 2.15762 -0.294099 -0.153359 0.182255
405 1 1.91847 5.07974 6.40098 -0.390981 -0.435181 -0.774023
406 1 5.13536 1.03811 1.11447 0.241754 1.85864 0.471018
407 1 5.92444 8.53056 3.10395 0.090577 -0.100375 0.961305
408 1 1.7178 1.65595 1.37462 0.544876 -0.836565 0.261987
409 1 8.92069 6.92758 5.19486 1.09182 0.190078 1.09636
410 1 5.14602 4.27911 8.88505 -0.21727 1.3468 0.334591
411 1 5.56309 3.22314 2.52799 -0.0745346 -0.802541 0.840762
412 1 2.94379 5.30366 3.21897 0.154226 -0.0608601 0.738688
413 1 1.32158 8.20498 8.88787 -0.778989 -0.629061 0.888306
414 1 8.06937 8.23242 1.5558 -0.235373 -0.196626 1.31945
415 1 7.92228 8.28504 9.14084 0.938139 -0.0242404 0.294187
416 1 8.60532 8.40777 0.577177 1.57451 0.190948 0.778068
417 1 8.69349 2.76806 1.68975 -0.626635 -0.284373 -0.25212
418 1 5.78089 1.77988 8.55632 0.459327 0.449277 -0.0259908
419 1 2.1968 2.70262 3.79903 -1.19528 0.147816 -0.268324
420 1 8.24401 5.66401 8.55952 0.484633 0.0182178 -0.45613
421 1 2.06704 8.70138 8.17542 -0.159972 -0.706765 0.4678
422 1 6.36905 1.1963 3.47345 -0.903549 1.14362 -0.312244
423 1 7.05853 4.89752 1.4052 -0.391518 -0.900803 -0.246228
424 1 4.10724 3.2647 3.44935 -1.48804 -0.829838 0.0925431
425 1 7.60081 4.51533 3.34341 -0.122949 0.670922 0.439
426 1 0.466633 2.57563 8.12026 -0.927108 -0.0803567 -0.481444
427 1 7.91067 3.48626 2.20467 -0.249113 -0.170002 -0.0874558
428 1 1.40925 8.19635 3.12547 0.97032 0.589834 -0.126667
429 1 6.24758 2.32926 7.71182 0.902832 -0.793202 0.417481
430 1 8.26159 1.78661 3.20085 -0.479929 -0.901403 -1.33162
431 1 9.33528 5.41677 7.17477 0.363075 0.196965 0.591384
432 1 1.28319 7.6631 2.19219 -0.716952 1.28953 0.469065
433 1 7.77045 3.4256 5.20935 1.27456 -1.1008 0.729197
434 1 8.41087 2.74701 2.77107 0.734338 -0.00334935 1.03487
435 1 7.11006 8.08902 4.78212 0.599637 -0.529908 -0.604659
436 1 0.351682 7.7257 8.38756 0.771112 -0.2744 -0.0668011
437 1 2.59441 4.35916 2.00729 0.155782 -0.765659 0.0585186
438 1 2.67443 6.98171 2.16689 -0.653973 -0.0161313 1.34819
439 1 4.53563 2.1337 6.8718 -0.40604 -0.741319 -0.0172518
440 1 2.12683 0.662798 1.1553 -0.370498 -0.208879 -0.319022
441 1 5.37767 2.76943 8.40586 -0.0693126 0.583267 1.02232
442 1 2.85774 9.35434 7.12678 0.454688 -0.585665 0.743693
443 1 1.35936 3.91847 1.13617 -0.695877 0.99128 -0.0265082
444 1 8.15397 4.00502 7.02742 -0.0300205 0.360153 0.178549
445 1 0.376608 8.12682 7.12807 0.262383 -0.0927669 -0.331577
446 1 8.17136 2.08083 8.29543 -0.48482 -0.185184 0.220641
447 1 8.99407 3.89702 1.52872 1.06138 -1.2761 0.632855
448 1 0.517242 7.64298 2.87106 -0.189528 0.508472 0.588734
449 1 5.54438 1.10238 2.87306 0.112013 0.716569 -0.722225
450 1 2.38593 9.05472 0.823395 -1.28929 -0.750595 -1.25124
451 1 8.96345 4.51117 7.59068 -0.429412 -0.196509 -1.16299
452 1 9.22819 6.95537 2.20863 -0.546371 0.393744 -0.343872
453 1 4.60254 1.27271 0.163544 -0.136614 0.162639 -0.488072
454 1 2.58929 6.43692 1.3332 0.395393 -0.51438 0.284255
455 1 2.62004 8.08237 4.35901 -0.470361 1.24898 0.333238
456 1 2.08383 5.52415 7.41407 -0.0452648 -0.380177 -0.48469
457 1 6.83709 3.70504 4.90006 1.2774 0.146343 0.281807
458 1 0.982655 8.37773 5.77765 0.34299 -0.0542668 -0.306528
459 1 6.9332 1.68337 4.88355 -0.21998 -1.65565 0.502245
460 1 1.07592 2.67689 5.37551 -0.224033 -1.42517 -0.217228
461 1 9.39191 3.00172 5.25221 1.18159 -0.452377 -0.346421
462 1 6.6586 6.79548 1.98145 0.921143 -0.900284 -0.146298
463 1 1.60891 2.40468 0.464994 1.15266 0.851706 0.254667
464 1 0.244293 8.27234 0.686144 0.171905 -1.53975 0.282832
465 1 8.44671 7.08289 6.77837 0.269807 -0.113638 0.027222
466 1 1.3023 9.31817 7.69557 0.361358 0.625056 0.947942
467 1 4.72513 1.91977 8.65462 -0.205756 -0.152422 -1.80916
468 1 7.60439 6.99172 6.20733 0.226882 -0.306506 -6.12849e-05
469 1 9.09426 2.08864 4.86961 0.884584 1.17526 -0.173411
470 1 9.26334 7.55082 4.49516 0.813481 0.566638 0.279399
471 1 0.469574 9.16233 1.20816 -0.399848 -0.0502129 -0.458184
472 1 8.48033 2.6175 5.43486 0.32509 -1.0794 0.491031
473 1 6.42445 4.30257 6.45854 -0.70078 -0.535711 -0.440944
474 1 2.71111 8.54694 6.43645 -0.24782 0.456393 -0.464495
475 1 8.76112 0.398547 1.28389 0.529443 -1.15675 0.971107
476 1 2.38617 4.49122 7.2781 -0.768429 -0.673534 -0.21254
477 1 1.18675 9.04207 5.06516 0.298786 -0.470008 0.971097
478 1 4.56308 7.12596 0.84531 -0.119205 0.209739 -0.0876347
479 1 0.570314 4.46766 7.23742 0.130686 -0.220017 -0.68353
480 1 1.22315 6.67916 0.765924 1.01703 0.264648 -0.473102
481 1 5.41762 2.20087 2.71268 0.123356 -0.984236 0.264702
482 1 4.55088 3.59241 2.40452 -0.447127 -0.289354 0.348056
483 1 2.97126 5.68314 7.02914 -0.0663003 0.278888 -0.102844
484 1 2.32406 0.99636 2.91443 0.707563 -0.0637708 1.49227
485 1 9.10483 6.20917 8.32867 -0.252877 0.308826 0.474486
486 1 7.22819 7.39841 0.0796932 0.595349 0.243331 0.3528
487 1 8.0301 8.05581 6.33201 -0.0863121 1.07789 0.793495
488 1 8.89482 5.90861 6.38585 -0.340937 -0.967441 0.711294
489 1 8.29968 0.40054 7.9568 0.60385 -0.0278779 -0.607344
490 1 5.53916 0.471615 2.02785 0.0565477 -0.482788 -0.657054
491 1 4.2148 8.46923 1.76563 0.0535095 -0.163311 0.450948
492 1 3.21904 2.38526 2.58135 0.303929 -0.644861 -0.559659
493 1 0.835935 4.80165 6.30033 0.374105 0.147338 0.575738
494 1 4.34146 1.7326 5.90756 -0.909958 -0.645991 0.773936
495 1 2.52219 1.91052 4.35229 -1.18598 -0.252734 -0.601627
496 1 2.95919 2.54846 7.42035 -0.492831 -0.211551 0.0427971
497 1 2.07011 3.48228 7.43824 -0.441318 0.187349 -0.0113684
498 1 1.15547 2.56153 3.65351 0.367674 1.04054 -1.13813
499 1 4.50181 9.09754 8.4188 0.384423 -0.11459 0.193478
500 1 6.43498 1.21458 7.84985 -0.420094 -0.411107 -0.262723
501 1 4.93112 5.41074 3.40296 -0.130773 1.25103 0.713836
502 1 9.38799 1.5858 6.83254 1.76788 -0.384764 0.654406
503 1 5.92011 0.333122 7.14277 0.468872 -0.149942 -0.0566201
504 1 6.90788 6.22025 6.78488 -0.0343066 -0.144318 -0.358292
505 1 4.97897 4.53933 5.99384 -0.960217 0.0869268 -1.29775
506 1 9.1917 6.9981 3.34704 0.160445 0.28058 1.31341
507 1 9.12797 1.85804 2.4212 0.0925545 -0.723096 0.33199
508 1 6.1388 0.882995 1.31805 0.567905 0.0492578 -0.725532
509 1 5.39965 0.992567 8.0142 -0.316016 0.417693 -0.0911863
510 1 1.75237 6.54208 2.56404 0.288239 0.419894 -0.209424
511 1 7.99135 0.526339 2.98803 -0.153155 0.363226 0.848574
512 1 8.63905 4.65976 2.73026 0.192848 1.4851 0.70839
513 1 8.47503 5.51864 2.16775 -0.713895 0.0513055 -0.418943
514 1 0.0234079 5.23486 8.20287 -0.450332 0.425805 0.413259