ITEM: TIMESTEP
33350000
ITEM: NUMBER OF ATOMS
1000
ITEM: BOX BOUNDS pp pp pp
0.0000000000000000e+00 9.4000000000000004e+00
0.0000000000000000e+00 9.4000000000000004e+00
0.0000000000000000e+00 9.4000000000000004e+00
ITEM: ATOMS id type x y z vx vy vz
1 1 0.745017 3.66663 0.0986325 0.658298 -0.00295098 -0.814749
2 1 7.10054 6.52347 1.22308 -0.207659 0.324543 0.10116
3 1 3.68148 3.68421 1.99703 -0.396043 0.478208 -0.324358
4 1 8.45861 7.28929 6.49084 -0.740255 -0.673586 0.958712
5 1 2.13016 0.386693 4.14101 0.32609 0.0403565 -0.461225
6 1 6.37021 7.88725 8.51016 -1.61935 0.563752 0.639431
7 1 0.317308 6.2964 0.219684 0.0213532 -0.371191 0.441542
8 1 4.66241 1.09487 6.72304 0.643125 -0.743411 0.771115
9 1 2.06609 5.72928 5.55053 -0.935126 0.195106 -0.113182
10 1 0.823487 7.08106 8.66735 0.204822 -0.187598 -1.06162
11 1 6.30248 0.803875 4.13306 0.71135 -0.532411 -0.526791
12 1 0.258109 1.37765 1.71955 1.0938 0.479606 1.14035
13 1 1.54828 2.00045 0.94502 -0.699616 -0.469831 -0.929053
14 1 4.63121 5.4407 2.08197 0.0942769 0.314829 0.316263
15 1 6.42082 2.90622 0.513927 0.053469 -0.10212 0.170691
16 1 1.24663 0.959624 6.84775 -0.487075 0.49472 0.0411247
17 1 8.20982 2.71554 0.99104 0.154446 1.58079 0.558156
18 1 6.45246 6.79481 8.58741 -0.405297 -0.23872 0.262356
19 1 4.81267 3.69431 8.90664 -0.384439 0.598373 2.41163
20 1 6.41602 4.61652 6.85756 0.316752 -0.0174106 0.353979
21 1 8.53016 1.69168 4.0278 -1.23117 0.697903 -0.365368
22 1 3.41384 2.84555 5.84821 -0.675587 0.43353 0.762228
23 1 4.84216 1.16161 8.60863 -0.509225 -0.649558 0.276652
24 1 2.14243 3.26412 6.52533 0.184903 -1.24011 0.0369631
25 1 6.95322 0.816109 6.95905 0.769659 -0.606355 1.01352
26 1 0.566861 4.14556 2.74089 0.0673822 0.497944 0.937029
27 1 9.27169 7.46481 1.82464 -0.404979 -0.690269 0.403278
28 1 4.35933 3.45466 2.88271 -1.05986 0.320142 -0.669054
29 1 1.25982 3.9359 6.40739 0.741844 -0.139882 -0.388466
30 1 0.619707 1.96653 6.71385 -0.353437 0.356402 -0.447664
31 1 2.34262 3.278 2.24034 -0.0412119 -0.507855 -0.0901079
32 1 7.74974 5.65569 6.08541 0.298882 0.969708 0.653569
33 1 1.27308 8.9588 9.03741 -0.421952 0.595852 0.605309
34 1 6.42773 9.10567 3.6335 -0.552152 -0.820222 0.381789
35 1 0.362612 0.833143 3.37229 0.304149 0.285408 0.495541
36 1 3.47419 7.48998 2.38983 0.11245 0.835742 -0.276243
37 1 5.02563 9.09603 8.93047 0.604769 1.3018 0.87586
38 1 2.34788 6.56994 3.05479 0.010796 -0.477599 -0.149555
39 1 0.942413 0.147369 8.18609 0.615557 -0.641037 0.443219
40 1 6.96651 1.40015 0.459751 -0.148248 -1.20199 0.0484746
41 1 8.04205 6.60272 5.51101 -0.308681 0.359328 0.00135067
42 1 1.00262 0.371496 4.13458 0.0370696 -0.416175 0.132666
43 1 0.480525 1.27336 8.49569 -0.104829 1.32631 -0.787083
44 1 2.64356 2.92121 5.14836 0.335643 -1.03083 0.000805755
45 1 4.75102 3.34904 5.1158 -0.0203068 0.185204 0.353922
46 1 2.83164 3.42252 4.22258 0.0916354 0.463243 -0.274476
47 1 1.74137 5.90574 9.13282 0.103897 -0.577758 0.0593446
48 1 5.95385 4.83427 3.16932 -1.02548 1.41689 0.763337
49 1 3.74685 5.22442 6.94592 -0.32436 0.368032 -0.697487
50 1 1.03647 8.36881 3.31622 -1.10011 0.743298 0.330654
51 1 1.10128 5.43522 3.61979 -0.675976 -0.403631 0.797016
52 1 3.5179 0.900079 1.61548 -0.158715 -1.00663 -0.148457
53 1 4.02658 1.1806 4.54445 1.16105 0.440921 -0.788141
54 1 7.21823 7.45689 7.95586 0.417537 -0.429428 0.853812
55 1 1.059 5.61711 7.52181 1.80398 0.47057 0.223472
56 1 1.77794 4.70563 0.428787 1.11458 0.516005 -0.474506
57 1 8.6534 8.2042 6.92596 1.06708 -0.284389 -0.0104454
58 1 9.16109 7.06412 9.14084 -0.888612 0.622024 0.971282
59 1 8.51488 9.0202 5.53724 1.43237 0.620534 -0.510115
60 1 1.68709 8.41268 1.68939 -0.115836 -1.59609 0.170311
61 1 3.65224 1.80285 2.47142 0.1301 -0.667556 -0.899311
62 1 0.761493 8.41722 0.38754 0.831794 0.0996597 -1.04008
63 1 6.79098 8.17552 6.45805 0.590632 0.345512 0.223317
64 1 8.10354 6.90333 9.20055 0.416859 -0.766704 1.46177
65 1 7.88143 1.24801 4.76385 0.256293 0.87015 -0.646016
66 1 3.36421 6.21125 6.95892 0.533333 -0.313486 0.0935809
67 1 3.16218 9.02924 1.22567 0.833998 0.791926 -0.741479
68 1 4.2939 6.24289 1.02382 -0.916537 -0.57424 0.509432
69 1 6.36526 3.84718 3.0742 -0.29604 0.0903245 0.466304
70 1 6.8841 3.32836 4.00657 0.579054 0.0831745 -1.06106
71 1 8.34609 4.35523 0.341516 -0.849175 0.391558 0.0737218
72 1 6.99054 0.526754 5.18455 -0.132279 -0.174911 -1.02232
73 1 3.44785 7.02724 6.19851 0.464803 0.247944 -0.960015
74 1 7.30718 0.363002 4.21419 0.277755 1.04068 0.448292
75 1 8.12775 0.0919606 8.44826 -1.03039 1.10209 -0.0152883
76 1 6.91931 3.30005 1.41424 0.795582 -0.910659 -0.173306
77 1 1.25049 3.18234 3.60465 -0.0494681 0.300919 -0.585145
78 1 3.57862 6.7031 1.56157 0.0409061 1.03533 0.428812
79 1 5.61356 0.501717 8.77572 -1.45995 -1.48966 0.798344
80 1 9.21973 5.69255 7.67756 -0.657268 -0.124656 -0.269325
81 1 4.03192 8.21978 4.50806 0.474798 -0.168276 0.410457
82 1 5.84521 1.11944 4.99413 0.248042 -0.00895908 0.38574
83 1 4.69661 7.009 3.90853 0.0572922 0.808464 -0.351048
84 1 1.02339 7.73316 7.25533 0.757755 0.344671 -0.675654
85 1 2.53754 2.25831 0.714197 -0.936634 1.33649 0.602248
86 1 4.21153 5.22138 1.07293 0.25702 0.0620205 0.500865
87 1 5.8751 3.02006 3.72152 1.32391 0.971693 0.657451
88 1 8.66023 2.67077 7.72404 0.308981 1.0832 -0.31039
89 1 9.25736 3.55054 2.4157 0.0971406 0.086791 0.929331
90 1 7.39288 4.08203 3.2463 1.14092 0.440274 -0.101711
91 1 1.13418 5.66029 6.29773 0.811619 -0.85866 0.349299
92 1 7.08202 6.4267 7.87334 0.521113 -0.771844 -0.338167
93 1 2.98475 7.95976 4.09129 -0.58334 -1.00339 -0.404983
94 1 8.84059 7.92998 2.69577 0.496263 -1.21419 -1.35201
95 1 2.79006 5.35728 2.37768 -0.00187598 0.486304 -0.148914
96 1 2.56898 1.48548 8.39259 -0.316333 0.0146981 1.97084
97 1 2.27879 2.19845 1.80318 -0.244926 -0.497349 -0.717686
98 1 4.16879 0.921171 2.40042 -0.871588 -0.87219 -0.744464
99 1 3.49326 1.81326 5.32378 -0.854474 0.113827 -0.637005
100 1 6.43814 8.10385 4.20481 0.0432348 0.177219 -0.530974
101 1 4.52145 6.65669 1.95081 0.252085 0.307111 -0.673452
102 1 6.68231 1.26946 3.07107 0.336525 -0.795784 -0.190356
103 1 9.21374 8.40796 1.34851 -0.395553 0.151093 -0.856614
104 1 3.15397 8.25909 9.14823 0.44344 1.36744 -0.785
105 1 7.2391 6.56996 6.2319 -0.972151 0.245065 -0.218747
106 1 7.90681 1.89211 6.45644 0.641375 -0.383422 0.339339
107 1 6.56057 7.94978 1.24387 0.672992 0.856737 -0.0601129
108 1 8.39725 1.61265 7.42981 0.905028 0.43406 1.35384
109 1 6.15778 4.16242 4.04612 -0.0596388 -1.88683 -0.326003
110 1 8.89394 4.92118 6.45567 0.394407 0.828324 -0.935668
111 1 3.63714 7.0015 0.578172 1.12358 0.280131 -0.439508
112 1 4.20446 0.290795 8.60554 0.431229 0.799095 0.0254566
113 1 2.96563 3.6938 9.02584 -1.52155 0.852216 0.0295035
114 1 3.66373 7.08146 4.17974 0.331511 -0.0160277 -0.519194
115 1 3.36914 0.75492 5.09488 0.273057 -1.36283 0.769124
116 1 4.98422 5.21674 7.4425 0.118036 0.0039571 0.911002
117 1 7.86706 5.87985 1.47768 -0.0191003 -0.143152 0.172366
118 1 7.42967 1.85742 7.42884 0.562557 -0.894034 -0.710567
119 1 9.29024 6.76927 3.75825 2.08798 -0.470482 0.558338
120 1 3.25197 6.33128 2.55022 -0.152486 0.595012 -0.294956
121 1 5.57797 8.55844 7.12398 -0.52987 -0.685806 -1.1909
122 1 8.36 9.00587 7.62764 -0.498785 -0.108555 -0.108422
123 1 1.73843 0.33258 7.51029 -0.555852 -0.547137 -0.528761
124 1 5.63557 9.18854 6.19532 0.522032 -0.432284 0.298009
125 1 6.25409 4.62463 5.82607 1.22426 0.288595 0.35533
126 1 0.202014 4.99097 1.99461 -0.835907 0.0107075 -0.634894
127 1 1.94701 7.84692 4.7531 0.117618 -0.768486 0.152599
128 1 5.47728 7.23426 8.0337 0.906006 0.724903 0.311279
129 1 4.03443 3.28848 1.07194 0.324351 0.14484 -0.822571
130 1 4.20304 7.05001 7.29927 0.612458 0.203729 0.181372
131 1 0.814061 1.46517 3.98028 -0.493491 -0.845143 0.73814
132 1 7.17382 4.463 4.20638 0.415181 -0.164413 0.571554
133 1 6.16337 7.04036 1.71284 0.320106 1.73776 -0.397199
134 1 4.20531 0.922741 5.71201 -0.565075 0.96273 1.55513
135 1 5.17015 1.3647 4.21683 -0.285297 0.112331 -0.72303
136 1 1.99844 2.33079 8.0776 -0.174908 -0.0934855 0.263938
137 1 2.95541 4.73708 8.76603 0.0543058 -0.999561 -0.23051
138 1 6.32774 2.62204 7.38539 0.919322 0.0942734 -0.267594
139 1 0.222813 7.25007 4.63903 0.3578 -0.918382 -0.670576
140 1 3.82811 5.43187 5.01249 -0.448931 -0.555371 0.378896
141 1 3.78919 8.17706 7.45714 0.996574 0.587593 -0.367015
142 1 1.38196 2.64441 0.157786 -0.411454 1.0992 -0.673326
143 1 3.81964 7.17748 8.96763 0.303641 0.0389226 0.94034
144 1 1.87675 5.28184 6.94543 -0.210748 0.049948 0.0670666
145 1 6.13295 4.32348 8.43756 0.614032 0.0483919 0.581963
146 1 7.14638 0.984347 2.06201 -0.265988 -1.88201 0.715487
147 1 4.06341 7.8113 6.56666 -0.0161578 -0.677856 -0.562293
148 1 4.36348 4.30346 7.57792 -0.660721 -0.744164 -1.99317
149 1 8.97525 6.94988 2.76292 -0.440466 1.02009 -0.473597
150 1 3.62444 0.421462 0.644133 0.176393 -0.537989 -0.352949
151 1 0.518884 7.00627 5.6488 0.923164 0.659261 -0.583907
152 1 4.55985 6.85629 0.204094 0.265042 0.218556 -0.263715
153 1 9.30763 5.298 0.243258 1.0063 0.0887925 -0.373692
154 1 6.36961 4.86958 0.0812455 -0.523591 -0.692112 0.535286
155 1 6.39219 5.76221 2.56727 0.145545 1.05485 0.210871
156 1 4.72054 0.653846 3.36137 -1.59341 0.346219 -0.141211
157 1 6.50143 2.40011 5.5907 -0.708995 -0.369162 0.903286
158 1 5.66991 4.13523 9.33698 -0.835284 1.90273 -1.12419
159 1 1.04247 7.2847 4.02552 1.30803 -0.507718 -1.7921
160 1 6.28527 7.35735 5.74855 0.986623 -0.0400869 0.655754
161 1 0.0316157 4.39157 0.597169 1.21536 0.337369 0.416196
162 1 0.171916 0.801469 -0.00425849 0.644963 -0.103586 -1.52073
163 1 0.339019 4.27055 6.08537 0.182146 0.59236 0.591161
164 1 4.54347 6.00571 3.40565 -0.700357 0.372461 0.126363
165 1 6.66038 0.220093 2.61797 -0.554568 -0.517767 0.252912
166 1 8.72638 5.55829 5.71838 -0.678996 0.774421 0.913804
167 1 5.42752 7.85867 1.56483 -0.857812 0.486418 -0.761226
168 1 6.8256 5.07658 8.55963 0.36018 -0.971949 -0.371623
169 1 3.4533 5.61757 8.11355 1.01837 -0.0211885 -0.344888
170 1 2.26776 1.27215 5.97375 -0.0915872 -0.348707 1.06836
171 1 0.216021 3.3177 3.44561 0.673154 -0.616316 0.0897931
172 1 2.85293 3.35543 0.571722 0.177348 -0.267223 -0.736538
173 1 8.13607 6.83965 8.10278 0.26173 0.847728 -1.6675
174 1 0.774411 3.26284 5.6931 0.203506 -0.703182 0.764038
175 1 6.88969 8.17706 3.25889 0.0929663 0.812085 0.253962
176 1 1.83352 2.0733 6.58402 0.209483 0.399612 0.153915
177 1 4.2385 9.00682 0.181352 -0.308879 0.289663 0.731447
178 1 9.03008 6.55603 6.13589 -0.494578 0.161329 -0.436991
179 1 5.51403 8.63626 3.46923 -0.0905806 -1.23821 0.588576
180 1 1.19436 1.17964 4.91369 -0.244004 0.0827427 -0.234498
181 1 7.70243 7.74303 0.522813 0.707197 0.806246 0.266799
182 1 3.19266 0.750513 2.61078 -0.0754501 -0.270769 -0.518684
183 1 1.70063 7.39579 7.95913 0.436546 0.383024 1.48187
184 1 3.86801 3.59629 8.3231 -0.0971394 1.04202 -0.451785
185 1 2.62466 6.91926 8.1686 0.959746 0.918427 0.17727
186 1 1.85368 4.71518 4.9928 0.33678 0.387834 -1.69545
187 1 1.60065 3.11846 8.62888 1.02802 -0.996621 0.37653
188 1 2.70856 6.09615 1.59428 1.44841 -0.622582 0.584062
189 1 1.795 3.77822 4.37596 1.26758 -0.606487 0.382963
190 1 7.64134 5.52495 2.44651 0.608176 1.06046 -0.187118
191 1 5.48671 5.32059 9.1089 0.834434 -1.27818 0.300099
192 1 0.993198 5.31627 8.4833 -0.364724 -0.236121 0.486793
193 1 2.51044 6.68928 6.62612 -0.700531 -0.885683 0.316585
194 1 3.88091 3.49335 0.0367205 0.513207 -0.355201 0.104722
195 1 0.644501 8.01672 2.3065 0.141572 -0.116777 -0.06942
196 1 2.65729 9.33722 3.2324 0.0214517 0.490448 1.13459
197 1 2.80343 5.56663 6.4359 0.0184008 -0.99573 -0.752467
198 1 2.81827 4.39664 0.428087 -0.177334 0.237142 -0.382018
199 1 1.62595 6.6805 6.09526 -0.639065 -0.461667 0.392002
200 1 2.8753 9.15561 6.57628 -0.354952 -1.28222 0.0325703
201 1 9.29438 7.88582 0.410231 -0.901731 1.30323 -0.322117
202 1 8.90603 2.6557 4.04926 -0.240011 -0.78743 0.983103
203 1 3.19631 7.29425 7.30096 -0.258541 -0.0726754 1.958
204 1 4.13933 3.70776 5.84974 0.822269 0.982642 0.0967066
205 1 7.62018 7.514 5.90899 0.0731876 0.89056 0.0494184
206 1 0.845254 2.25071 5.23459 -0.245871 -0.67735 -1.09535
207 1 6.88203 2.24772 8.32215 -0.781912 0.839189 -0.789103
208 1 7.81975 3.77143 5.98634 -0.0541997 -1.04479 0.67804
209 1 5.19424 1.37352 7.6785 0.73685 -0.0707595 0.481736
210 1 2.72826 3.14668 8.1674 -1.41748 0.920807 0.281223
211 1 0.956554 1.67207 2.91488 0.892161 -1.10018 0.356631
212 1 5.8294 7.59884 3.56867 0.346885 -0.763437 0.74284
213 1 3.25955 0.517388 3.94205 -0.0777386 -0.584989 -0.279618
214 1 7.40805 2.48187 9.38987 0.0995744 -0.637648 0.276646
215 1 1.571 5.56487 4.54195 0.805692 0.4031 -0.142206
216 1 4.34946 6.51148 6.41177 0.311135 -0.302714 -0.146996
217 1 7.67061 8.79095 9.17635 -0.0330292 0.180249 0.162112
218 1 4.78117 3.60732 1.9566 -0.597567 0.111151 -1.0419
219 1 7.07132 6.83989 0.0970157 -0.681414 -0.646275 -0.433071
220 1 0.111578 2.90338 1.49513 -0.407757 -0.177554 0.214494
221 1 0.247743 8.60627 6.78721 0.232446 -0.983364 0.0520039
222 1 4.81083 3.78982 0.687681 1.43069 0.868433 -0.423056
223 1 3.58261 8.1068 0.639353 -1.03328 0.210184 0.168909
224 1 7.17376 7.11013 3.37938 0.776665 -0.890206 0.37443
225 1 4.7515 5.58876 6.5435 1.03003 0.811585 0.194337
226 1 9.18599 6.91968 0.909642 -0.317593 -0.320858 -0.896317
227 1 4.64187 8.45446 0.953795 0.653808 0.998137 1.42719
228 1 6.71394 3.73871 9.17871 1.46053 0.322434 -0.250979
229 1 0.120016 8.24191 7.75573 0.274837 -0.746927 0.111773
230 1 4.62018 1.20995 1.52748 -0.917542 -2.13162 -0.650549
231 1 0.539751 6.62949 7.63297 -0.401959 -0.972803 -1.17272
232 1 6.37342 5.87815 9.11988 -0.277383 0.0601744 -0.147057
233 1 8.94558 8.77027 8.44437 0.118049 -1.67444 0.945239
234 1 2.58807 0.0860282 0.499619 -0.566177 -1.17713 0.311128
235 1 7.44741 5.81464 7.10101 -0.798717 -0.977086 -1.25161
236 1 1.06443 8.68285 7.51129 -1.48946 0.715443 0.272125
237 1 6.85658 0.425505 0.952933 0.776338 -0.422714 -1.40396
238 1 6.0529 8.71483 9.09772 0.159129 -0.8222 -0.308814
239 1 2.61836 7.36567 5.77749 -0.663325 0.490764 -0.867146
240 1 5.26596 0.772031 5.94526 1.05575 0.279467 -0.0207703
241 1 3.06952 7.23867 3.29473 -0.646641 -0.570359 1.53516
242 1 9.40095 2.96103 5.09774 0.414896 -0.713782 1.13781
243 1 1.68394 7.99954 9.40596 -0.759042 1.74841 0.855948
244 1 6.19291 0.206674 0.218215 -0.822002 -0.343572 -2.20021
245 1 6.39265 2.99389 2.39349 -0.704189 -1.34487 1.03795
246 1 0.914415 5.72861 1.65167 0.874032 -0.0373595 0.936393
247 1 4.34257 3.77427 4.0735 -0.758483 0.241005 -0.563894
248 1 6.0888 1.91171 4.31468 -1.07258 0.110528 0.901585
249 1 2.29023 4.03056 8.32217 -0.615666 -0.134328 0.0680455
250 1 4.85853 7.89176 5.29903 -1.20471 0.81227 -0.430248
251 1 7.69608 2.03203 5.46918 -0.0673411 -0.240409 -0.82744
252 1 2.83994 2.42862 2.56258 -0.910782 -0.310781 -0.175224
253 1 0.429876 5.25284 5.76298 0.321432 1.3007 0.0595908
254 1 7.62181 2.80901 2.04137 1.35851 -0.564213 0.524365
255 1 5.39786 3.50464 8.13885 0.122289 0.468894 -0.119125
256 1 1.41487 4.13004 8.93198 0.928414 -1.1764 -0.258862
257 1 3.3234 0.00546709 9.05038 0.534757 -0.244867 0.0617412
258 1 1.8688 0.407713 2.49694 -0.867106 0.495605 1.14914
259 1 3.89717 6.09563 9.00919 0.664216 0.545424 -0.246968
260 1 3.79993 3.13976 6.71889 -1.93876 0.409374 -1.62554
261 1 7.2861 3.96472 0.70658 -1.31097 0.119722 0.201288
262 1 5.14395 0.436494 2.14357 0.896213 -0.41529 -0.788079
263 1 5.4039 3.5979 4.39238 0.528811 0.518074 0.766718
264 1 7.57835 6.39505 4.39873 -0.135037 -1.16141 0.307614
265 1 4.42789 4.39999 4.8897 -0.070079 -0.36591 0.511657
266 1 8.49263 7.77516 4.38473 -0.710406 1.6255 -0.855444
267 1 3.97405 2.67772 2.00902 0.338181 -0.563019 -0.951068
268 1 5.8578 8.91629 8.18753 -1.25557 -0.827752 0.261177
269 1 3.30721 5.88123 0.796615 1.54398 0.0790473 -1.2034
270 1 8.04497 8.20144 3.57655 -1.1846 -0.235496 0.0260525
271 1 7.53247 7.71982 8.82888 1.95042 -0.956344 0.192886
272 1 8.6508 0.960589 3.29554 0.211819 -0.101443 0.29164
273 1 9.36785 1.86553 3.48691 0.466714 -0.0390588 -0.541326
274 1 6.00611 6.67794 6.42573 -0.568138 -1.38593 -0.888532
275 1 4.03163 8.37417 5.58315 0.207483 -0.419986 -0.0108135
276 1 9.23679 5.12367 3.05823 0.722901 -1.10993 0.182697
277 1 2.98717 1.50971 4.44618 0.103123 -0.327108 2.41103
278 1 2.42195 6.12166 7.41376 0.473258 -0.459055 0.810557
279 1 2.57661 8.9379 4.39574 0.653463 -0.0444002 -0.445496
280 1 5.80693 4.17868 2.26819 -1.37128 0.751137 0.384329
281 1 6.51108 9.17613 4.70422 0.133697 0.416444 0.102975
282 1 9.12338 0.581446 2.46644 0.706449 0.325457 0.3879
283 1 8.49163 8.89078 4.4286 1.12564 0.686157 -0.261228
284 1 8.94809 7.3307 5.41985 -0.158358 -0.0928034 -1.00215
285 1 4.1901 6.89047 3.00369 0.860484 0.132309 0.0338149
286 1 8.89968 1.66766 8.58898 0.467855 0.276049 -0.39621
287 1 3.89273 9.19079 7.69971 -0.712378 -0.721403 1.66219
288 1 2.0069 1.55591 0.0325049 -0.391023 1.35625 -0.133977
289 1 6.76421 1.491 5.06543 -2.40408 0.635459 0.876828
290 1 1.04715 8.13315 8.36291 0.939916 -1.05657 0.302531
291 1 5.34033 2.43775 7.88192 -1.46031 -0.0786378 0.238751
292 1 0.708461 6.7455 6.64403 0.565352 -0.63765 0.469315
293 1 1.51582 8.85385 4.35375 0.566963 -0.642099 -1.12422
294 1 8.00708 3.97377 7.79587 -0.199793 -0.21832 0.522326
295 1 7.29238 4.74643 7.47615 0.89491 0.718024 -0.329131
296 1 5.17507 7.63072 0.460907 1.37673 0.411219 0.959505
297 1 3.59049 2.5309 0.476766 -0.0851641 -0.819005 -0.239042
298 1 3.92959 6.52872 5.47356 0.707262 0.91971 0.0706588
299 1 6.3108 6.80461 2.73689 -0.913556 -0.762809 0.031468
300 1 8.7516 2.88567 3.04826 0.123684 0.277602 -0.258609
301 1 9.08788 1.30936 6.70644 -0.700101 -1.25956 0.559493
302 1 9.0008 0.50155 5.69768 -0.571087 0.172033 1.12417
303 1 0.288534 9.15945 9.10383 1.12645 0.237581 0.507833
304 1 6.73311 4.32078 1.58196 -0.155183 -0.569688 -0.366747
305 1 4.99766 1.57854 0.465194 0.427829 0.518461 -0.0389803
306 1 8.24825 0.099589 3.6489 -0.509189 -0.608389 0.773133
307 1 5.81873 8.43008 0.700668 -0.401349 0.387766 -0.427044
308 1 7.30981 1.17584 5.97482 1.57364 -0.542543 0.525982
309 1 9.11257 5.18302 8.59127 -0.156715 -1.11133 0.230401
310 1 2.88042 4.63855 6.86673 -0.348684 1.69725 0.279828
311 1 8.28827 8.48951 1.90493 0.874355 -1.62168 0.869359
312 1 2.55013 7.01791 2.0116 0.211879 -0.792754 0.290919
313 1 5.86968 0.539123 1.38846 0.894148 -0.351745 -0.423472
314 1 7.15513 5.17028 3.38609 -0.830717 -0.467079 0.477156
315 1 3.73616 4.20619 6.65429 -1.1663 -0.195378 -1.21757
316 1 1.86433 4.75295 3.95444 1.1156 -1.55566 -0.153845
317 1 8.76599 2.34495 6.74018 0.615449 0.868681 0.237418
318 1 8.943 6.57383 7.21098 -0.0965774 1.15286 0.179247
319 1 3.53917 0.129961 5.87352 -0.374099 0.461453 0.195132
320 1 6.16445 5.43136 5.13456 -0.421766 0.374671 1.07818
321 1 2.58306 1.11268 3.45614 0.191413 -0.495194 -0.29646
322 1 1.52569 7.6569 5.70508 0.231829 0.387589 0.226748
323 1 4.99417 8.0813 4.17595 -0.51454 -0.919873 0.120005
324 1 4.00697 4.66985 8.5232 0.815395 -1.00061 0.568159
325 1 3.58433 5.65517 1.80108 0.520938 -1.10577 -0.110721
326 1 8.63786 2.16049 5.00978 -0.973365 0.641864 0.822141
327 1 3.84021 1.15416 9.03149 0.761765 0.988621 -0.495622
328 1 5.68989 3.07999 9.20372 -0.309658 -0.0359453 -0.190513
329 1 7.97725 2.29115 8.34339 0.448908 0.0655876 0.225408
330 1 3.97784 8.67855 8.6878 -0.37943 -0.209009 -0.463594
331 1 4.27308 2.46622 5.11406 -0.945778 0.916621 0.435131
332 1 1.9717 1.5023 7.42802 0.0151551 0.788794 1.20336
333 1 7.73837 4.76429 1.69243 0.530985 0.0983425 -1.21633
334 1 1.99776 7.71508 6.69248 1.1682 -1.09075 -0.864253
335 1 7.66658 1.78687 2.94095 -1.92013 -0.781938 -0.556067
336 1 0.543726 5.38571 4.74865 0.343153 0.619843 1.4517
337 1 4.82416 8.45785 6.40835 -0.401345 -0.978587 -1.76267
338 1 8.71127 0.601964 7.4281 0.669709 0.131801 0.0352259
339 1 0.342732 4.67177 7.92636 -0.135375 0.136391 0.0440075
340 1 2.14085 8.75459 2.50277 0.348016 -0.739935 -0.907336
341 1 7.37509 8.87313 7.03371 -0.576725 -0.277526 -1.2136
342 1 6.60133 6.18344 3.57689 1.12665 -0.114319 -0.73169
343 1 4.19068 4.5698 2.28057 0.0169451 -0.804065 0.0487564
344 1 1.94467 0.22815 6.14518 -0.098907 -0.133553 -0.189973
345 1 3.61405 7.47127 5.12672 -0.968068 0.423028 0.540184
346 1 6.86031 5.62559 0.629886 0.302127 -1.58634 -0.879059
347 1 3.50228 2.78199 7.68034 -0.697024 0.138465 -0.546801
348 1 8.17661 4.32353 6.81272 -0.079184 0.450896 0.142488
349 1 7.3181 3.12695 8.65306 -0.88343 -0.00711191 -0.478149
350 1 3.68862 3.03545 3.65116 -0.730381 0.820302 -0.623867
351 1 8.32307 6.7251 1.93891 0.851477 -0.906586 -0.602539
352 1 0.200759 9.07013 5.78528 -0.252045 0.638519 0.680138
353 1 0.589706 2.6065 4.20892 -0.865171 -0.176025 -0.0724395
354 1 1.89854 6.92606 9.00049 -0.0804294 -0.0723603 -0.947037
355 1 8.70024 6.17794 0.414627 -0.52699 0.613802 1.58716
356 1 5.43381 4.21292 7.42177 0.755055 0.738065 0.341341
357 1 8.9729 1.74363 0.23333 1.05952 -0.0562701 -0.0198853
358 1 6.52774 7.0116 4.23369 0.869421 -0.66538 0.908939
359 1 4.2782 6.1029 7.41117 -1.38238 0.903339 -0.94871
360 1 3.16264 4.42713 2.72134 -0.491105 0.352702 -0.105953
361 1 4.20565 2.07026 4.00357 -0.248613 0.136776 1.12398
362 1 4.49925 2.39262 2.88153 -0.932834 -0.777911 0.94771
363 1 6.87524 5.50542 1.68088 -1.05687 0.397755 -0.707211
364 1 2.01042 4.1889 7.11978 -0.456662 -0.50917 0.626524
365 1 0.364351 2.06893 0.903443 0.0920251 -1.0553 1.02051
366 1 5.74007 7.74372 2.51045 -0.608723 0.326297 -0.553188
367 1 0.832118 4.88301 1.08053 -0.137264 1.23294 0.462334
368 1 2.85497 8.22361 5.17206 0.709708 -0.756777 -0.649057
369 1 8.65025 6.16619 8.75932 -0.548977 0.0754886 0.115935
370 1 6.19045 0.468783 7.77684 0.475464 1.5301 0.0504298
371 1 3.22503 6.13322 4.62766 -0.230878 -0.993615 0.251231
372 1 1.78304 3.25938 7.5336 -1.31105 1.26774 0.252705
373 1 6.12169 7.12217 0.629873 0.209801 -0.80015 -0.0429153
374 1 0.193007 5.71471 6.72547 -0.584302 0.589822 -0.496121
375 1 5.73741 5.74936 6.82862 -0.246423 -1.57482 -0.258135
376 1 3.05957 1.43698 7.4794 0.392787 -0.181555 0.981005
377 1 1.94003 8.70627 8.15001 0.0557003 0.766564 1.33333
378 1 5.03914 1.40664 2.59657 -0.951494 -1.06223 -0.0804809
379 1 6.52932 3.99061 4.99735 0.254795 -0.30704 1.08302
380 1 6.74483 5.55574 6.32035 0.780243 0.301451 1.13026
381 1 4.32846 9.17098 2.0258 -0.571534 0.472849 -0.814659
382 1 5.41209 6.31967 4.22962 -0.158654 1.08473 -0.130397
383 1 1.05645 9.22378 6.42313 0.515719 1.26885 -0.309249
384 1 3.5119 8.85299 3.82247 -1.26832 -0.12068 -1.03681
385 1 4.44022 8.03316 0.00731657 0.567484 -1.11431 -1.41874
386 1 0.879114 4.68611 6.91518 -0.592788 -0.738797 -1.29656
387 1 0.00268599 0.0231008 4.09084 0.144673 -0.669782 0.102646
388 1 7.16583 2.28915 1.03955 0.679012 1.54901 0.665551
389 1 6.30859 2.91952 4.71195 -0.04676 0.156738 -0.795553
390 1 3.04003 4.86362 3.63273 1.06748 0.435382 0.173891
391 1 6.89577 8.87653 0.531651 0.112546 2.20878 0.742962
392 1 3.90757 1.47193 0.69663 -0.890196 0.247567 0.39836
393 1 1.68726 5.6077 0.757379 -0.775483 0.931615 -0.599276
394 1 8.06121 3.741 1.41705 0.286094 0.554486 -0.294904
395 1 0.92148 0.17896 0.454437 0.9878 -0.931537 -0.446876
396 1 1.99353 1.64536 2.78012 -0.532843 0.899124 0.305854
397 1 6.30119 3.92928 0.715374 0.143767 -0.104443 -0.649944
398 1 8.25497 5.00405 3.10109 -0.947834 -0.110304 0.698734
399 1 6.96825 2.04865 2.10799 1.13036 0.556603 -1.30797
400 1 2.27117 7.71111 2.72022 -0.704318 0.833046 1.47326
401 1 4.17113 1.93445 6.19513 0.441261 -0.344252 -0.00392049
402 1 0.0720916 5.85052 1.11892 0.280608 -0.697869 -0.645089
403 1 3.31532 4.60932 1.65971 0.133501 -0.432481 -0.358196
404 1 8.65085 4.8162 7.65676 1.19584 -0.112347 -1.18354
405 1 4.31134 4.77965 5.96588 0.611875 -0.158748 0.174659
406 1 7.84029 -0.00612384 0.798937 0.217261 -0.748522 0.395046
407 1 7.4145 0.304069 7.81807 -1.28773 -0.290491 0.952237
408 1 0.296754 2.70719 0.0971303 0.3844 0.53883 0.0459591
409 1 3.50939 4.40925 5.3391 0.203084 0.0844564 -1.46747
410 1 0.0109306 1.97819 7.73058 0.419967 0.11465 0.599554
411 1 7.51761 9.0314 5.37545 -2.1516 -1.39356 -0.254925
412 1 1.55771 9.27642 3.3564 -0.385551 -0.620026 1.28148
413 1 1.75953 6.43793 1.51319 0.739494 -0.231791 -0.477265
414 1 5.23204 2.1808 8.97066 0.547682 0.375076 -1.30977
415 1 9.31647 9.20278 0.674186 0.288311 0.557483 2.17441
416 1 8.81559 1.83409 1.24859 -0.675009 0.673772 -0.0359634
417 1 8.81133 5.47056 4.57835 -0.472521 0.248996 -0.532891
418 1 3.35444 2.48134 4.52739 -0.972475 0.39559 0.824134
419 1 6.16071 2.40292 1.61342 0.914915 -0.156677 -1.04444
420 1 0.687191 3.58952 4.65689 -0.0710144 0.738234 -0.558352
421 1 6.04036 6.5074 5.20451 1.01053 -0.293933 -0.845756
422 1 0.147931 2.53475 6.00033 1.69539 0.481212 -1.04864
423 1 0.18533 4.62441 4.15697 0.0810355 0.80903 -0.763888
424 1 4.93947 7.88332 3.19194 0.111473 -0.432214 -0.0402356
425 1 1.67729 2.74308 5.74414 -0.151469 8.84733e-05 1.5445
426 1 4.97381 0.316563 7.80267 0.683978 -0.034066 0.354949
427 1 8.19691 3.26748 6.97206 -0.27036 -0.0679242 -0.012098
428 1 2.60973 8.21046 7.5161 -0.328909 0.520913 -0.358251
429 1 6.18792 8.73313 2.61655 0.319548 0.435004 0.894612
430 1 5.80569 3.35709 5.49107 1.6823 -0.9979 -0.287099
431 1 9.03172 3.40684 6.18588 -0.26591 -0.934111 -0.16853
432 1 4.85876 7.87279 7.38218 0.446389 -0.745853 0.241084
433 1 2.67208 7.09861 4.59982 -0.124732 -1.6933 1.03322
434 1 7.50341 8.41602 1.27396 -0.0496577 -0.861995 -0.641385
435 1 0.986303 2.98921 1.01053 -0.193555 -0.713673 -1.52615
436 1 8.48727 8.02779 9.21756 -0.402443 -0.188777 -1.29034
437 1 7.62062 7.50317 1.6646 -0.631043 -0.124368 -0.322963
438 1 0.822419 7.34759 0.361855 0.120562 -0.0380575 -0.471412
439 1 3.91255 7.85074 3.56127 -1.44462 0.678301 1.35626
440 1 7.64998 6.12332 3.3337 0.629334 0.207802 -0.0784519
441 1 5.38673 2.1067 3.54522 1.23968 -0.0765022 1.09056
442 1 5.16826 4.186 5.67533 -1.02922 -0.197745 0.331502
443 1 2.5301 6.64471 0.783456 0.761223 -0.138996 -0.0649367
444 1 0.690622 6.42329 3.2372 0.955303 1.41624 0.00608259
445 1 6.39027 2.00613 9.19332 -0.578765 0.179472 -0.231897
446 1 8.22686 2.81059 5.88218 0.797809 0.0981215 0.254357
447 1 1.47004 4.75416 2.9197 -0.948365 0.384655 0.354051
448 1 7.48438 8.57262 8.00915 0.183638 0.920327 -1.34259
449 1 3.03626 1.85831 9.28592 0.327783 -0.582031 0.438707
450 1 4.61876 5.63097 8.32049 0.381516 0.990099 -0.429895
451 1 4.84888 8.74917 7.96527 0.221749 -0.0922283 0.644157
452 1 3.34944 7.77594 8.23319 -1.11881 -0.771865 -1.06422
453 1 3.8666 8.93922 6.6628 -0.433394 -0.589073 0.414722
454 1 4.88267 0.0371017 6.85166 0.304567 -0.0255521 -1.12404
455 1 8.54417 4.48566 4.43179 -0.978244 -0.0369649 0.0741841
456 1 9.16953 4.60937 5.3066 -0.411521 0.226812 0.0385389
457 1 5.34279 8.01408 8.76272 -0.798218 -0.854817 -0.808211
458 1 3.74814 5.41714 2.8995 -0.540992 0.028779 -0.490956
459 1 8.79502 4.421 1.40268 0.756272 -0.153871 1.0941
460 1 7.30852 2.81569 6.46467 -0.0546402 1.30105 0.032455
461 1 8.27957 4.22235 2.44259 0.604574 0.79735 1.10316
462 1 2.83728 8.15992 1.89258 0.183768 -0.256773 -0.640491
463 1 4.19165 2.04604 9.25338 -0.0972383 0.228956 -0.949537
464 1 9.12443 3.6753 7.94194 1.04948 0.19627 -0.462252
465 1 1.99456 8.75945 6.96538 0.799712 0.991284 -0.0335496
466 1 3.26584 0.627868 8.16313 0.318102 -0.409939 -0.446686
467 1 5.14003 2.4667 1.95747 -0.698608 -1.30712 -0.142737
468 1 7.95139 0.549598 5.47315 -0.205561 0.381144 -1.6261
469 1 7.10997 2.33841 4.46623 0.501867 -0.386122 -0.298002
470 1 0.148116 2.88852 7.04889 -0.0918243 -0.0606345 0.0106032
471 1 6.34967 0.556771 6.07215 -1.13338 0.03123 0.527049
472 1 8.06411 3.02613 4.648 -1.33613 0.520165 -0.767558
473 1 5.45906 2.54131 0.819755 -0.675532 0.0668735 -0.367001
474 1 0.358497 7.51199 3.25215 -0.211143 -1.13184 -0.504598
475 1 3.35729 2.20839 6.69891 0.141621 -1.44335 0.0894051
476 1 9.10649 0.536052 8.48157 0.219132 1.43753 -0.533056
477 1 2.30324 8.83661 9.1916 -0.0631778 0.130876 1.10484
478 1 2.51878 1.19156 1.77016 0.696606 -0.699488 -0.500115
479 1 1.98675 3.04069 1.26197 0.152705 0.0177142 -0.156342
480 1 6.87729 1.19785 7.98224 1.12815 0.360619 0.0433575
481 1 2.95482 7.49874 1.17558 1.03362 -0.140267 0.368261
482 1 2.46883 5.73425 3.89945 -0.734341 0.177449 -0.369922
483 1 5.66743 5.86227 3.2383 0.739628 -1.01547 -0.14915
484 1 5.65095 0.710034 6.98247 0.332283 -0.151386 -0.197302
485 1 5.55359 6.22163 8.47318 0.139897 0.884391 -0.398464
486 1 0.260921 2.5786 2.68233 -0.984975 -0.146439 -1.55779
487 1 8.95127 4.13162 3.32912 0.0643241 -0.473294 0.330307
488 1 8.61112 5.93168 3.69323 1.07255 0.0738255 0.439678
489 1 3.2571 1.9174 1.44926 -0.405857 0.127549 0.247832
490 1 5.65399 7.33011 4.73518 1.67447 -0.0417113 -0.360895
491 1 9.00045 8.7214 3.35102 -0.26988 1.06423 0.316373
492 1 9.21104 7.27435 8.02062 -0.34806 0.656327 0.471959
493 1 5.96707 1.58276 8.4066 -1.24896 0.463672 -1.60634
494 1 7.83738 2.54549 3.70674 0.25885 0.705926 -0.552929
495 1 4.46282 2.22583 1.17506 -0.16815 -0.963477 -0.305916
496 1 1.86349 1.8923 5.17291 1.00807 0.0912332 0.385154
497 1 1.77726 0.548869 9.30567 0.288899 -0.25782 -0.0293156
498 1 8.02319 0.945808 1.36923 1.10136 0.101655 -0.0290419
499 1 3.69476 3.41578 4.9617 0.103477 -0.291113 1.30102
500 1 5.57685 6.23823 0.231328 0.00458872 -0.553789 2.43489
501 1 4.9652 7.38427 6.2423 0.0606509 -0.00623307 0.826613
502 1 1.01549 3.31497 1.94873 0.291518 0.0311721 -0.685767
503 1 5.26323 6.29902 5.95223 0.969572 -0.788642 -0.318747
504 1 5.15979 8.61595 2.42767 0.698026 0.122736 1.25536
505 1 7.47574 5.97992 8.72585 0.33857 2.10246 -0.577503
506 1 1.82861 6.83206 5.10077 1.33775 0.330442 -0.0957252
507 1 6.73411 9.34404 8.68252 0.545299 -0.793825 -1.0294
508 1 4.36494 7.41892 1.19474 -0.32927 0.0788171 0.835316
509 1 8.01195 1.08461 8.19735 0.425927 0.773776 0.0451768
510 1 1.9702 1.42992 4.2613 -0.344123 0.107356 0.169024
511 1 7.39673 4.7215 6.39837 0.0616679 0.628083 1.03641
512 1 7.86357 7.60389 2.75969 0.477836 1.01322 -0.743257
513 1 2.13838 7.40741 3.7763 0.736414 0.412463 0.300489
514 1 8.58781 6.64556 4.61669 -0.475867 0.361383 -0.568092