ITEM: TIMESTEP
34390000
ITEM: NUMBER OF ATOMS
1000
ITEM: BOX BOUNDS pp pp pp
0.0000000000000000e+00 9.4000000000000004e+00
0.0000000000000000e+00 9.4000000000000004e+00
0.0000000000000000e+00 9.4000000000000004e+00
ITEM: ATOMS id type x y z vx vy vz
1 1 0.921077 4.38649 9.19353 0.821126 0.915811 0.367251
2 1 7.59662 6.43443 1.13237 -0.277858 0.799658 -1.20589
3 1 3.47693 3.8859 1.95689 1.80079 0.394677 -0.907
4 1 8.17893 8.27004 6.59361 -0.144728 -0.320344 -0.431502
5 1 1.67692 0.266807 3.2765 -1.04385 0.600648 0.471451
6 1 6.24119 7.9943 8.57929 -0.42618 -0.749621 -0.556037
7 1 1.21916 8.09382 0.081858 0.3069 0.876623 -0.926651
8 1 4.64178 1.31703 6.78533 1.1275 1.32749 -0.164425
9 1 2.58129 5.6681 5.41487 -0.0059864 0.0924756 -0.228605
10 1 0.816614 6.80141 9.12987 1.145 -0.409845 1.68302
11 1 6.56943 0.801914 4.3391 0.477396 0.412132 -0.394383
12 1 0.836268 1.51749 1.4135 -1.52742 0.499582 -0.368901
13 1 1.76513 1.81441 1.04175 -0.714095 -0.350514 -0.973683
14 1 3.83938 6.22789 2.63548 -1.1307 -0.315571 0.834082
15 1 6.37814 3.03881 0.546082 -0.613065 -0.722254 -0.328619
16 1 0.523677 0.717929 6.27959 -0.604799 -0.574894 2.37061
17 1 8.12501 2.95665 0.928161 0.747735 -0.9615 0.652701
18 1 6.43661 6.87197 8.72666 0.00594757 -0.770508 0.134392
19 1 4.29553 3.50252 8.43798 -0.0864582 -0.168967 0.444496
20 1 6.52847 4.60622 6.91166 0.00699372 0.651228 0.309931
21 1 8.4464 1.52452 3.96338 1.74579 1.6745 -0.379465
22 1 3.17991 2.3726 5.59068 -0.412004 0.147041 0.492857
23 1 4.63344 1.59313 8.58803 -1.03143 -0.325951 0.0512663
24 1 1.85938 3.16696 6.44725 -0.152164 0.542606 0.503104
25 1 6.52309 0.832133 7.2076 0.0848326 1.2602 -0.595946
26 1 0.211961 4.20052 2.61437 0.646441 -0.932658 -0.824842
27 1 9.15544 7.58238 1.69109 -0.265246 -0.359319 -0.540134
28 1 4.25778 3.56958 2.97167 0.0432366 0.0156763 0.182568
29 1 1.06913 4.39662 6.03955 -1.64909 0.115826 0.220464
30 1 0.0564069 2.74746 6.39626 -1.30203 -1.0958 -0.224175
31 1 2.6225 3.16653 1.23855 -1.22433 0.263391 0.458921
32 1 7.74892 5.95566 5.96733 0.987441 -0.512661 1.00639
33 1 1.98462 9.0109 8.33602 -1.57679 -0.51142 0.288167
34 1 6.50379 0.0129161 3.52686 -0.163015 1.02389 -0.768806
35 1 0.435446 0.59907 3.27592 0.0419207 -0.270535 1.08322
36 1 3.72945 7.36209 2.8662 -0.371173 -0.570302 -2.42978
37 1 5.0923 8.96081 0.19293 -0.104973 -0.945082 0.920648
38 1 1.98651 6.94299 3.11067 -0.790959 -0.0861529 -0.540526
39 1 1.14028 9.34989 7.75915 -0.70341 -1.08588 0.290867
40 1 6.9026 1.15427 0.632909 0.0127051 0.540491 -0.388124
41 1 8.03596 6.93053 5.75209 -2.5347 -0.20292 0.101065
42 1 1.12276 0.585227 4.16575 0.737617 -0.197337 0.161198
43 1 0.824264 0.988655 8.36164 -0.417628 -0.660096 -1.06385
44 1 2.28784 2.9015 5.16582 1.40826 -0.767772 1.44604
45 1 4.33765 3.2599 4.8471 0.815833 -0.86473 1.61868
46 1 2.62028 3.22797 4.24899 1.45525 0.472925 -0.163961
47 1 2.00557 6.30442 9.1394 0.435614 0.130839 -0.659411
48 1 5.83216 4.33017 3.42924 -0.924478 0.212 -1.65862
49 1 3.66886 5.02783 7.09779 0.2018 1.085 -0.407209
50 1 0.655872 8.06818 3.69101 0.0733037 0.684641 0.775032
51 1 0.970583 5.31706 3.7215 0.259544 0.19293 -0.499553
52 1 3.59571 1.2067 1.75072 0.628981 0.976785 0.0813914
53 1 3.62608 1.20016 4.39717 -0.155105 0.472019 -0.0219036
54 1 7.12613 7.49669 8.05247 0.629215 -0.332741 -0.774986
55 1 0.772873 5.65858 7.56712 -1.12412 -0.915428 -0.146809
56 1 2.00617 4.05844 9.21846 -0.839866 -0.589154 -0.0574065
57 1 8.77736 8.00581 7.37103 -1.81027 -0.41965 0.102592
58 1 9.22793 6.95489 8.63288 0.616508 -0.168047 -0.618475
59 1 8.58516 8.75288 5.76944 -0.286344 -0.432192 -0.163022
60 1 1.67294 8.14778 1.82858 0.44098 -0.160573 0.0246484
61 1 3.48131 1.74762 2.72363 0.249444 0.623037 -0.758161
62 1 0.499515 8.94041 0.110125 -0.183781 -0.559195 -0.157042
63 1 6.87883 8.46369 6.56129 -0.372759 0.991351 1.01834
64 1 8.0755 6.98729 0.103554 0.710278 0.145845 0.0706741
65 1 7.65385 1.02058 4.99392 -0.467742 -0.674608 1.15276
66 1 2.83708 6.25425 7.4677 1.11055 -0.0266305 1.202
67 1 3.49615 8.8374 1.46519 0.746339 0.890768 -0.240288
68 1 4.96625 5.79532 1.1394 1.08725 1.78623 -0.553543
69 1 6.87599 4.15051 3.27908 0.400407 -1.17035 0.933242
70 1 7.33478 3.6878 4.04719 1.05786 -0.177066 1.29325
71 1 7.74251 3.61699 0.201348 0.0983494 1.77073 -0.371403
72 1 6.93299 0.105751 5.29288 -0.888723 -0.492435 -0.575542
73 1 3.20244 6.93512 6.7152 -0.44831 0.628641 -0.493081
74 1 7.49854 0.0985063 4.04457 -0.13702 -1.02129 -0.60617
75 1 6.96588 1.04729 8.18433 0.137597 -0.482671 0.309958
76 1 6.37387 3.60427 1.47687 -0.635951 0.308103 -0.208453
77 1 1.15274 3.18549 3.43408 0.498409 0.00382763 0.0516896
78 1 3.89234 5.99228 1.52341 -1.28989 -1.07083 0.455956
79 1 5.6029 0.153606 8.85052 0.603756 -0.890244 0.888415
80 1 9.10041 5.92607 7.52078 0.0593413 -0.33456 0.767237
81 1 3.62258 8.19552 4.78325 -0.761207 0.0363656 -1.37277
82 1 5.90515 0.527502 5.11097 0.543941 0.292357 -0.521173
83 1 4.58773 6.93721 4.28794 -0.747988 0.174462 -0.41441
84 1 1.16441 7.38851 7.12188 -0.653471 0.552891 -0.453856
85 1 2.73265 1.33787 1.15615 -0.819375 0.0387965 1.69305
86 1 4.27726 5.0343 1.22779 -0.591442 -0.335313 0.804602
87 1 5.7638 2.72136 4.04564 -0.0245919 -0.702655 0.602635
88 1 8.70814 2.01805 7.88307 0.671784 -0.114994 1.07545
89 1 0.892575 3.43293 2.26321 -1.07554 0.29341 0.0835634
90 1 7.88872 4.06875 2.96632 -0.744153 -0.49104 0.162646
91 1 9.34007 5.89305 6.34848 -0.173911 -0.614854 -0.315147
92 1 7.07398 6.49738 7.88849 -0.474223 0.162047 0.130395
93 1 2.84049 8.23421 4.05323 0.527878 0.00394994 -1.5199
94 1 0.192431 6.7642 1.10864 -0.56746 0.173311 0.509242
95 1 2.29183 5.16204 2.55279 -0.254049 0.235689 1.30087
96 1 2.54855 1.30487 8.52584 0.614524 0.957132 0.876266
97 1 2.19863 2.4605 1.85663 -0.754702 -0.563617 0.136272
98 1 4.20351 0.635217 2.47894 0.170028 0.0538116 -0.982094
99 1 2.53519 1.24082 4.87493 -0.400986 -0.594774 0.141605
100 1 6.58732 7.92515 4.48183 -0.574531 -1.14357 1.26548
101 1 4.70581 6.52408 1.92595 0.0928799 -0.44736 -0.549458
102 1 6.11818 1.69484 3.71865 1.87294 -0.58815 -1.64307
103 1 0.226261 9.01524 1.19521 -0.0786805 0.441624 -0.0389545
104 1 3.46443 8.50147 0.444349 -1.07888 -0.465406 -0.339543
105 1 7.00986 6.62142 6.06017 -0.212822 -0.247986 -0.083625
106 1 8.27482 1.17002 6.78327 0.604845 0.547445 -0.448749
107 1 7.94218 7.36872 1.81643 -0.518148 1.04152 -1.66917
108 1 9.10869 0.5099 7.11333 0.589101 -0.634615 -0.496028
109 1 6.71956 4.5902 4.27158 0.479618 -0.873615 -0.0210828
110 1 8.9397 4.95101 6.35549 0.57901 0.779552 0.114672
111 1 3.45013 6.68956 0.922814 -0.580566 -0.404128 1.84851
112 1 4.57057 0.321614 8.84639 0.329636 -0.998174 0.350709
113 1 2.53405 3.32248 8.70052 -0.169699 0.825367 -0.317905
114 1 3.43108 7.10438 4.61642 0.159527 1.23287 -0.642969
115 1 3.885 0.307978 5.33136 1.01435 0.397745 -0.123605
116 1 4.64421 5.05632 7.35227 0.378132 -0.0207355 -0.702884
117 1 8.49331 5.16567 1.24876 0.813975 1.26322 0.0552331
118 1 7.43297 1.62407 7.36209 0.0543431 0.184829 0.368527
119 1 0.15034 7.18915 3.31848 0.365889 0.418423 0.0218417
120 1 3.07938 5.73674 2.1021 -0.102413 0.677003 -0.383449
121 1 5.31534 8.52128 7.30558 0.842598 -0.224364 -0.971981
122 1 9.26071 8.59253 8.76309 1.23294 0.857156 -0.0645608
123 1 1.44294 8.80562 6.50184 -0.608025 2.01721 -0.0618345
124 1 5.31466 9.27352 6.30993 -0.483577 -1.24555 -1.39235
125 1 6.05897 4.90705 6.00563 0.0204983 0.768975 0.334476
126 1 0.806109 5.36681 1.77083 -0.945193 -0.50061 1.60837
127 1 2.09673 8.41089 4.76794 -0.345054 -1.16948 0.948679
128 1 5.46833 7.27438 8.27249 -0.298271 0.38949 0.656626
129 1 3.32213 3.83848 0.85289 -0.783268 0.30486 0.251816
130 1 3.94515 7.13196 7.44322 -0.347476 0.380617 0.693296
131 1 0.733002 1.53257 3.97621 -0.812557 -0.291044 0.861707
132 1 7.62747 4.86389 3.67039 -0.144975 -1.09021 1.4202
133 1 6.30922 7.84053 2.32843 0.397614 0.582115 0.185928
134 1 4.0992 0.846633 6.13218 0.411527 -0.253582 0.906493
135 1 5.08625 1.00929 4.72292 -0.588394 1.27411 -0.244072
136 1 1.7889 0.876956 7.71349 -0.643608 0.224675 1.58086
137 1 2.9231 4.4106 8.77704 0.264726 -1.0667 1.17392
138 1 6.89352 2.5635 7.2062 -1.20198 0.863151 -1.17621
139 1 0.218134 6.33596 4.03647 1.27322 -0.00834238 0.220901
140 1 3.96653 5.10152 4.62723 0.41222 -0.942744 -0.517652
141 1 3.62018 7.97664 7.94085 -0.171652 -0.277881 -0.0246867
142 1 1.09513 2.52425 8.9782 -0.269481 -0.115103 -0.498289
143 1 3.8525 6.79116 9.258 1.23492 -0.214055 -0.208948
144 1 1.64692 4.1233 6.85012 -0.0390872 0.434469 0.492321
145 1 5.92869 4.38772 8.3228 -0.552376 -0.529527 0.93762
146 1 7.23946 0.968913 2.26842 -0.154143 -0.281896 1.1091
147 1 3.95566 7.69121 6.61126 0.189308 0.271354 0.66334
148 1 4.2041 4.06716 7.50818 -0.831053 1.87554 -0.00642167
149 1 8.87557 7.03263 2.5682 0.347036 0.861325 -0.162078
150 1 4.77543 0.532702 0.631941 1.16358 -0.179427 -0.342307
151 1 0.0852237 7.34642 4.33104 0.716301 -0.743814 0.739926
152 1 4.45096 6.64653 0.724034 -1.92599 0.474393 -0.701212
153 1 0.286433 5.22712 9.36855 0.983047 -0.764634 -1.26405
154 1 6.23371 4.88445 0.150425 -0.899974 0.411534 -0.0783006
155 1 6.74855 5.77969 2.64165 0.489374 -0.263392 0.42477
156 1 4.71883 0.825195 3.72616 0.445168 0.722902 0.937632
157 1 5.80265 3.11879 5.83781 -0.30234 -0.0848932 0.0108034
158 1 5.01156 3.84001 9.29947 0.0505701 1.27415 0.137484
159 1 1.11227 7.15697 3.79736 -0.310529 -0.287994 -1.02436
160 1 6.40531 7.56643 6.09728 -0.0746244 0.0190372 1.0915
161 1 0.198198 3.96409 0.392527 0.423645 -0.0835735 0.262323
162 1 0.169856 1.17133 9.11117 0.430626 0.781487 -0.168454
163 1 9.33921 3.9708 5.99358 1.01385 -1.07209 -0.549494
164 1 5.61192 6.3166 2.55367 -0.327922 -0.668845 0.234968
165 1 7.07451 9.30754 1.86224 0.275036 -0.19321 0.00981624
166 1 8.26437 6.32375 4.81833 -0.842951 0.741232 0.317652
167 1 6.31459 7.56694 1.33002 0.454733 0.861234 0.704646
168 1 6.50718 5.33403 8.36022 0.741791 -0.933482 -0.681261
169 1 3.00455 5.29478 8.02659 -0.088301 0.486587 -0.82412
170 1 1.64604 1.44565 6.7991 0.223796 0.12919 0.661974
171 1 9.29373 3.4289 3.44093 -1.36255 -0.394887 0.508928
172 1 2.59259 3.28178 0.269312 0.759575 -0.535555 -0.685139
173 1 8.17466 6.93785 8.46732 -0.0949492 0.574679 -1.6137
174 1 0.517791 3.28539 5.38161 -0.00307518 -1.23391 0.516327
175 1 6.3856 8.7603 2.75888 -0.126553 -0.908857 1.04246
176 1 1.13564 2.37033 6.69815 0.284273 1.87191 -0.353072
177 1 4.35433 9.37526 1.50409 0.08352 -0.372629 0.285596
178 1 8.57575 5.57224 5.4697 -1.55148 -0.137109 0.321095
179 1 6.09092 8.48872 3.73513 -1.0298 -0.172095 -0.514879
180 1 0.883469 1.31974 4.99548 0.463475 0.127836 1.05447
181 1 7.44777 7.45896 0.810615 0.211956 -0.320179 0.165667
182 1 3.16048 0.657161 2.65824 -0.276835 -0.627717 -0.713971
183 1 2.06093 6.83058 7.17669 0.56156 -0.02252 -0.593276
184 1 3.38659 3.29911 8.00535 0.0278317 -0.229367 0.0863474
185 1 2.81853 6.92315 8.97062 -2.0808 -0.433183 -0.281821
186 1 1.68302 4.87212 5.17594 -0.130107 -0.0940333 -0.672844
187 1 1.78029 2.62951 8.15336 0.893297 0.109487 1.48094
188 1 2.1076 6.15368 1.66961 -0.514776 0.814493 -0.0680897
189 1 1.5697 3.96252 4.50773 -1.32572 -0.0104716 0.725581
190 1 7.79696 5.57957 2.02235 0.189165 -0.721202 0.871139
191 1 5.55811 5.25498 8.90676 0.739013 -0.987467 -1.49474
192 1 0.793316 5.1382 8.45813 -0.977693 -1.08673 -0.167011
193 1 2.33871 6.15098 6.3866 0.730816 0.176823 -0.56983
194 1 3.55227 3.59181 9.263 -0.251958 -0.238932 0.769296
195 1 9.37149 7.9997 2.74303 -0.375567 1.20597 -1.57809
196 1 3.23572 9.29548 3.36231 0.0427811 0.505951 0.163311
197 1 3.30062 5.88163 6.6016 -1.09976 0.524034 0.980936
198 1 3.37639 4.78279 0.437382 0.315891 -1.01452 -0.26986
199 1 0.830765 5.40826 6.46618 0.874322 0.0280024 0.0213598
200 1 2.47698 9.10493 6.40642 0.997708 -0.439181 1.38766
201 1 0.158381 7.96228 0.766197 -1.19699 -0.788814 0.655642
202 1 8.90129 2.48154 3.49803 -0.818594 1.01734 -0.575903
203 1 2.86014 7.31221 7.7154 -0.453683 0.610213 -0.661991
204 1 3.91725 3.54826 5.68835 -0.530575 0.167386 0.434359
205 1 7.42118 7.52863 6.43382 0.160238 -0.27935 -0.0628287
206 1 0.721722 2.3443 4.92053 0.0342147 -0.23848 -0.495315
207 1 6.99846 3.09752 9.12631 -0.00595543 -0.139737 0.382816
208 1 7.72613 3.79798 5.82349 -0.413494 0.148216 0.311797
209 1 5.20538 1.46629 7.63259 0.743162 -1.06717 0.240042
210 1 2.20385 2.43832 9.07866 -0.801012 1.39915 0.200309
211 1 0.616086 1.8648 2.40366 1.75727 -1.10153 -0.795441
212 1 5.91766 7.1712 3.07343 0.737727 1.2674 -1.08452
213 1 2.74926 0.729363 3.8967 -0.221346 -0.266186 -0.553053
214 1 7.38808 2.29509 0.555439 -0.105636 -0.868356 0.58307
215 1 2.36444 6.54594 4.74485 -0.0309913 1.10577 -0.418699
216 1 4.17494 6.70935 6.46867 0.608667 -0.0345945 -0.898464
217 1 8.18456 8.80874 8.79067 0.325062 0.125899 0.263085
218 1 4.9196 3.69085 2.20989 0.309625 -0.0682898 -1.33483
219 1 6.99085 6.74565 0.162814 1.03931 -0.224427 0.350373
220 1 0.199124 2.51713 1.69174 0.0425758 0.298932 0.0945905
221 1 8.96096 8.87826 6.94054 -0.108862 -0.0724645 -0.80384
222 1 4.93739 4.20945 1.24057 -1.3699 0.587487 1.19478
223 1 3.64675 7.75781 1.16801 0.0349133 -0.12305 -1.05507
224 1 6.73207 7.69307 3.44111 0.926549 -0.883749 0.491777
225 1 4.3721 5.54036 6.38764 0.597109 0.546484 -0.338124
226 1 0.882881 7.48197 1.35943 -0.878148 -0.904432 -0.505201
227 1 4.61598 8.46505 0.972169 0.324659 -1.12593 0.270113
228 1 6.27372 3.87471 9.1377 -0.337218 -0.732782 -0.598542
229 1 0.260716 7.86164 8.05833 0.466881 -0.0792647 -1.44317
230 1 4.1782 2.35362 1.33608 -0.186427 -0.128901 -1.41936
231 1 0.429132 6.67441 7.80647 -0.723484 0.243983 -0.369823
232 1 6.43296 5.88029 9.22556 -1.29825 -0.530803 0.724988
233 1 8.66294 7.81348 9.06252 -0.516351 -0.540172 1.14645
234 1 2.60569 8.31972 1.33359 0.127289 0.386874 0.701769
235 1 7.41075 5.99694 6.91116 0.484861 0.302185 0.03825
236 1 0.153334 8.90183 7.84341 0.462554 1.05896 0.349813
237 1 6.98101 0.100795 0.831461 -0.881 -0.99223 1.78704
238 1 6.17401 8.83498 9.34144 0.882177 0.415752 -0.165
239 1 2.4365 7.25005 6.09218 1.17289 0.0273621 0.440232
240 1 5.22789 1.34748 5.75783 -0.869631 0.963054 -0.207832
241 1 2.92202 7.2161 3.5381 0.680765 -0.275434 -0.97297
242 1 9.06101 2.90826 4.53823 0.608004 -0.401717 -0.316955
243 1 2.43523 8.51331 9.39848 0.125018 -0.742627 0.125658
244 1 5.84625 0.371867 0.483854 0.252885 0.311371 -0.213192
245 1 6.31424 3.2598 3.36344 -1.00329 0.603734 -0.898634
246 1 1.04716 6.46456 1.58498 1.21406 -1.56569 -0.384577
247 1 4.68894 3.92465 3.92591 -0.362797 0.978565 -0.556818
248 1 5.91628 1.62478 4.69063 -0.983831 1.11367 0.331741
249 1 2.13256 3.81505 7.79286 -1.57698 -0.0143781 -0.886482
250 1 4.72399 7.93077 5.65589 -0.88801 0.841445 -1.63043
251 1 7.56022 1.95101 6.28768 0.474179 0.585567 0.823588
252 1 3.46109 2.81292 3.17605 -0.543615 -1.08243 -0.0778251
253 1 0.230176 5.2796 5.57803 0.454035 0.401006 0.911267
254 1 7.0301 2.65809 1.41665 -0.172969 1.47108 0.135692
255 1 5.39677 3.52592 8.24795 0.711853 -1.03889 1.5151
256 1 1.3452 3.61146 8.4355 0.365878 0.0775779 0.442346
257 1 3.83309 0.0113516 0.10845 0.112054 0.0253285 -0.23683
258 1 2.16394 0.36799 2.45363 -0.573818 -0.224819 0.107752
259 1 4.03459 5.68667 0.43471 0.304298 -0.996929 -0.839535
260 1 3.77757 2.78811 6.36291 0.241535 1.18074 -1.60179
261 1 6.85946 4.11927 0.554627 -0.100422 -0.0850511 0.170014
262 1 5.35974 0.569354 2.20879 -0.606905 -0.131911 0.423377
263 1 5.55783 4.38517 4.45608 -1.21887 -0.148183 0.0836789
264 1 7.11507 6.30373 4.95439 0.102606 -0.0804318 -0.41061
265 1 4.56556 4.2348 4.85665 -0.141554 -0.487439 0.824802
266 1 7.99413 8.05371 3.41736 -0.69959 -0.283081 -0.403798
267 1 3.92583 2.72958 2.2642 -0.754648 -1.07482 -0.567081
268 1 5.9723 8.8724 8.15041 0.562897 -0.198438 -0.138588
269 1 2.94098 5.66062 1.03012 0.738357 0.334685 1.4467
270 1 7.45709 8.58759 2.54903 -0.110751 -0.138636 0.280445
271 1 7.39551 7.68144 9.07715 0.121344 -0.031062 -0.532323
272 1 8.85189 0.981698 2.76912 -0.353309 0.326309 -0.968912
273 1 0.0349389 1.64763 3.2805 -0.47629 -0.57988 -0.906578
274 1 5.76492 6.8645 6.56648 -1.16312 -0.416051 0.154933
275 1 3.8443 8.4885 5.79384 -0.486327 0.258147 -0.261776
276 1 0.00802198 5.14107 2.43505 0.416189 0.510147 1.04415
277 1 2.97289 1.69499 3.69787 0.688506 0.488549 -1.07581
278 1 1.68681 5.73658 7.17246 0.401634 -1.20459 -0.349742
279 1 2.04451 9.30892 4.13537 0.297831 0.696195 0.680633
280 1 5.94286 3.81572 2.53195 0.0765599 -0.199661 1.04145
281 1 6.5417 9.00981 4.46373 0.664576 -0.628442 -0.870009
282 1 9.35072 0.328923 2.06771 0.733203 -0.274933 0.584723
283 1 8.7702 8.33953 4.88815 0.546521 -0.465298 0.566514
284 1 7.8979 7.95049 5.47419 1.09618 -0.0427642 -1.92681
285 1 4.72871 6.89965 2.87638 -0.490571 -0.680422 -0.151147
286 1 0.287945 1.9018 8.30168 -0.0590511 0.822987 -0.47389
287 1 3.27287 8.70758 8.70476 -0.230019 1.04795 -0.910411
288 1 2.0886 1.44992 0.104019 1.93542 -0.805975 -0.688899
289 1 6.73334 1.26431 5.51143 -0.361927 -0.645073 0.708828
290 1 1.15631 7.40095 8.38903 0.109217 0.563796 -0.223842
291 1 5.13902 2.47231 8.00389 -0.43553 0.439677 0.0890701
292 1 0.897447 7.72995 6.19659 -1.02393 0.800264 -0.859316
293 1 1.1845 8.97229 4.72422 0.556565 0.194019 1.80768
294 1 7.91514 4.11797 7.95761 1.32789 -0.159363 -0.203333
295 1 7.41637 4.97726 7.29391 -0.553324 1.16698 -0.53556
296 1 5.23193 7.42848 0.589868 0.707944 -1.36863 -0.764479
297 1 3.53773 2.89937 0.623135 -0.0139403 -0.308148 -0.429503
298 1 4.20987 6.56777 5.13261 2.09147 -0.857462 -0.0068607
299 1 6.9516 6.64855 3.1232 -1.00045 0.38991 0.330733
300 1 7.98585 2.40054 2.88672 -0.215146 -0.399236 -0.25611
301 1 9.21715 1.6304 6.4125 1.12466 -0.142911 0.596451
302 1 8.44756 0.450155 5.52025 -0.625173 -0.367298 -0.192602
303 1 0.878877 8.67554 8.5277 0.274511 0.307732 -0.412856
304 1 6.37068 4.77281 2.48425 1.44063 -0.880077 0.815802
305 1 4.85537 1.53766 0.747241 -0.241152 -0.750956 -0.649648
306 1 8.33236 0.310596 3.33663 0.139991 -0.239498 0.000183587
307 1 5.78664 8.3391 0.834978 1.67502 0.407381 0.34417
308 1 7.65812 0.818477 6.02806 -0.283937 -1.0147 -0.608856
309 1 8.56456 5.2881 8.40194 0.121832 -0.0364142 0.525322
310 1 2.80294 4.98178 6.44125 0.519986 0.0985154 -0.478241
311 1 8.4777 8.18446 1.25597 0.565603 -0.166316 0.482739
312 1 2.7763 6.76108 2.42364 1.24086 0.487359 0.0783765
313 1 6.21671 0.477324 1.45224 -1.19587 0.549839 -0.533342
314 1 7.35132 4.84748 2.6106 0.0911118 1.0989 0.0794569
315 1 3.47767 4.10551 6.68273 -0.457123 -0.598975 0.0292367
316 1 1.84889 4.98915 4.10408 -0.510257 0.318658 -0.0868705
317 1 8.46598 2.3267 6.78991 -0.152702 -0.448562 0.580842
318 1 8.54369 7.32403 6.62341 0.215958 -0.145582 0.0266963
319 1 4.40591 0.232169 6.90759 -0.348608 -0.225496 -0.393214
320 1 5.65047 5.78001 5.27595 0.22044 -0.509807 0.361678
321 1 2.31128 1.19473 3.06217 -0.234488 -0.229874 0.264527
322 1 1.09626 7.77808 4.62251 0.209724 -1.45387 -0.354713
323 1 4.81587 8.02144 4.58323 0.342704 -0.372202 -0.0167304
324 1 3.91005 4.68984 8.32397 1.08616 0.218536 0.579928
325 1 4.0845 5.17232 2.94398 -0.353318 0.555286 -0.593435
326 1 8.23555 2.07649 4.89895 0.285111 0.221395 -0.845496
327 1 4.01792 1.15626 9.31904 -0.0483879 0.551777 -1.13505
328 1 5.95708 2.9001 8.9453 -0.367022 -1.08478 0.836721
329 1 7.70375 2.05389 8.2529 -1.49077 -0.586095 0.154021
330 1 4.30802 8.60596 9.05396 0.112685 -0.0332106 -0.662208
331 1 4.27429 2.01933 4.82865 1.2434 1.3939 0.0486359
332 1 2.83501 1.52144 7.54458 -0.128184 0.331349 0.668586
333 1 8.09056 3.94917 1.96409 0.871658 0.750281 0.911871
334 1 2.33284 8.01719 7.10952 0.277896 1.06837 0.601795
335 1 7.8036 1.29321 3.1543 0.31517 -0.646856 0.545705
336 1 0.874359 5.5008 4.76093 -0.179325 0.108929 -0.406807
337 1 4.63123 8.5962 6.49287 1.28487 0.280453 0.997567
338 1 8.73194 0.0674625 8.08512 1.5619 0.877625 0.616597
339 1 0.046731 4.72311 7.84563 0.805042 -0.0374034 0.0220387
340 1 1.59167 8.91568 2.52386 0.240035 0.777023 -0.193546
341 1 8.17005 8.82733 7.54358 -0.616313 -0.264 -0.0900016
342 1 7.68725 5.80936 3.16243 0.567817 -0.538332 -1.35327
343 1 4.2993 4.50352 2.13091 -1.55041 0.121532 -0.0924716
344 1 1.38094 1.01975 5.87511 0.0535896 -0.29512 0.46586
345 1 3.67591 7.43439 5.60887 -0.239814 -0.299089 -0.0268324
346 1 6.93449 5.20313 0.800593 0.0601181 0.69443 -1.56676
347 1 3.38172 2.43915 7.26076 0.301322 0.756249 -0.871445
348 1 8.0849 4.38744 6.68599 1.04182 0.707359 0.724632
349 1 7.23674 4.09341 8.81889 -0.0297254 -1.46611 -0.0592294
350 1 3.61917 3.46035 4.01911 0.471417 -2.03331 0.250763
351 1 8.46167 6.42868 1.82376 0.46844 -0.671707 -0.0923571
352 1 0.715113 8.69785 5.74607 0.891845 -0.424678 0.580894
353 1 0.454295 2.5498 3.90162 0.0957094 -0.590558 0.763111
354 1 2.11476 6.88905 8.21728 -0.296682 -0.469328 -0.240422
355 1 0.0414827 6.21206 0.146457 -0.894978 0.165663 0.963042
356 1 5.4494 4.44003 7.34972 -0.473295 -0.641331 -0.0126799
357 1 0.164747 2.77112 9.38951 -0.827794 -0.766199 0.472941
358 1 6.61687 6.87451 4.14608 0.471312 -1.33369 -0.613458
359 1 4.24963 6.01805 7.36507 0.216527 -0.537199 -0.950032
360 1 2.41646 4.19311 1.79821 -0.45557 0.900591 -0.571745
361 1 5.09312 1.77961 3.74532 -0.112759 0.625008 -0.227243
362 1 4.61645 2.40963 2.99138 0.0901318 0.529225 -0.647883
363 1 7.21991 4.65056 1.63185 1.50025 0.612069 -0.121776
364 1 1.35949 3.28161 7.34745 0.986938 -0.44657 -0.823369
365 1 0.757486 2.31364 0.675436 0.581636 -0.801903 0.154255
366 1 5.32319 8.28813 1.80767 -1.19412 -0.941507 1.36658
367 1 1.24041 4.87749 0.824992 0.165762 -0.594762 -0.96768
368 1 2.80234 8.7534 5.41085 -0.983309 2.29395 1.28834
369 1 8.52856 6.12809 9.07795 0.642964 0.849134 0.313022
370 1 5.94293 0.849958 8.16378 0.309085 -0.260621 -0.192793
371 1 3.42866 6.07716 4.72744 0.184939 1.016 -0.590093
372 1 2.78694 2.34807 8.31487 -0.475476 -0.75462 -0.0643228
373 1 6.62655 6.63718 1.10254 -0.82246 -0.405454 0.982927
374 1 9.37937 7.0534 6.01521 -0.319107 -0.450634 0.305232
375 1 5.22576 5.99329 6.83263 0.26214 0.308166 -0.244296
376 1 3.66965 1.11787 7.12047 0.42457 1.14615 -0.557789
377 1 1.53167 8.22401 7.79768 -0.658324 -0.0992163 -0.761069
378 1 4.36635 1.73877 2.2637 0.676569 0.0199722 0.501003
379 1 6.34289 3.63475 4.39479 -0.270968 0.379553 0.169239
380 1 6.11776 5.93164 6.22597 0.44385 0.702167 1.0316
381 1 4.78602 9.07032 2.42419 1.01141 0.800327 -0.0268857
382 1 5.62388 6.43242 4.40674 -0.246754 0.56119 -0.0408457
383 1 0.66803 8.37281 7.12873 0.486875 1.18663 0.0103992
384 1 3.91549 8.64011 3.88694 -1.18634 -0.460899 0.051729
385 1 4.31501 7.71789 0.285503 0.2792 0.248916 1.16218
386 1 0.416424 4.53519 6.86254 -0.665714 -0.732588 -0.199388
387 1 9.23101 9.28215 3.80423 -0.283959 -0.0271114 -1.07096
388 1 7.68792 1.51678 1.24455 -0.209404 1.11033 1.64901
389 1 6.2162 2.77828 4.95745 -0.908929 0.220228 0.400374
390 1 2.81755 4.83058 3.49427 0.148707 -0.0234301 -0.117376
391 1 7.27697 9.01578 9.31293 -0.417474 0.387582 0.144045
392 1 3.69862 1.6613 0.792778 -0.402922 -1.36179 -0.467225
393 1 1.8694 5.73698 0.736348 -0.717195 0.500001 -0.552193
394 1 7.40597 3.64159 1.27299 -0.349732 1.14789 0.742751
395 1 0.191325 0.267522 8.72462 -0.274204 0.512873 0.301068
396 1 2.46986 2.21282 3.02224 -0.525267 -0.0126722 -0.403649
397 1 5.76613 4.05921 0.607789 -0.85953 0.0859774 0.0441023
398 1 8.61621 3.16957 2.71049 -0.633189 -0.399338 0.439224
399 1 7.09547 2.12049 3.3317 -0.0711658 0.141596 -1.13105
400 1 2.30635 7.84546 2.57477 0.17188 0.381109 0.682707
401 1 4.35187 1.89342 5.97451 0.244439 0.460304 0.248946
402 1 0.749252 5.80563 0.773029 -0.948243 -0.348266 0.439149
403 1 3.34158 4.8111 1.4484 -0.724858 0.406 0.308731
404 1 8.44271 5.02065 7.35235 0.0809881 -0.317794 0.293716
405 1 4.17099 4.60825 5.80875 0.162331 0.307818 0.0733861
406 1 8.20785 0.106489 0.344786 1.61205 -0.535883 0.669844
407 1 7.00839 9.0575 7.47447 0.960045 -0.366017 -0.424165
408 1 1.07785 3.4369 0.124919 1.56577 -0.437804 -1.16062
409 1 3.24632 4.38841 5.73837 1.10208 1.6931 -0.0660515
410 1 0.260244 2.05668 7.27554 1.10107 0.867741 -0.382041
411 1 7.5823 8.31117 4.46659 0.584469 -0.599217 -0.826038
412 1 0.907911 9.07427 3.70104 0.4249 0.212684 0.235881
413 1 1.69498 7.01849 2.11001 0.124322 0.689639 0.0758117
414 1 5.37635 2.29073 0.239475 -0.21113 0.779958 -0.308212
415 1 9.24376 0.332411 0.353142 -0.174602 -0.398383 0.395382
416 1 8.92449 2.00476 0.442227 -0.129808 -1.55081 1.01127
417 1 9.1767 5.59304 4.64973 0.368796 -0.135958 0.921249
418 1 3.21026 2.15928 4.56595 -0.342445 0.0665235 0.0984837
419 1 6.52752 2.80204 2.33164 0.600762 0.631907 -0.900774
420 1 0.558027 3.46699 4.32007 0.325148 -0.982802 -1.22579
421 1 6.1121 6.67036 5.46155 0.543758 -0.0707368 0.30751
422 1 9.22241 2.23698 5.4969 0.281382 -0.0732572 0.0202228
423 1 0.101224 4.6098 4.15781 -0.458134 0.447316 0.065689
424 1 4.84082 7.73464 3.63311 -0.498526 -0.306963 0.929664
425 1 1.3921 2.60217 5.67553 -0.873265 -0.542024 -0.238635
426 1 5.09612 9.39196 7.79288 0.593839 0.382196 0.473262
427 1 8.1021 3.21707 7.48353 0.298053 0.899806 -0.528616
428 1 2.85654 8.74629 7.70315 0.405785 -0.615481 -0.102132
429 1 6.40567 0.354798 2.5293 0.385209 -0.643879 0.255437
430 1 6.02071 4.0183 5.31633 -0.149274 0.658097 0.437039
431 1 8.589 3.41113 6.48339 0.48427 0.485008 -1.41808
432 1 4.56875 7.90972 7.41764 -1.03508 0.00140225 -0.165848
433 1 2.77814 7.61833 5.19545 -0.628947 0.461919 -0.0833597
434 1 7.93981 8.2261 0.293926 0.389944 -1.0771 0.543506
435 1 0.778852 3.32273 1.11316 -0.358293 -0.29866 -0.37297
436 1 9.112 7.12475 0.216619 -0.991086 0.371547 -0.000945224
437 1 7.39575 6.54512 2.15931 0.618303 0.760745 0.439004
438 1 1.90555 7.35382 9.15478 -0.835901 -0.187116 -0.750377
439 1 3.85683 7.58716 3.89227 -1.14346 -0.534702 -0.192521
440 1 7.53191 6.46875 3.95332 -0.387291 0.857626 -1.43295
441 1 5.20629 1.39114 2.77535 -1.06024 -0.527457 0.740214
442 1 4.93177 3.86948 5.71864 -0.514562 0.333976 0.998266
443 1 2.36882 6.66392 0.689686 0.415353 1.41078 0.804071
444 1 0.985531 6.25509 3.32492 -1.60072 0.435349 0.62293
445 1 6.40306 2.03061 0.146642 0.767256 0.023663 -0.294844
446 1 8.30756 2.62518 5.72928 -0.678736 -0.0260606 -1.32652
447 1 1.15771 4.87512 2.64767 -1.89697 -1.04098 0.990779
448 1 7.15937 8.52585 8.33519 -0.841841 0.185349 0.417766
449 1 3.24446 2.04356 9.35562 -0.400662 0.400041 0.564179
450 1 4.67516 5.53789 8.3513 0.184417 -0.246949 -0.416882
451 1 4.9284 8.52285 8.26225 0.215667 -1.22759 -0.0445271
452 1 3.47089 7.77376 9.026 0.0150738 -0.91223 -0.31331
453 1 3.66049 8.54587 7.07582 1.2462 0.434638 -0.55921
454 1 4.04773 9.12241 8.13317 0.459324 -0.34948 -0.288386
455 1 8.46462 4.97907 4.2965 0.981552 1.17811 0.401738
456 1 8.88135 4.62992 5.12181 -0.851348 0.358221 -0.816238
457 1 5.36255 7.98817 9.04001 0.685262 -0.204167 -0.338461
458 1 2.90826 6.24096 3.26632 -0.302799 -0.728976 -0.940207
459 1 8.45976 3.96271 0.988628 0.835559 0.982578 0.228069
460 1 7.61145 2.98866 6.60431 -0.949901 -0.372762 0.643106
461 1 7.79689 2.98866 2.04276 0.953006 0.475304 -0.72179
462 1 3.27169 8.00485 2.08976 -0.857307 0.708567 0.206
463 1 4.23482 2.2008 0.040655 -0.794937 -0.176774 0.275015
464 1 8.87791 3.67656 8.12581 -1.21929 0.243443 -0.493809
465 1 2.13873 9.26162 7.30194 0.280587 -0.0984992 0.369669
466 1 3.58081 0.478958 8.61954 -0.19306 -0.442914 -1.73774
467 1 5.09307 2.48779 2.06343 0.957858 -0.120942 0.0818544
468 1 7.92111 9.09556 4.96044 -0.409133 -0.199138 -0.18547
469 1 7.23876 2.32031 5.15347 0.482914 -0.719658 -1.94363
470 1 9.13513 3.01872 7.33418 -0.415509 0.651239 -0.143789
471 1 5.99864 0.760169 6.24404 0.783205 -0.730939 -0.00769553
472 1 7.84626 3.09102 4.76273 -0.625537 0.434736 0.100794
473 1 5.95121 2.37264 1.25703 -0.204724 -0.518689 0.63412
474 1 8.73225 8.73907 2.98417 -0.667102 0.415693 0.87943
475 1 3.25371 1.79612 6.3955 0.144177 0.13447 0.58738
476 1 9.17864 1.01126 8.01763 0.407784 -0.326517 -0.122503
477 1 2.74784 9.20049 0.702756 0.41068 -0.597407 0.053747
478 1 2.82606 0.361173 1.6746 0.829461 -0.473849 0.676548
479 1 1.51041 2.62375 2.64215 -0.574331 0.824423 0.459464
480 1 6.76791 2.34403 8.4589 0.941703 1.92079 0.381478
481 1 3.68433 6.97539 1.83136 -1.53471 -0.471387 1.23368
482 1 2.58717 5.67624 4.12485 0.0928009 0.273019 0.541886
483 1 6.16472 6.14497 3.50779 0.0421312 -0.80936 -0.0204589
484 1 5.48882 0.571524 7.05714 -1.21506 -0.0885948 -0.219497
485 1 5.55845 6.27806 8.59138 0.128238 0.0212449 0.107431
486 1 8.91094 2.20746 2.46964 0.299692 0.393681 -0.469063
487 1 8.798 4.40187 3.354 1.13049 1.03556 -1.14195
488 1 8.60024 6.05358 3.8164 1.24658 0.752311 -0.144776
489 1 2.59983 1.47433 2.12691 0.52319 0.836123 0.202847
490 1 5.67548 7.46165 4.09634 -0.119189 -0.0645133 0.160386
491 1 8.38322 8.84679 4.11194 -0.689578 0.109965 -0.0596385
492 1 8.784 6.94885 7.6337 0.226717 -1.30801 -0.707881
493 1 5.68562 1.87011 8.65315 -0.461429 0.583652 -0.632997
494 1 7.92215 2.42182 3.93669 -0.0467738 0.339632 0.424638
495 1 4.17721 3.38393 1.47382 1.18308 0.419755 -0.469552
496 1 1.71035 1.83909 5.20982 -0.771215 -0.0304597 -0.520221
497 1 1.79913 0.632791 8.8142 0.699338 0.330913 -0.967463
498 1 7.84855 0.514615 1.53736 0.989956 0.625528 -0.982213
499 1 3.36492 3.09553 4.90462 0.362085 0.758285 0.742562
500 1 5.84435 6.68384 0.246879 -0.15504 0.878537 0.597072
501 1 4.94355 7.51583 6.56004 0.210932 -0.281083 0.210002
502 1 1.62465 3.96868 2.75184 -0.438118 0.545434 -1.18386
503 1 5.07852 6.48231 5.93398 0.0532505 0.0546955 -0.563727
504 1 5.4412 8.1708 2.88251 -1.36171 0.536258 2.30416
505 1 7.48532 6.01173 8.71667 0.909307 0.710486 -0.693003
506 1 1.79767 7.34259 5.28557 -0.0391437 0.76521 0.559265
507 1 6.72712 0.11745 8.57234 -0.0299006 -0.892848 -0.347311
508 1 4.59582 7.44401 1.4228 -0.19787 0.589647 0.186182
509 1 8.17886 1.02899 7.86531 -1.07395 -0.218026 0.150852
510 1 1.83883 1.24816 4.075 0.0769343 0.202162 0.337966
511 1 6.95691 5.29191 6.25555 0.570291 -1.00366 0.000835443
512 1 8.35214 8.02718 2.43921 0.161895 1.17139 -0.625803
513 1 2.11642 7.44639 4.27973 0.0794776 -0.370855 0.0261047
514 1 9.27083 6.5145 5.1194 -0.260343 0.136355 1.13455