ITEM: TIMESTEP
86040000
ITEM: NUMBER OF ATOMS
1000
ITEM: BOX BOUNDS pp pp pp
0.0000000000000000e+00 9.4000000000000004e+00
0.0000000000000000e+00 9.4000000000000004e+00
0.0000000000000000e+00 9.4000000000000004e+00
ITEM: ATOMS id type x y z vx vy vz
1 1 4.41205 7.38792 3.39686 0.939023 -1.15805 -0.222231
2 1 2.56985 5.36047 1.75765 0.239867 -1.07605 0.0256298
3 1 2.46585 3.95044 6.44679 -0.0798013 0.821005 1.26164
4 1 2.17828 6.71079 0.246949 0.705474 -0.335051 0.752139
5 1 1.55924 0.472802 3.96066 -0.466789 -0.277479 0.63465
6 1 4.90637 5.96627 4.84982 -0.273098 0.431266 0.164889
7 1 6.68808 5.12023 6.4848 0.336464 -0.831819 1.82587
8 1 8.68694 2.20328 6.55483 1.35683 -0.386983 -0.261023
9 1 1.41025 7.48314 5.67961 1.32912 1.28142 -0.289677
10 1 0.147366 6.36007 9.37044 0.582812 0.691324 -0.635791
11 1 4.05999 1.1411 4.98103 -0.118766 0.0307967 0.277044
12 1 7.74175 2.1409 7.30429 -2.18223 0.731494 -0.555227
13 1 7.60719 9.19513 7.42925 0.0601859 1.66083 2.1139
14 1 3.05213 3.93138 8.19867 -0.815935 -0.179575 0.172527
15 1 -0.0246035 8.74163 7.89956 -2.06744 -1.58281 0.798946
16 1 9.09206 7.06603 8.80263 1.4017 0.0390876 0.44527
17 1 6.65882 9.21962 2.00884 0.836596 -0.470154 -0.579812
18 1 5.86956 7.21834 5.69791 -0.610213 -1.33672 -0.222747
19 1 8.63222 6.5306 1.58259 -0.126342 -0.347769 1.28116
20 1 7.10211 3.18817 1.63726 1.02225 -1.55363 -1.35722
21 1 9.02868 2.36673 9.1635 -0.0515576 1.15762 1.07027
22 1 7.37772 0.0828014 0.378503 -0.192882 -0.620508 -1.03267
23 1 6.91658 0.377704 8.24512 -0.276364 0.479593 0.164018
24 1 1.51783 4.5325 8.87897 -0.00758094 -0.116708 -0.619236
25 1 4.92674 8.70796 2.28794 -0.289497 0.917445 -0.0485269
26 1 5.65078 1.90772 3.57038 0.304292 -0.516224 -0.0358061
27 1 6.41311 2.68244 8.74658 0.401593 -0.394068 0.379704
28 1 6.66718 3.17811 2.66728 -0.210735 0.279517 0.171421
29 1 0.712859 5.17109 8.98694 0.429968 0.11166 -0.254133
30 1 8.98926 1.22663 3.09698 1.39257 -0.719224 0.598493
31 1 0.312598 0.981434 2.29774 0.812263 -0.492561 -0.980047
32 1 5.69665 5.55468 6.31558 0.913938 -1.5529 0.696777
33 1 6.26484 8.23645 0.549522 0.204959 0.263717 -0.268533
34 1 3.70293 7.79645 0.410374 0.0406203 -1.04117 0.951786
35 1 3.80592 5.85196 4.91267 0.34054 -0.0285354 -0.0969774
36 1 2.86407 9.35166 2.6078 0.671006 0.0442982 -0.360768
37 1 7.89398 4.53694 7.60696 0.0251002 -0.170455 0.283361
38 1 0.741084 0.483901 0.77015 -0.50868 -0.243216 0.425904
39 1 5.29047 7.86289 2.80094 0.553207 -0.929772 0.018979
40 1 4.31604 0.856054 8.37399 -0.443315 -0.119648 0.576753
41 1 4.72226 0.35553 6.48489 0.265752 -0.609877 -0.379598
42 1 0.919941 9.17887 3.50514 -1.01012 0.528398 1.1561
43 1 5.11997 0.439687 8.8447 0.450204 1.02473 -0.866263
44 1 2.64098 1.14744 4.09261 -1.22682 -0.941886 -0.547383
45 1 1.40814 7.15547 8.97296 -0.0471721 -0.117465 -0.0324033
46 1 1.11191 4.47776 2.94552 0.305066 -0.734824 -0.34917
47 1 7.56113 9.06196 1.39784 0.265497 0.00393727 0.607409
48 1 3.22052 1.75657 4.97715 0.649838 1.25195 0.571591
49 1 1.24458 2.3386 6.13571 -0.0284198 0.499772 0.54368
50 1 8.04403 2.38916 4.6265 1.23628 0.633456 0.157192
51 1 8.27606 7.35376 2.18551 0.58353 0.0162651 -0.67669
52 1 5.05654 7.8998 1.66964 -1.99395 0.374583 0.432826
53 1 0.264514 8.76826 8.93274 -0.683703 0.827528 -0.824627
54 1 5.58445 8.98104 5.76763 0.142974 0.488755 -1.89383
55 1 2.19422 4.60875 3.0305 1.06471 -1.01898 -0.307193
56 1 2.11618 7.72987 4.9081 0.231607 -0.824922 -0.0543099
57 1 3.58056 4.88362 5.3909 1.44706 0.535972 0.429803
58 1 5.26341 5.49495 1.20963 1.39733 -0.138224 0.184872
59 1 5.57321 6.46872 6.90375 0.352676 -0.111008 0.000656962
60 1 2.75445 1.84515 5.9831 0.103044 0.405861 0.0232275
61 1 3.56345 6.90803 3.74408 -0.363445 -0.970445 -0.300547
62 1 5.7862 8.60709 1.38398 -1.11492 -0.913556 1.2825
63 1 9.36934 4.03603 5.43914 1.79089 -1.29868 -0.492964
64 1 8.05251 8.15168 1.54186 -0.117619 0.701916 -0.390448
65 1 7.39832 1.4476 2.822 0.836434 0.086995 -1.08439
66 1 1.28162 1.66132 8.45887 0.0975256 -0.215828 -0.610639
67 1 0.409205 5.898 6.37149 0.535383 1.19717 0.428428
68 1 4.79607 6.88138 7.43545 0.420647 -1.48716 0.456883
69 1 8.39832 6.93054 4.59656 -0.376828 0.876953 1.29081
70 1 8.73309 6.09657 3.77503 0.682215 -0.979587 1.01508
71 1 6.43093 7.93741 7.45712 -1.28049 0.916517 -1.16456
72 1 2.74417 3.05701 9.23026 0.188578 0.473991 -0.305169
73 1 4.25272 5.34362 1.8642 -1.33657 0.116416 0.0929234
74 1 3.84599 0.534055 2.49002 0.448754 0.20714 -0.789858
75 1 5.03099 2.90395 1.88309 -1.09323 1.14102 0.41141
76 1 8.0113 6.30611 6.94129 0.280835 -0.860599 -0.415547
77 1 1.58596 4.26522 5.7742 0.907689 -0.290149 0.597586
78 1 4.42223 7.00101 1.90591 -0.344584 0.596038 -0.0301753
79 1 6.21132 9.01411 7.51032 1.6832 0.268741 -0.674787
80 1 0.301838 1.53637 8.90411 -1.59946 -0.573082 0.499918
81 1 3.10392 3.54948 7.158 0.756779 0.504948 0.102945
82 1 4.59339 0.230183 1.89346 -0.48107 -0.230232 -0.447596
83 1 4.32791 7.47744 5.49579 -0.552958 -1.09871 0.166499
84 1 1.11639 3.05039 7.00163 -1.40969 -0.868555 0.221214
85 1 7.36227 3.01633 8.72525 0.552579 -0.719738 0.602874
86 1 3.63441 4.63495 7.43699 -0.896123 1.48769 0.10344
87 1 2.63184 2.60921 5.26885 0.62275 -1.01855 -0.151776
88 1 9.21998 0.502632 1.24931 0.760966 -0.176471 -0.123892
89 1 6.65354 5.8142 2.51212 0.138755 0.366392 -0.274618
90 1 5.30869 6.44303 3.12232 1.13358 -0.977492 -0.908133
91 1 0.713756 6.69244 2.94228 0.387664 0.588081 -0.45912
92 1 8.19213 0.483617 9.26711 -0.110396 0.0827826 0.926952
93 1 3.31705 9.06565 5.8454 0.150594 -0.265129 -0.666965
94 1 1.75493 5.23212 4.93987 0.739445 0.216805 -0.919029
95 1 7.83033 7.69796 5.27 -0.976772 0.306258 0.0913822
96 1 5.62878 7.34004 7.6146 0.686005 0.455799 -1.11408
97 1 1.28166 4.74314 0.497786 0.585743 0.470436 -0.602204
98 1 5.76368 7.2851 0.998749 0.300957 -0.253805 -0.199095
99 1 6.1708 8.2438 6.45827 -1.09642 0.0289058 -0.0116014
100 1 6.348 7.1262 0.105789 -0.485906 -0.00767661 -1.61303
101 1 4.9999 5.34511 7.65942 -1.08949 -1.0522 0.535737
102 1 3.28611 3.58363 2.48264 -0.0817109 -0.196413 0.423968
103 1 4.7308 7.97235 4.40025 1.31779 -0.425269 0.0573297
104 1 5.80862 6.44981 5.04003 0.747296 -0.0285886 1.48817
105 1 0.412773 7.84222 5.51942 0.493113 0.0169055 0.418875
106 1 8.41104 0.634804 5.96856 -0.365165 -0.483034 -0.702389
107 1 4.63216 4.82678 2.67106 0.471371 -1.07493 0.395784
108 1 7.98929 8.25759 3.02115 1.40674 -0.444649 1.20616
109 1 6.13 3.63966 8.38334 0.00255619 0.243609 0.864048
110 1 7.27551 6.37039 0.394907 0.133873 -0.903136 0.648343
111 1 6.14495 9.14642 8.48532 0.44322 0.0559986 -0.303018
112 1 6.73113 3.4966 9.39941 -1.7552 0.162491 0.351276
113 1 3.35969 5.03606 0.245821 -0.259569 0.314929 -0.52197
114 1 4.86161 3.90578 3.27939 -0.458215 0.120753 -0.121212
115 1 4.70075 1.72346 4.05124 0.708875 0.651873 1.27529
116 1 7.35449 1.95999 9.07138 -0.0282317 0.417862 1.55037
117 1 8.17386 8.59428 8.13645 0.195184 0.599496 -0.856732
118 1 8.10068 3.68806 1.06621 -0.0483897 0.296337 -0.169812
119 1 3.8636 2.94559 6.71634 -1.0936 -1.0292 -0.372829
120 1 1.9432 7.25929 7.85815 0.270584 0.196439 0.983233
121 1 4.22042 2.2537 4.9174 -0.0656447 0.446576 -0.615478
122 1 2.07458 8.7752 4.92458 0.16121 -0.26804 0.64604
123 1 4.74973 5.49603 0.142535 -0.951969 0.444368 0.102312
124 1 8.63669 8.94102 6.09131 0.0318423 1.19966 -0.214008
125 1 5.82582 4.62003 6.72488 0.104105 -0.164482 0.325731
126 1 8.3117 5.09779 1.14582 -1.03082 0.128723 0.991056
127 1 3.19324 7.44086 4.91591 0.767822 -0.174551 -1.43822
128 1 7.68196 6.63188 5.19796 -0.361392 0.776515 0.870822
129 1 8.83597 8.14788 8.79467 1.75578 0.222255 -0.134052
130 1 3.46045 2.38298 1.30014 -1.38407 -0.226452 -1.2888
131 1 7.80413 1.56332 1.69776 0.18893 1.03182 0.693551
132 1 8.90267 7.47511 1.19743 -0.957121 -0.748161 0.739559
133 1 6.10027 2.92578 3.57575 -1.21321 0.267829 0.339098
134 1 0.174636 6.72259 1.05835 -1.17529 0.304773 0.00654879
135 1 7.43725 7.26036 4.32809 -0.0837555 0.260896 -0.416497
136 1 6.3428 9.33379 6.49029 -0.579372 2.48223 0.0802667
137 1 2.31952 6.37684 7.56408 -0.250321 1.34293 -0.620518
138 1 4.33155 7.80868 6.47163 1.38931 -0.317356 -0.134758
139 1 1.53998 1.03866 7.57213 -0.663614 -1.41023 -0.287433
140 1 0.35868 3.88266 0.549997 -0.235018 -0.513429 -0.0179665
141 1 1.70703 8.73002 3.98257 0.226197 0.690281 0.836256
142 1 5.77361 0.6801 6.10366 -0.213024 1.4571 0.43401
143 1 5.21351 2.76474 0.795593 0.00902699 0.361741 -0.595031
144 1 1.42553 1.17377 4.78564 -0.872867 -0.788478 1.50523
145 1 8.99433 2.90972 8.33032 0.875214 -0.620858 0.0385475
146 1 4.72221 1.26262 2.27891 -1.11578 1.37061 1.01717
147 1 6.97684 2.10271 8.06538 0.434285 0.0653736 0.465101
148 1 1.72295 7.61243 3.84559 -0.748274 1.09272 -0.432544
149 1 3.05708 1.54464 2.99087 -0.367853 0.328398 0.848985
150 1 1.13949 7.89606 4.72578 -0.0799234 0.951132 -1.12157
151 1 6.35618 7.15778 6.78635 -0.0665232 -0.354639 -0.235361
152 1 5.34426 8.99511 6.85532 -0.552967 0.01812 -0.143406
153 1 3.615 6.74815 0.788578 0.912934 0.200756 0.425479
154 1 3.44597 5.73993 1.28579 1.12145 0.36205 -1.07389
155 1 7.4222 9.15041 3.03755 -0.201762 0.818851 -0.833694
156 1 6.63587 8.74523 5.54242 -0.410581 -1.48224 0.190873
157 1 6.30925 4.4828 8.97689 0.288414 0.595664 -0.397338
158 1 3.96172 7.48305 8.77228 0.314794 -0.0685392 0.374029
159 1 2.427 7.30571 5.81121 1.15798 -0.148655 0.0168425
160 1 7.4732 5.50306 7.15085 0.1742 0.554211 0.320503
161 1 1.07411 1.91784 7.33912 0.00640616 -0.991696 -0.713822
162 1 0.587042 4.1853 2.03445 -1.4755 0.132267 0.454845
163 1 7.62754 9.17846 5.78456 -0.633669 -0.340227 0.260984
164 1 2.77603 0.839378 6.2579 -1.29565 -1.18965 1.51527
165 1 2.59969 7.09734 4.08659 0.375181 -0.18802 0.446225
166 1 6.26384 5.36748 8.3342 -0.353901 1.45945 0.861814
167 1 3.65996 9.10805 1.74025 0.214559 0.660014 0.0137303
168 1 6.5275 4.97341 0.966492 0.160754 1.07711 0.963866
169 1 0.78275 5.89107 0.699698 -0.557903 0.0445553 -0.532303
170 1 0.622611 1.83607 4.22581 -0.784281 1.16866 -0.195236
171 1 3.01824 8.27841 8.57954 -0.614608 0.773627 -0.259382
172 1 2.37358 4.85017 0.127912 0.705916 -0.286257 -0.576633
173 1 3.21184 4.68092 1.22392 -0.0881375 0.0421296 0.282111
174 1 4.3238 4.44211 9.14486 -0.199501 -0.376141 -0.406848
175 1 7.24221 3.74643 7.81672 -0.341914 -0.151304 -1.04545
176 1 1.82946 0.629517 5.73634 0.730566 -0.700674 -1.51684
177 1 5.06706 6.1097 2.09637 0.0677047 0.292765 -0.114368
178 1 6.94078 3.96618 0.92184 -1.05863 -0.657981 -0.480298
179 1 5.87472 4.09926 3.39214 -0.106393 1.02304 -0.724593
180 1 0.255214 8.78676 5.80416 1.46169 -0.469971 -0.266721
181 1 7.55508 6.69878 2.01281 0.181465 -0.583954 0.790017
182 1 2.23303 0.426557 4.75223 0.202759 -1.50821 -0.0907523
183 1 3.85631 4.08698 0.581711 0.368078 0.215894 -0.707609
184 1 5.48234 6.25355 7.9542 -0.566951 1.01798 -1.63239
185 1 7.6638 8.12823 7.33646 -1.30908 1.76325 0.651791
186 1 0.646554 3.48997 2.90259 -0.350588 1.21659 -0.788753
187 1 1.81141 1.77669 5.52552 -0.751203 0.238898 -0.564356
188 1 0.653538 6.71451 1.88536 1.33126 -0.827642 0.842319
189 1 2.74475 5.47546 4.93269 1.75434 -1.08012 1.08954
190 1 6.02741 5.26797 1.81687 -0.789647 0.0169703 0.481319
191 1 4.85844 3.14388 5.062 0.282657 0.349318 0.510524
192 1 2.57145 0.805011 7.78061 0.331347 -0.741992 0.316261
193 1 4.45601 2.02137 1.51331 -1.43849 0.615653 0.565623
194 1 0.221531 8.53503 4.7848 0.220704 0.292405 1.09453
195 1 5.30127 9.25528 3.08583 -0.741328 0.185076 -0.74057
196 1 0.944401 9.34535 2.45249 0.31025 -0.681837 -0.485443
197 1 5.67003 3.80327 1.47432 0.0537915 -0.00493296 0.00431825
198 1 8.44544 0.319466 6.98449 -0.600017 -0.570654 0.104427
199 1 7.12547 9.30967 4.87048 -1.28941 0.556885 -1.18385
200 1 4.10556 0.231682 9.25824 0.51237 0.335534 0.00876076
201 1 5.39262 2.41153 4.51489 -0.592788 0.610323 0.785644
202 1 2.68503 6.5032 3.10408 0.316523 1.42394 1.09621
203 1 5.03091 1.22036 7.00144 -1.30455 0.561575 -0.444552
204 1 6.13762 7.74424 1.85139 -0.804434 -0.136117 -0.420381
205 1 3.77316 0.609574 6.10016 -0.0413945 -1.1539 0.285209
206 1 4.39064 0.526159 7.44967 0.738066 -0.221855 1.36896
207 1 7.27596 4.06394 2.47135 0.947459 0.0452754 -0.712224
208 1 0.176663 5.05215 2.35035 0.167972 -0.135547 0.628215
209 1 5.74451 8.25061 4.69623 0.297056 -0.406548 0.155102
210 1 1.50401 2.65745 7.90247 0.310868 0.485782 0.205041
211 1 6.58129 9.13715 0.942312 -0.665143 -0.336592 0.017741
212 1 5.42281 7.41789 3.80563 -0.453081 0.290023 0.396486
213 1 1.45122 6.91618 4.73532 -0.382739 0.247471 -0.565365
214 1 7.70271 3.22248 3.09208 0.166089 0.602707 0.396354
215 1 5.68104 6.22995 3.97213 -0.879404 0.20805 0.414768
216 1 7.1477 4.20891 6.79803 -0.508021 1.51057 0.535686
217 1 1.82234 0.544882 8.45701 0.116912 0.895216 0.874833
218 1 2.27841 3.01698 2.4515 0.158496 -0.0638344 -0.981429
219 1 0.21729 4.97121 0.555522 0.785466 0.148677 -0.570721
220 1 0.978479 1.47085 0.855233 0.382058 -0.53661 -0.00183151
221 1 5.36777 7.53912 6.65017 -0.918431 -0.282596 0.382255
222 1 4.37675 6.15751 1.17089 -1.48698 0.138235 0.934661
223 1 3.78745 1.54917 8.99203 -0.0784448 -0.2035 -0.743388
224 1 6.25122 5.53892 4.54037 0.0898091 -1.29725 1.04549
225 1 2.4044 3.02343 8.15839 0.0247612 1.38019 0.927645
226 1 3.62983 2.44677 5.77496 0.555539 -0.918623 0.833213
227 1 7.33543 5.71265 4.8246 0.877803 -0.880748 0.84414
228 1 6.78463 0.42204 7.24554 -0.208705 0.847086 0.297047
229 1 8.67511 2.27787 7.58609 0.217446 -0.283851 0.49492
230 1 7.43071 1.23551 8.04515 -0.111529 -0.699349 -0.379873
231 1 6.70397 4.81765 7.46882 0.0247336 -0.400599 0.330065
232 1 5.70706 4.52906 7.93798 0.399534 -0.35627 0.0230063
233 1 8.53108 9.18733 3.2612 -0.670253 0.378901 -0.292686
234 1 5.28728 9.07168 4.12346 0.457729 0.229476 0.494222
235 1 7.4391 8.30895 0.655342 -0.292954 0.557225 -0.355976
236 1 8.77328 3.79479 4.54798 0.151854 0.584467 0.0917335
237 1 7.63871 2.17359 3.65071 -0.372835 0.511229 -0.708481
238 1 7.12633 1.34429 6.96631 1.67654 0.255809 -0.750984
239 1 6.52326 5.71104 5.62474 -1.60694 0.447346 -0.242378
240 1 0.0484045 1.30371 0.540399 0.406353 0.198928 1.00193
241 1 3.23555 4.38044 3.09454 -0.601061 0.813729 -0.138409
242 1 4.17186 3.65286 7.48575 -0.344986 -1.03343 -0.306732
243 1 6.35998 7.66975 4.08304 -0.545587 0.828634 1.61829
244 1 7.09566 4.63065 4.29668 -0.74109 0.401651 0.894128
245 1 6.5203 4.29638 1.8031 -0.163973 0.434521 -0.772879
246 1 8.46118 1.50692 3.97451 0.185426 -0.200142 -0.991534
247 1 6.19259 3.1171 0.919718 -0.763857 0.304797 0.289385
248 1 5.19293 8.00585 5.65048 1.30967 -0.637942 0.311489
249 1 5.41604 4.96872 5.09603 0.951568 0.990364 -0.320862
250 1 5.24123 4.48521 4.11715 -0.141147 0.0287339 0.385791
251 1 7.02231 2.80833 4.28579 0.717987 0.307802 -0.644169
252 1 8.58409 5.87477 4.73888 0.584993 -0.459908 0.722461
253 1 2.35444 7.84219 1.96906 0.255466 -0.409649 0.0989842
254 1 5.68028 3.22143 9.32311 -0.578333 0.454591 -0.894019
255 1 4.86863 4.60183 1.64686 -0.00171131 -0.126411 -0.558578
256 1 1.23159 3.7013 9.4115 -0.0255739 -0.378172 0.984637
257 1 7.65961 8.80219 3.94949 0.560693 0.308773 0.374813
258 1 3.59703 6.97374 2.61525 0.111907 -1.41434 0.453437
259 1 4.4369 3.78812 4.24321 0.73714 1.00057 -0.26726
260 1 3.74566 4.60776 2.1813 0.133239 -0.259843 0.518767
261 1 0.602002 6.76981 8.41199 0.00194975 -0.186323 0.509938
262 1 6.1432 0.826741 8.88673 0.415133 -2.05234 0.454862
263 1 7.93884 4.47466 4.92663 -0.524401 0.374171 -0.594515
264 1 6.44872 4.66861 5.18061 0.119989 -0.198005 0.712176
265 1 3.80026 3.03241 0.591805 -0.261348 0.144074 -0.0129032
266 1 9.1091 5.48781 9.15773 -0.286221 1.05189 0.398872
267 1 6.21496 2.63608 1.91521 -0.168565 1.02453 0.81841
268 1 7.29066 1.00301 9.05523 -0.77103 -0.204741 -0.262041
269 1 1.40895 6.13539 1.53094 0.953601 0.33836 -0.378704
270 1 0.25972 8.64618 2.89524 -0.0291324 -1.97167 -0.0224648
271 1 1.70422 7.70348 0.43061 0.1535 -0.727916 0.305196
272 1 2.03242 3.31497 0.568356 0.521379 -0.284793 -0.187772
273 1 8.90204 4.73817 3.87675 0.695521 0.241579 0.776365
274 1 4.59874 2.64068 7.74 0.915934 0.56233 0.618246
275 1 5.52465 0.220046 1.04503 0.364307 0.88378 -0.635703
276 1 8.3036 8.83091 0.129057 -1.07701 -0.830516 0.191226
277 1 6.5809 2.10901 2.96351 -0.1203 0.658947 1.3594
278 1 2.85447 3.17418 4.42472 -0.710393 -0.835508 0.156543
279 1 0.286782 3.35338 9.03366 0.675647 -0.0976068 0.664694
280 1 3.38507 0.511625 8.42056 0.343501 -0.502322 0.0404218
281 1 4.04478 8.95885 2.74307 0.273827 -0.819747 0.266165
282 1 0.565437 8.26336 3.85405 0.404448 0.645137 0.679638
283 1 1.73774 7.40507 6.68768 0.74383 0.355811 -0.631509
284 1 6.68973 6.40213 4.15162 0.182743 0.755389 0.774324
285 1 9.19589 1.3551 5.78163 0.294424 -0.107314 -1.5613
286 1 1.98466 0.495696 6.89841 -0.139617 -0.765534 -0.314969
287 1 4.44802 8.87527 6.00427 0.597966 0.953654 0.485622
288 1 1.71539 7.13233 1.36113 1.09991 -0.411495 -1.62704
289 1 7.72102 2.4627 1.25873 -0.0950735 0.318858 -0.467328
290 1 5.51836 3.68502 6.58395 0.524158 0.219135 -0.39941
291 1 8.00889 2.98358 7.78067 0.50931 -0.493202 -1.16992
292 1 7.34655 3.09268 6.9664 1.24943 0.335575 0.473889
293 1 8.55124 3.86251 3.4367 0.316635 0.73888 -1.3679
294 1 9.07566 4.07168 6.68263 0.528654 0.669344 -0.0363556
295 1 5.61508 2.72485 6.92459 -0.974014 -0.270998 1.4259
296 1 8.33422 7.85741 0.410816 0.269185 -0.893815 -0.126015
297 1 9.12825 6.04884 5.60458 2.02991 0.182369 -0.263237
298 1 0.794932 4.77027 5.20495 -0.0722229 0.0854024 -0.217881
299 1 3.40093 0.715369 7.1064 0.582987 0.182421 -0.0222708
300 1 0.56786 0.82893 3.69586 -0.527742 0.210907 0.107077
301 1 5.26364 9.36691 7.88843 0.0446391 1.74224 -1.52531
302 1 8.03657 0.300501 4.43423 0.541325 0.394602 0.413575
303 1 3.17997 4.04229 4.87952 0.590103 -0.652033 -1.64331
304 1 1.26655 6.11438 9.24137 0.271912 -0.818191 0.603802
305 1 3.81411 8.23059 7.90223 -0.194623 -1.57024 -0.131314
306 1 1.37498 8.18526 1.28891 0.277164 -0.335431 0.545654
307 1 6.02863 9.36281 4.91374 0.0883824 1.01652 -0.393912
308 1 2.25069 7.66197 8.90244 -0.652261 0.685289 -0.168951
309 1 9.10202 6.16738 7.24073 0.437382 -0.131747 -0.905712
310 1 8.09158 7.2301 3.54333 0.227283 -0.59213 -0.0330954
311 1 0.557025 7.67685 0.981345 0.40499 0.353293 -1.24346
312 1 5.26683 6.39249 0.629441 0.759582 0.294132 -0.421432
313 1 4.66802 6.46612 3.90992 0.65722 0.154949 0.329641
314 1 7.14768 0.660987 1.44886 -1.48714 1.0524 -0.117286
315 1 3.96924 5.51161 7.90509 -0.0292934 0.418727 0.595413
316 1 9.19226 4.41099 9.026 -0.10884 -0.176154 1.12301
317 1 7.77302 6.27797 4.10641 -0.272614 -0.0736419 -0.62121
318 1 0.058722 3.33397 3.78508 -0.978355 -0.782467 -0.019732
319 1 2.61191 1.99095 1.98822 0.654942 0.227176 0.278095
320 1 3.29878 8.87968 3.63926 0.400863 -0.242977 0.431169
321 1 0.519146 2.31576 0.365125 0.425308 1.81471 -0.101019
322 1 3.5209 9.20008 7.5935 -0.615199 0.546101 0.178465
323 1 0.0864103 2.09028 1.27616 0.0108925 1.02324 -0.256339
324 1 2.50032 6.67226 8.64297 0.808992 -0.603985 1.35693
325 1 8.5356 6.73959 0.439075 0.113987 0.338363 -0.0578792
326 1 4.85984 2.66543 3.53144 -0.0338032 -0.0183748 0.118062
327 1 2.42102 2.43539 1.14625 -0.449238 -0.254158 -1.75024
328 1 7.78815 3.61547 4.14953 0.149257 0.364796 -0.787571
329 1 9.00323 0.0862154 0.393666 -1.50795 -0.0803503 0.774025
330 1 4.64997 3.68815 1.21261 -0.92245 0.0358447 -0.487321
331 1 1.14841 9.37866 6.3573 -1.21366 -0.263919 0.00100367
332 1 2.00168 2.46192 6.79049 -0.673911 0.68161 -1.56584
333 1 0.649026 3.0321 1.15784 -0.436463 0.769025 0.149296
334 1 2.57241 5.54339 5.94487 -2.16334 -0.771902 -1.06604
335 1 8.10812 5.67578 0.215379 -0.477061 -0.0247807 -1.16493
336 1 7.04347 5.36635 3.55315 -0.392996 -2.1434 -0.200567
337 1 8.67257 0.550636 2.40572 1.33963 0.597518 0.575989
338 1 5.01172 1.53475 5.08737 0.189835 0.828638 -0.0123167
339 1 6.73013 6.76899 1.17374 0.468303 0.0940526 0.157419
340 1 3.74056 7.3959 7.22865 -0.373738 -0.507026 0.236951
341 1 5.97956 7.02228 8.52021 0.0461881 0.649043 0.0468868
342 1 0.486383 1.74853 6.45204 -1.05512 -0.805183 -1.11415
343 1 4.69856 8.4613 3.40328 -1.89555 1.15868 -0.334463
344 1 1.45246 4.58218 7.82252 0.359367 0.384518 0.0987706
345 1 9.13294 4.99182 6.02044 0.364516 -1.18045 0.240007
346 1 8.77952 3.43801 9.34869 -0.758849 -0.415258 -0.763015
347 1 7.2961 5.16698 8.32261 0.114184 -0.778836 -1.09626
348 1 7.08824 0.282751 3.86813 -0.512292 0.578391 -1.16644
349 1 4.03742 2.98709 2.03181 -0.255924 0.541352 0.43104
350 1 1.71255 3.25977 6.11264 0.750838 0.533205 0.358276
351 1 5.80144 0.00774352 0.0753993 0.15423 -0.370425 0.193362
352 1 5.99283 5.47587 7.32253 -1.24006 0.684299 -0.197259
353 1 9.21383 6.8931 6.47832 -0.997011 0.0102691 0.528967
354 1 1.53533 6.3678 8.24577 0.579554 -0.909769 -0.356654
355 1 8.9381 8.17193 3.53141 1.44729 -0.958501 -1.01699
356 1 6.81816 2.65595 5.40216 0.267114 -0.173498 2.58737
357 1 1.366 5.53092 5.91355 0.510268 -0.938941 -0.119212
358 1 4.72297 2.80176 6.06867 -0.463976 1.4089 0.966894
359 1 0.66085 6.06714 7.5761 0.823254 1.51749 -0.101834
360 1 6.13958 2.06506 0.96637 -0.331499 -0.308743 -0.468481
361 1 7.41462 0.403971 6.51214 -0.515845 0.142479 -0.270876
362 1 2.05071 8.9858 6.02011 -0.265925 -0.18147 0.244702
363 1 0.0823219 5.85853 1.71893 -0.909005 -0.291796 -1.55032
364 1 9.21636 2.20681 3.54359 -0.0194741 -0.392369 -0.527748
365 1 4.72196 6.00337 8.56005 -0.351957 -0.0621488 0.168647
366 1 3.22427 0.607429 1.6542 0.631506 -0.526616 -0.806136
367 1 9.15596 3.17597 6.33136 -1.22259 -0.633674 0.301685
368 1 4.12207 7.06563 4.59654 0.500059 0.806106 0.947531
369 1 9.02045 8.06534 2.21839 1.76022 0.648404 -0.599802
370 1 1.69583 1.66842 2.76779 -0.676166 0.274067 0.932706
371 1 0.272614 0.0641487 4.33513 0.038744 0.281009 0.53036
372 1 5.71828 3.83764 5.29069 -0.653787 0.0602219 -0.740554
373 1 6.68259 1.53526 6.03257 1.52381 1.31568 0.724376
374 1 7.60458 0.592793 2.34571 -0.648611 -0.994863 -0.395193
375 1 3.14651 7.21018 9.27404 -0.621717 -0.122404 1.55026
376 1 4.99347 4.46176 0.58787 0.945013 -0.280541 0.452342
377 1 4.76368 7.90653 7.4671 0.700111 0.184398 0.442612
378 1 3.18626 5.97742 2.36569 -0.432916 -0.771237 0.501672
379 1 8.38416 6.44142 2.76594 0.961516 0.24437 0.1772
380 1 7.97846 4.77791 6.62197 -1.38236 0.207723 -0.771808
381 1 3.59698 2.96525 8.02684 0.0785774 1.09051 0.728281
382 1 5.01686 0.478964 5.45319 1.27564 -0.247088 -0.769514
383 1 2.31701 9.35749 1.72122 0.78032 -1.20844 -0.341558
384 1 4.04659 0.0935464 5.23551 -0.762495 -0.37641 -0.504949
385 1 5.24498 7.21741 9.37464 -1.19452 -0.472406 -0.17304
386 1 4.15976 8.96446 4.20559 -0.314751 1.42404 -0.220874
387 1 0.199847 2.9076 2.10152 -1.06534 -0.773415 2.86502
388 1 2.81227 0.0679508 0.838545 -0.51181 -0.136826 0.566203
389 1 6.00384 1.49234 6.72342 -0.671395 0.621098 -0.118631
390 1 2.1488 5.15598 3.99541 0.542184 -1.29533 -0.390887
391 1 7.1491 7.95786 3.5669 1.10981 0.695869 0.144586
392 1 3.05286 6.10753 0.225673 -0.842313 -0.905323 -0.0641346
393 1 4.6783 0.465202 4.38017 0.806106 -0.415607 -0.0914856
394 1 3.532 3.79688 3.86653 1.31628 0.275091 0.248258
395 1 6.77839 1.79475 1.9282 -0.816411 0.265151 0.19035
396 1 3.03951 2.2766 8.62433 -0.157373 -0.460005 -1.3723
397 1 5.99911 5.08525 3.71604 0.00265712 -1.60491 0.570851
398 1 8.23142 4.67636 9.09987 -1.26862 -0.606175 0.696263
399 1 7.50826 1.27368 4.12059 -0.0784191 0.187329 0.93594
400 1 8.97303 4.92694 4.9933 -1.77762 -1.07653 -0.0482727
401 1 5.63332 6.08502 9.0587 -0.152767 -0.665811 0.0937533
402 1 1.08771 5.03029 4.12585 -0.893877 -1.56863 -0.971946
403 1 8.93528 3.84681 2.28526 -1.06064 0.641523 0.0686755
404 1 2.35749 0.966837 2.01906 0.366457 0.136162 0.00657976
405 1 1.97592 4.95292 6.46516 0.116042 1.13227 -0.0943567
406 1 4.88379 1.0254 1.29387 -0.665676 0.519783 -0.193525
407 1 5.77677 8.39726 3.52158 -0.181629 -0.278296 0.221148
408 1 1.80133 1.62922 1.41801 -1.01275 0.345243 0.626398
409 1 9.01091 7.07474 5.44657 0.762935 -1.18648 1.04512
410 1 5.27494 4.06267 8.96739 -0.0421953 -0.731186 -0.0235603
411 1 5.62004 3.48969 2.52897 0.0586483 -0.288285 -0.753905
412 1 2.95098 5.42038 3.28501 -0.340757 0.0412913 1.63594
413 1 1.20002 8.1586 8.8611 0.322539 0.00682728 0.324902
414 1 7.08648 7.69905 1.4884 -0.20721 0.437551 1.00427
415 1 7.58945 8.16131 8.98464 0.0939803 0.689568 0.908261
416 1 8.70449 8.91622 1.14135 -0.148076 -0.232853 -0.0123709
417 1 8.6532 2.4271 1.81834 0.605197 0.0729202 0.201239
418 1 5.92966 1.77069 8.57271 0.352251 0.822452 0.37854
419 1 2.00489 2.50697 3.38449 0.734175 -0.219055 -1.22724
420 1 8.24396 5.64866 8.54909 -0.611432 -0.596756 -0.870571
421 1 1.93151 8.33047 8.08468 0.774023 -0.306921 -0.813724
422 1 6.47501 1.06737 3.44773 -0.890243 -0.122991 0.358548
423 1 7.40515 4.88324 1.48974 -0.356434 -0.901351 0.117431
424 1 4.02893 3.19176 3.12972 -0.014697 -0.014634 0.38519
425 1 7.58747 4.45522 3.40158 0.185024 0.895688 -1.52941
426 1 0.563668 2.3181 8.20037 0.488946 -0.233273 -0.739451
427 1 8.04067 3.3195 2.05438 0.401456 0.400624 0.345306
428 1 1.26276 8.25457 3.08201 0.597873 0.618431 -0.99725
429 1 6.30864 2.84847 7.72633 0.491202 0.273257 -0.50891
430 1 8.30824 2.11561 2.83527 0.16583 -0.584358 -0.192176
431 1 -0.00744089 5.16953 7.01434 -1.14874 -0.128402 0.0355303
432 1 1.11197 7.52324 2.30045 -0.250897 2.13464 -0.87313
433 1 8.02169 3.28468 5.16968 0.438341 -0.209783 -0.42521
434 1 8.9249 2.95564 2.8495 -0.546829 0.489139 0.539518
435 1 7.08522 8.17599 4.71427 0.806941 0.656592 -1.29133
436 1 0.32989 7.89024 8.35132 0.543799 -0.0774341 0.162555
437 1 2.70124 4.38982 2.06728 -0.698193 0.911759 0.321
438 1 2.66848 6.83234 2.15565 0.507581 0.163766 0.138949
439 1 4.59395 2.19827 6.84842 -0.943854 1.91868 -0.468907
440 1 1.75312 0.602563 1.02292 0.784535 -0.00794032 -0.281413
441 1 5.36847 2.73563 8.45222 0.629524 -0.0771637 -0.196795
442 1 2.80347 9.32344 6.80595 -0.246405 0.423379 0.404347
443 1 1.33262 3.88179 1.10324 0.90753 0.569533 -0.221095
444 1 8.11298 3.75523 6.79826 1.35585 -0.101298 -0.23412
445 1 0.126422 7.88945 7.19583 -0.936878 -0.382733 0.512528
446 1 8.07518 2.19802 8.40977 -0.00935281 0.525218 1.57711
447 1 9.15731 3.59258 1.34498 -1.04755 1.24772 0.0155801
448 1 0.371165 7.6797 3.00963 -0.177421 0.432154 -0.169588
449 1 5.74493 1.43381 2.62543 0.229501 0.166933 0.263224
450 1 1.95246 8.82086 0.692125 0.744303 1.50217 1.39862
451 1 9.07691 4.27133 7.69104 -0.0562328 -0.0254593 0.0823623
452 1 9.21061 6.97821 2.43706 -0.387422 -0.22822 -1.27501
453 1 4.69313 1.20215 0.0179887 -0.158099 -0.907422 -0.906721
454 1 2.57292 6.29874 1.18402 -0.567979 0.780842 -1.02376
455 1 2.67372 8.21482 4.15731 0.0794245 -1.00216 0.957487
456 1 2.08542 5.39455 7.47818 1.14729 -0.610489 0.965628
457 1 7.05623 3.78521 5.03526 -0.663949 0.382843 -0.0672928
458 1 1.2495 8.61441 5.49715 0.601198 0.782265 0.0295889
459 1 7.27543 1.75229 5.08938 0.550221 -0.682641 0.995128
460 1 1.55892 2.74455 5.20496 -1.35067 -0.094414 0.891396
461 1 0.3938 2.85307 5.50635 0.167891 -0.348198 0.290245
462 1 6.5143 6.75107 2.23823 -1.14836 0.388157 0.539519
463 1 1.53245 2.3391 0.510886 -0.699723 -1.20632 0.194044
464 1 9.22336 8.31812 0.508801 -1.23713 -0.0149086 -0.277194
465 1 8.4504 7.50964 7.06272 -0.587966 0.668724 0.500899
466 1 0.968315 0.0823382 7.47767 -0.685021 0.156266 0.422151
467 1 4.73112 1.91831 8.61214 -1.19177 0.563637 -0.767177
468 1 7.51409 7.19351 6.32198 -0.127679 -0.695909 0.848725
469 1 9.04156 2.82751 4.68159 0.121459 0.181831 -0.636591
470 1 9.33092 7.55216 4.4798 -0.272165 -0.21863 1.13606
471 1 0.311648 8.99141 1.12204 -0.323132 0.847024 -0.463798
472 1 8.75387 2.45265 5.55968 0.577767 -0.563026 0.792124
473 1 6.38554 4.08852 6.09905 -1.10992 0.0992991 -0.139599
474 1 2.49044 8.185 6.53872 1.04496 -1.0425 0.610888
475 1 9.24489 9.19583 2.00542 1.34476 0.513154 -0.0336445
476 1 2.51827 4.41205 7.3499 -0.310373 -0.924973 0.641399
477 1 1.15107 0.134867 5.01293 0.411498 0.538121 -1.02332
478 1 4.50226 7.28301 0.899495 0.644968 0.787313 1.08679
479 1 0.614262 4.32069 7.2164 1.21853 -0.266906 0.274132
480 1 1.15691 6.84925 0.613203 0.0935912 0.675987 -0.0848566
481 1 5.47155 2.4721 2.70608 -0.347014 -0.8369 -0.299991
482 1 4.5703 3.85879 2.30641 -0.187504 -1.14478 0.624144
483 1 3.08343 5.67507 7.11307 -0.156294 -0.602514 -0.602128
484 1 2.27529 0.853747 3.17668 1.65815 0.24072 -0.658584
485 1 9.19485 6.21079 8.36171 1.04266 0.340341 1.58413
486 1 7.11295 7.15303 8.58054 -0.475874 -0.241351 0.778967
487 1 7.89886 8.14602 6.25729 0.277087 0.236709 -0.627834
488 1 8.59717 5.60662 6.52653 0.0358998 -0.219532 -0.7817
489 1 8.06733 0.414076 8.06849 -0.297333 0.215425 -0.833795
490 1 5.63531 0.312461 2.10048 -0.656295 0.236957 -0.817561
491 1 4.04157 8.09361 1.2953 -0.494367 1.34983 0.856654
492 1 3.3338 2.47379 2.65401 -0.91429 -0.030657 0.4668
493 1 0.759987 4.74978 6.26281 -0.99603 -0.434884 0.338369
494 1 4.28098 1.60417 5.9668 0.0986582 0.0708742 0.32457
495 1 2.90796 2.29916 3.85417 -0.542548 -0.0298126 0.275422
496 1 2.92933 2.51123 7.28095 0.138953 0.557346 -0.149839
497 1 2.10315 3.40378 7.32218 -0.0736511 -0.98437 -0.239481
498 1 0.989947 2.67345 3.53518 1.52811 -0.405287 -0.257443
499 1 4.38826 9.17034 8.33807 -1.25263 0.0798773 -0.224134
500 1 6.40688 1.20046 7.77464 -0.0512239 -0.0224853 -0.19448
501 1 4.94063 5.48468 3.60988 -0.207236 -0.0527185 0.738493
502 1 9.07104 1.17121 6.75831 0.32125 -0.310208 -0.614798
503 1 5.8143 0.546035 7.08785 0.574046 -0.379102 0.187569
504 1 6.73113 6.15205 6.78592 -0.599475 0.48035 -0.536318
505 1 5.1067 4.44608 5.95324 0.894743 0.692637 -0.184109
506 1 9.14745 6.99514 3.53415 0.0217588 -0.0774367 0.782024
507 1 9.30001 1.98617 2.49962 -0.156385 1.04047 0.638999
508 1 6.12533 0.972891 1.417 -0.61077 -0.373123 -0.424988
509 1 5.37819 0.980124 7.99995 1.61146 -0.175992 -1.58529
510 1 1.61647 6.63825 2.3892 -0.891804 -0.595777 0.717524
511 1 7.99345 0.742835 3.35773 -0.48408 -0.596157 -0.87698
512 1 8.46114 4.68374 2.87302 -1.86512 1.40193 0.836933
513 1 8.62033 5.43335 2.17047 -0.71468 0.252436 0.478222
514 1 9.38348 5.207 8.12847 -0.231702 -0.423795 -0.0620089