ITEM: TIMESTEP
57100000
ITEM: NUMBER OF ATOMS
1000
ITEM: BOX BOUNDS pp pp pp
0.0000000000000000e+00 9.4000000000000004e+00
0.0000000000000000e+00 9.4000000000000004e+00
0.0000000000000000e+00 9.4000000000000004e+00
ITEM: ATOMS id type x y z vx vy vz
1 1 7.82786 8.00642 2.12721 1.51573 1.58239 -1.46368
2 1 4.89218 7.09689 0.680757 0.144077 0.801152 0.535438
3 1 3.19795 1.89383 4.12936 0.535899 0.0393048 -0.607153
4 1 2.5979 5.61756 2.78481 -0.75921 -0.792509 -0.343775
5 1 0.38807 0.541796 3.87919 0.707973 -0.308268 -0.364968
6 1 6.63583 8.66468 4.41844 -1.12153 1.5193 -0.440763
7 1 2.85725 6.64335 2.45323 1.65856 0.333077 -2.45091
8 1 2.99896 1.59593 7.1532 1.52599 -1.2853 -0.711396
9 1 1.69756 6.62217 5.20115 0.223504 -0.236488 -0.0908927
10 1 1.29775 4.31773 2.84215 -0.0685659 0.0786433 -1.35749
11 1 6.18282 1.13177 5.17481 -0.462093 -0.802529 -0.413901
12 1 7.90484 1.34252 0.803613 0.612632 0.200365 1.62095
13 1 1.10374 0.775621 3.09718 0.338486 0.53509 0.0995909
14 1 4.94696 3.85792 6.29538 0.55127 0.0857937 0.267082
15 1 0.369853 9.13753 7.90748 -0.201579 -0.0118922 1.71049
16 1 1.23296 8.5328 7.38251 -1.40424 -0.0395027 -0.322605
17 1 7.84239 2.59044 0.753217 -0.24468 -0.735321 0.0821585
18 1 3.22815 6.58163 8.49076 -0.192282 -0.248382 0.288384
19 1 3.64412 5.0686 7.24028 0.213175 0.0486995 0.634401
20 1 0.606407 5.71319 7.75835 0.365421 -1.06252 0.578692
21 1 0.711359 6.54608 1.59652 0.157583 -0.792206 -0.248504
22 1 8.01277 4.75363 7.81884 -0.943657 0.642872 -0.295262
23 1 5.08691 1.28727 1.36809 -1.51705 -0.402959 0.455465
24 1 2.54012 7.13805 5.72152 -0.408661 -0.824054 0.719242
25 1 8.18469 0.907027 1.69633 -0.489659 -1.53674 0.0962218
26 1 8.99124 4.25349 4.41787 0.33697 0.150957 1.28299
27 1 8.72066 7.49058 2.74404 -0.0764078 0.461282 -0.319663
28 1 4.56364 1.61093 2.50125 0.259489 0.471804 0.132518
29 1 2.1439 4.44219 4.70377 -0.650168 1.20074 -0.650551
30 1 8.64236 4.2552 5.42329 -0.31915 0.472484 -0.0615452
31 1 3.18078 0.669153 0.546043 -0.487261 -1.62905 -0.57542
32 1 8.04539 2.40528 6.60169 0.27389 0.628108 -0.406617
33 1 4.73472 8.90531 1.72193 -0.160483 1.70153 0.884306
34 1 5.53365 8.762 3.70426 -0.54065 0.345714 -0.361291
35 1 3.07534 1.03871 3.4445 1.05856 -0.320176 -1.06157
36 1 3.97019 3.45821 3.45158 -0.595318 0.0910566 -0.206107
37 1 5.81298 7.79927 8.14509 -0.300814 -0.935465 0.547934
38 1 0.378066 1.52503 1.40541 -0.776902 -0.660104 -0.0630274
39 1 4.68549 8.11314 1.03931 -0.51906 -0.127334 -0.461348
40 1 0.438479 0.358627 0.328438 0.129891 1.05372 -0.417449
41 1 6.19292 1.59445 6.96846 0.46185 0.411364 0.3126
42 1 0.976752 9.25837 4.36815 -0.296176 2.07922 -0.118584
43 1 2.02884 8.61764 5.77001 -0.315655 0.0991135 -0.842664
44 1 2.82301 1.10443 5.59801 0.0826712 -1.69564 -0.0438806
45 1 0.121616 0.558569 2.7503 0.438626 -0.52322 -1.0585
46 1 7.28577 6.40457 1.7586 0.199861 1.32671 -0.0812602
47 1 1.01711 2.83497 0.308368 0.960846 1.15327 -1.10857
48 1 5.84828 7.86067 1.04253 -0.468476 -0.60819 0.129967
49 1 4.64553 2.73329 6.00709 0.254181 0.0831695 0.499978
50 1 1.51199 2.92689 4.97021 0.529752 0.0808686 -0.15324
51 1 0.44754 3.75138 2.67296 0.347511 -1.08814 0.692768
52 1 5.67835 0.264462 2.09867 0.292014 0.359534 0.321116
53 1 2.08909 1.36365 3.78687 -0.127989 0.350688 -0.401784
54 1 8.96684 5.44969 9.07092 0.762515 -0.415702 0.257085
55 1 1.79468 5.27717 6.54504 -0.229969 -1.16469 -0.279954
56 1 9.32492 4.21969 6.26735 0.202452 0.946118 -0.794336
57 1 1.90951 5.89886 7.42412 -0.227156 0.118016 -1.03846
58 1 4.7521 6.73409 2.567 -0.333578 -1.34993 -0.47532
59 1 7.33576 9.23774 7.75158 0.0153502 0.275823 0.0910174
60 1 2.17441 7.99514 3.1638 0.828192 -0.494006 -0.374982
61 1 3.97181 0.64051 2.91127 0.197869 0.126684 0.510862
62 1 3.09368 7.64383 0.788716 0.930354 -0.635454 0.648925
63 1 7.14042 2.60489 7.08925 0.190556 1.12559 0.112587
64 1 0.61133 6.22025 0.577619 -0.441022 1.01014 -1.20757
65 1 8.49018 2.86787 3.75564 0.657782 -0.314022 0.0131342
66 1 3.1787 0.778719 6.55374 0.0807787 -0.0171629 -0.655291
67 1 7.00892 7.50715 0.299276 -0.256401 0.920643 1.06103
68 1 5.63165 7.39351 7.19031 0.252971 -0.706147 1.39765
69 1 6.56094 4.8258 2.78817 -1.12564 0.630463 -1.23032
70 1 7.58716 3.44389 3.97504 -0.194125 -0.961369 0.247458
71 1 6.54582 3.55009 0.168706 0.948554 0.914423 0.823459
72 1 6.33957 1.83833 4.35081 0.125017 0.517392 -0.924633
73 1 2.75612 8.03016 5.01908 -0.910751 -0.111454 -0.168686
74 1 4.38209 8.44743 2.73809 0.402074 -1.75626 0.475409
75 1 6.28622 0.58059 6.18172 0.415669 -0.48066 1.22044
76 1 9.15394 8.97263 1.02374 -0.0770591 -0.3702 -1.09183
77 1 1.38616 1.91081 4.48431 -0.893294 1.75211 -0.695886
78 1 0.668919 6.17862 2.5838 0.390591 -0.71916 0.336498
79 1 5.82301 2.25012 7.75582 -0.847859 0.141543 1.11042
80 1 1.36458 0.232748 9.22234 -1.99543 -0.38758 -0.807025
81 1 2.10626 8.43491 6.81251 0.677415 0.485573 -0.0264375
82 1 5.98438 0.163903 3.10161 -0.698479 -0.042606 0.641053
83 1 4.96496 5.36966 4.88187 -0.522804 1.00164 -0.363979
84 1 0.86016 6.39897 5.81014 -0.846738 0.193999 -0.623928
85 1 0.63147 2.72664 8.72993 0.432568 -1.71229 0.488306
86 1 4.89449 1.35722 0.0754287 -1.0008 -0.072279 0.0566234
87 1 3.05876 4.70001 2.35358 -0.527097 0.680427 -0.378876
88 1 8.29948 1.51519 6.98874 -0.475187 0.179975 -0.274301
89 1 5.11158 5.84897 6.42206 0.00916045 0.562355 -0.789243
90 1 5.15613 3.09996 1.5487 -0.940968 0.696472 -0.703303
91 1 7.51987 6.32904 5.02185 1.40295 0.221682 -0.730969
92 1 7.92341 0.76408 7.69465 -0.449296 0.114506 -0.109789
93 1 2.87616 0.854616 4.41994 1.83019 0.0890096 -0.59888
94 1 1.09125 6.01035 4.23632 -1.37911 0.698853 1.01147
95 1 8.60545 7.02936 3.70963 -0.899668 -0.0347819 -0.0290048
96 1 6.64111 7.36469 7.71377 -0.37458 -0.950104 0.464315
97 1 3.23138 4.66448 0.482329 -0.0197362 0.74705 -1.04237
98 1 6.14697 8.00736 9.12844 -0.914713 0.435098 0.642438
99 1 3.43142 0.349773 5.16011 0.309157 0.625188 -0.871656
100 1 7.45498 8.63449 6.92399 0.586418 0.789047 -0.344828
101 1 4.93408 6.21353 5.50156 -0.922098 0.774354 0.232567
102 1 5.01725 7.63989 2.88688 0.758472 -1.12016 0.2735
103 1 3.05639 8.28786 3.69389 -0.0828685 0.270497 -0.268013
104 1 3.10923 7.51333 1.90928 -0.999765 -0.600538 0.375071
105 1 8.97795 0.778508 4.49975 0.358001 0.527984 0.737518
106 1 7.47442 1.18834 8.64102 -0.245375 -0.191441 -0.284276
107 1 6.57283 4.70775 0.728721 0.169987 -0.0810519 0.799894
108 1 9.33856 1.35864 3.35044 0.788497 -0.990143 -0.0140622
109 1 6.67681 2.82334 2.69423 0.42213 -1.54554 -1.00752
110 1 0.0353775 4.0834 7.88002 0.361034 0.614386 0.701948
111 1 7.73177 4.64831 6.79979 0.869308 -0.723464 -1.07026
112 1 6.59681 8.48488 0.731053 -0.732732 0.147945 -0.594931
113 1 4.19689 3.45358 1.32298 0.386055 -0.0256543 -0.646878
114 1 1.44465 1.52325 1.76038 0.798606 -0.802511 -0.805699
115 1 6.94323 0.527243 3.46332 -0.572543 -1.71484 -0.334422
116 1 6.07963 2.83422 8.92678 -0.215593 -0.537431 -1.38228
117 1 7.33595 8.14162 7.78001 0.0227469 0.769979 -0.853416
118 1 7.93159 1.61635 5.94531 0.286153 0.326467 0.292627
119 1 4.34173 2.05915 8.89511 0.107545 -0.498188 0.211561
120 1 1.29489 6.69859 9.40016 -0.84368 0.506243 0.244703
121 1 5.56889 0.210758 5.18459 0.218925 -0.558339 -1.30134
122 1 2.44839 7.19932 8.93323 1.07435 -1.35557 0.320489
123 1 1.50686 7.18751 6.22159 0.194576 0.830754 0.702959
124 1 4.74042 1.50181 6.44312 0.488736 -0.282448 0.04354
125 1 6.02829 6.56002 5.49322 -0.315025 -0.0943178 0.271674
126 1 7.1372 3.86541 3.0967 0.776604 -0.00600765 0.578943
127 1 4.02892 8.60976 4.05855 -1.17052 1.07792 -0.182069
128 1 4.54214 5.46391 7.64388 0.3416 -0.532118 -0.083925
129 1 2.4989 5.88876 0.695663 0.104044 0.59278 0.108622
130 1 3.6481 0.28985 4.01547 -0.502843 -1.10952 -0.424336
131 1 8.19716 2.056 1.66461 -1.23303 0.422544 0.368138
132 1 7.36715 2.59048 5.8388 0.381547 -1.02763 1.20842
133 1 5.6123 6.753 2.0439 -0.831728 0.266665 -1.56375
134 1 0.479147 5.77244 3.48011 -0.288648 0.741888 -0.0534075
135 1 5.76435 7.8129 2.09124 0.0956223 -1.13065 0.811229
136 1 7.77661 9.11698 6.01338 -0.627299 0.827835 0.645511
137 1 1.48261 5.67194 0.182971 1.03239 0.907057 1.38332
138 1 5.6837 3.19154 0.595726 -0.277637 -0.291155 -0.787581
139 1 9.33381 1.40919 7.49544 -0.646393 0.313041 0.388163
140 1 3.25108 3.52503 6.44069 1.11862 -0.207714 0.596533
141 1 3.12246 8.28893 7.34312 -0.626962 0.338226 -0.193536
142 1 3.90431 4.18875 9.15822 -0.0906447 1.22695 -0.304386
143 1 4.01987 5.15776 0.0474282 0.236845 0.56569 -1.70406
144 1 0.355071 1.59249 4.40861 0.11009 -0.0222039 0.796933
145 1 8.18888 5.65972 8.39469 0.233414 -0.000982737 1.76841
146 1 4.27716 0.651805 0.854147 -0.393142 -0.428271 -0.415722
147 1 5.3984 2.32126 6.61051 0.135931 0.375081 0.429499
148 1 0.637179 4.94666 8.53501 -1.90023 0.555853 1.7305
149 1 3.15361 8.3634 2.54453 -0.433097 -0.500925 0.829684
150 1 6.30997 8.58242 2.41633 -0.296689 0.254066 1.28909
151 1 0.265397 8.53227 5.88187 -0.561617 0.57581 0.44313
152 1 5.19552 8.60219 8.78053 -0.0964698 -1.46791 -1.16162
153 1 1.33236 5.71113 1.87935 0.290164 0.487163 0.245709
154 1 3.42075 7.70118 9.17761 1.29712 -0.382711 -0.807938
155 1 0.138824 7.60889 3.90104 -1.23947 0.353266 1.65421
156 1 4.52943 8.07118 5.04185 0.0790287 -0.379939 -0.154777
157 1 6.30969 5.03877 7.65137 -1.1465 -0.126772 -1.15727
158 1 1.37201 6.78008 7.16859 0.152527 -1.35894 0.897219
159 1 0.315008 6.85806 7.57698 0.328575 2.5637 -0.49431
160 1 3.34703 2.08787 8.13546 -0.648554 -2.09085 0.0477445
161 1 2.12841 2.84097 5.99998 -0.359434 0.535924 -0.666271
162 1 8.31056 3.78793 8.24074 -0.524046 0.456275 0.413654
163 1 2.31668 3.45346 4.58436 0.525337 0.439167 1.06977
164 1 3.74337 8.35674 0.545312 0.64737 0.866434 -0.535602
165 1 5.83389 2.14404 1.02374 0.798971 -0.091767 -0.307962
166 1 5.55485 7.05882 3.93748 0.184617 0.25711 -0.801072
167 1 2.11187 6.95194 3.48201 -0.348017 -0.322285 0.0749303
168 1 7.05705 3.73957 1.15736 -0.715372 0.46346 0.0230443
169 1 2.27471 6.65039 8.02806 -0.0579908 -1.28316 -0.162378
170 1 9.07984 4.07379 3.38127 0.199433 -0.326624 -0.0391107
171 1 7.69194 7.66683 1.07598 0.581831 0.729084 -0.0676099
172 1 2.39817 2.36597 7.61726 -0.990651 0.671627 0.0464761
173 1 8.29656 3.98973 1.90072 0.160536 -0.972105 -1.17958
174 1 1.93519 3.99198 7.40419 0.189883 -0.0573596 0.249085
175 1 7.75688 7.10033 7.72519 0.628911 0.498122 1.48002
176 1 2.82448 9.26926 6.16639 2.01287 -0.231391 0.917022
177 1 5.28026 7.18758 9.02859 0.482874 0.321539 -0.299431
178 1 7.73489 2.97164 3.04356 -0.711103 -0.19706 0.422189
179 1 4.90198 0.648489 5.92154 0.591612 -0.496539 1.35307
180 1 0.0187441 8.93008 3.99377 -0.333227 0.928581 -0.317378
181 1 7.48704 5.43687 2.53433 0.126876 -0.204854 0.67327
182 1 5.96965 3.04885 7.01198 0.00603777 -0.383811 0.152227
183 1 2.18735 6.22533 9.00836 0.428064 0.240227 1.02523
184 1 3.69819 8.93687 7.9685 0.375998 1.26224 -0.0373651
185 1 3.01112 6.50762 6.46993 -0.380205 -0.44307 1.4444
186 1 2.39874 5.00531 5.57749 0.188057 -0.052594 0.0450214
187 1 2.2748 0.169149 5.30406 -0.108592 0.275738 0.717437
188 1 3.54402 5.63916 0.904977 0.0255279 -0.770231 -1.27664
189 1 3.77143 5.30047 2.87906 0.203506 0.288162 0.362636
190 1 5.57149 6.3006 3.20028 -0.303147 -0.391437 -1.52406
191 1 5.5095 5.52763 8.30871 -0.492382 0.240212 -0.38577
192 1 9.31053 3.31918 0.261438 -1.0667 -1.29032 -0.61406
193 1 2.95446 7.97379 8.23062 -0.717195 -0.39721 -1.68218
194 1 0.505488 9.02918 8.90551 -0.509577 -0.415805 -0.162676
195 1 8.82547 0.440934 3.57473 -0.519848 0.145225 -1.06315
196 1 9.21796 2.25847 2.1148 -0.337061 -0.676232 -0.320246
197 1 6.68637 6.43105 7.26063 -0.373794 0.460259 -0.108337
198 1 1.20935 1.91258 0.895343 0.0445801 0.931325 -0.927965
199 1 8.88008 7.25041 4.66767 -0.0614651 -0.929306 -0.209162
200 1 4.17105 1.22007 8.16301 -0.707299 0.220981 -0.703909
201 1 4.86776 1.77817 3.52464 0.543565 -0.696629 -0.198329
202 1 8.46116 8.45796 2.85836 -1.11482 0.141968 -0.655465
203 1 6.39848 8.63969 8.08293 0.11061 -0.439103 -1.71866
204 1 3.98657 0.69352 9.23734 -0.532617 0.644282 0.471057
205 1 5.62816 9.07189 6.11731 -1.67859 0.399955 0.346645
206 1 0.631237 0.740136 4.98323 -2.28376 0.603677 -0.36173
207 1 6.72489 2.65392 0.641708 0.404279 0.635131 0.771831
208 1 6.81386 4.44554 4.81949 -0.909542 0.612421 -0.841828
209 1 6.6199 9.02835 6.41089 -0.35556 -1.365 1.44751
210 1 1.4543 1.21311 0.0148375 -0.541119 -0.0614267 -0.503265
211 1 8.20412 0.0980757 0.912369 -0.204779 -0.248177 0.249174
212 1 7.39031 6.72675 0.789705 2.26362 -1.22755 0.14062
213 1 1.95475 2.53294 3.50977 -0.0955317 -0.612605 -0.557986
214 1 9.25794 2.21006 8.18226 0.525486 -0.989009 -0.132227
215 1 3.09943 4.88095 4.81327 -0.974611 0.465946 0.32994
216 1 6.89766 7.17672 5.45598 1.14151 -0.591514 -0.0213056
217 1 3.56863 1.51154 4.97173 -0.915787 0.0553215 0.315885
218 1 2.6063 2.91477 2.71288 -0.586111 -0.23808 -0.159661
219 1 6.07138 3.91596 1.15572 -0.114771 0.284468 -0.250952
220 1 8.3019 2.68117 8.45518 0.768386 0.615193 -0.91926
221 1 6.64479 0.138871 5.33353 1.67823 0.112219 -0.501669
222 1 6.40288 5.66192 3.42525 -1.10186 0.681867 0.543439
223 1 0.662662 0.737588 7.77541 0.813669 -0.107274 1.36888
224 1 7.59558 6.49629 3.87684 -0.834769 -0.115043 0.0612867
225 1 8.5117 6.04224 6.36452 -1.36778 -0.353043 -0.00799033
226 1 1.17351 7.77675 3.41687 -0.342215 0.546235 0.00137054
227 1 5.23359 7.29051 5.22987 0.190249 0.599537 0.427875
228 1 7.90431 0.685645 0.0449674 1.27977 -0.596423 -0.189327
229 1 3.12231 1.66166 1.19485 -0.525172 0.429482 -0.338724
230 1 3.20918 4.13532 7.41316 0.961098 0.996398 -0.802215
231 1 6.07746 6.04654 6.42744 1.55886 -0.104519 0.196987
232 1 5.64195 3.08262 2.49225 0.103815 -0.568352 -0.287192
233 1 8.45407 0.149726 2.55714 -0.206303 2.06775 0.934521
234 1 5.51505 8.58706 0.409527 1.17137 0.500302 -0.714988
235 1 7.94933 8.01817 6.10943 -0.0606984 -0.905585 -0.816825
236 1 2.67625 5.63687 8.28187 -0.692339 0.0817478 -0.522682
237 1 6.15454 1.14497 1.59995 -1.07086 -0.343341 -0.252394
238 1 6.36184 7.09824 8.81308 -0.536374 0.470644 -0.949039
239 1 4.01898 -0.00327834 6.20559 0.344421 -0.0768961 1.10059
240 1 4.10922 3.59968 5.78003 -0.653873 0.452513 -0.631715
241 1 3.89686 4.48857 3.62818 -0.439479 0.70934 -1.49215
242 1 6.25225 2.95579 1.58514 -0.348597 -0.924417 -0.389166
243 1 0.774492 7.25817 0.676009 0.260858 0.882432 -0.220245
244 1 6.37975 7.17824 6.42906 -0.770834 0.518297 -0.130094
245 1 6.20261 2.67141 3.72856 0.674915 0.130623 0.144339
246 1 6.79357 8.08436 1.71745 0.798322 -0.310805 0.821645
247 1 4.43102 3.33536 4.45187 -0.0406614 1.06377 -0.893972
248 1 4.59266 9.07215 5.4244 1.30646 -0.554616 0.620819
249 1 2.4386 4.3644 6.51808 0.047349 0.355336 1.79973
250 1 4.97084 6.38394 4.48865 -0.665283 -0.762887 -1.12514
251 1 7.12081 1.57345 7.46929 1.42743 -1.69976 -0.0174198
252 1 0.929148 3.83759 4.6342 0.674166 -0.368973 -0.732583
253 1 8.24705 6.04665 3.31992 -0.530964 -0.652921 0.54395
254 1 5.79409 0.936228 0.5771 0.122333 0.666919 1.47578
255 1 6.13769 3.58111 3.23665 -0.915184 0.987551 -1.12901
256 1 8.74121 2.82518 1.24601 0.413819 1.16226 -0.333543
257 1 6.11789 0.160434 4.18637 0.375657 0.484194 -0.233388
258 1 2.16543 8.08697 2.12899 -0.422856 1.238 0.364548
259 1 3.03627 6.01101 7.44809 -0.663711 0.23346 0.927223
260 1 2.70892 2.69568 0.834802 0.68162 0.117624 1.12072
261 1 0.396537 7.1227 8.53003 -0.587682 -0.0251218 0.676452
262 1 2.19841 1.31665 0.873072 0.10742 -0.0361955 -0.248399
263 1 6.85671 4.58751 3.79234 0.0633279 -0.048523 -0.446458
264 1 7.39367 7.47857 6.86924 0.794954 0.0177547 -0.0188685
265 1 4.88826 4.06794 5.2621 -0.630368 -0.164674 1.15255
266 1 6.69683 6.74677 4.40515 -1.0524 0.0284416 0.737753
267 1 6.34318 1.99429 2.10427 0.0523336 -0.185284 -0.66243
268 1 4.8365 9.13424 7.91969 0.822042 -0.759897 0.675543
269 1 2.06635 4.85397 0.588878 -0.736669 -0.504976 0.792174
270 1 8.84375 7.84228 1.75035 -1.19901 -1.77552 0.232938
271 1 4.70569 6.39184 1.60156 -0.220743 -0.880414 -0.733916
272 1 0.523436 7.32071 2.36806 0.429622 -0.179228 -0.519836
273 1 5.79216 4.50588 3.72198 1.24649 -0.0439173 -0.0259432
274 1 4.63293 7.63431 6.7754 0.976559 -1.48697 0.266449
275 1 4.59438 5.35421 1.08274 -1.4582 -0.464967 -1.17951
276 1 8.19374 6.98784 1.62977 0.750444 -0.291311 0.465512
277 1 4.5765 9.19526 3.38505 0.420905 0.0187984 -0.943515
278 1 1.21152 4.74838 4.99442 -0.738589 -0.668064 0.393599
279 1 9.06729 5.80593 1.62407 -1.11961 1.82234 -0.79738
280 1 3.8557 1.64633 3.3097 0.691589 0.769498 -0.397393
281 1 5.94935 7.96898 3.14154 -0.145327 0.483186 0.427367
282 1 9.07375 5.68936 2.71803 0.0671236 0.343027 1.4916
283 1 9.33019 7.82275 0.777503 -0.126008 1.20239 -0.964909
284 1 6.90062 8.87997 3.40012 -0.884173 -0.300017 0.496116
285 1 7.75811 -0.0427389 3.28863 0.0498367 -0.14446 0.461723
286 1 1.46518 1.09673 8.43715 -0.494862 0.191583 -0.174802
287 1 2.93882 9.35124 7.21137 0.193208 -0.727976 -0.532089
288 1 3.57879 7.41909 6.54904 0.00779174 -0.0376835 0.441987
289 1 7.4223 1.51642 3.86534 0.0379758 -0.182157 -0.227739
290 1 3.10718 7.08935 7.53097 -0.919517 -0.0705589 0.0289286
291 1 5.68357 3.88603 8.92543 -0.780001 -0.326309 1.17383
292 1 0.54151 7.29987 5.03086 0.124666 -0.0200254 -1.31515
293 1 0.750201 2.62782 2.73485 -0.41238 -0.940087 0.896803
294 1 9.10306 6.23577 8.27349 -1.19372 0.589902 -0.255865
295 1 8.79665 4.58079 7.17141 -0.0311314 -0.157748 0.422623
296 1 8.2351 8.05387 8.47509 -1.08936 -0.176995 0.0543512
297 1 5.82689 4.62042 4.75823 0.580329 0.745154 0.349937
298 1 2.55361 6.09615 5.54502 -1.45075 0.356802 0.0376232
299 1 6.1005 7.64396 4.55861 -0.164547 0.33553 0.725193
300 1 8.68232 4.16594 0.368631 -0.790436 0.350242 0.456953
301 1 2.90663 9.02712 4.49236 0.426492 0.018761 -0.338009
302 1 8.44442 0.365341 5.27634 1.12022 -1.90849 0.746392
303 1 1.46865 9.30026 2.53741 -0.608971 0.523281 -1.58502
304 1 7.86749 4.41111 3.73251 0.366513 0.774242 -0.136317
305 1 1.69319 8.73899 0.543713 0.685669 -0.0223875 0.303332
306 1 3.8734 9.18918 2.1692 -0.24165 -1.17034 1.12173
307 1 5.23865 0.236007 1.04543 0.772961 -0.853614 0.366443
308 1 0.182232 0.26637 6.97776 0.375193 0.00641169 -0.605118
309 1 8.72234 6.61517 7.30032 0.126148 0.182727 0.0511972
310 1 5.80618 5.01964 6.61766 1.0112 0.854941 -0.447408
311 1 8.76894 7.21886 8.22699 0.60377 -0.595571 -0.302422
312 1 3.96846 4.98563 1.70833 0.568464 1.04246 0.271269
313 1 7.22558 2.47636 1.6229 0.446096 -0.900304 -0.397971
314 1 8.32035 4.88865 2.85138 -0.786484 0.93891 -0.362291
315 1 3.81147 5.12357 6.20718 -0.54136 -0.259293 0.454271
316 1 1.52523 3.48791 6.50504 -0.488891 -0.302198 -0.696117
317 1 8.89091 0.880141 0.84545 0.634212 0.537673 -0.449478
318 1 0.0630519 5.78791 6.05643 0.791558 0.156511 -1.56373
319 1 2.89312 9.01594 0.472238 1.6796 0.719165 0.838615
320 1 4.33518 6.77585 6.24336 0.597504 0.264253 -0.0711294
321 1 9.12744 4.58965 2.30695 0.991647 0.334276 -0.959794
322 1 1.08478 6.70194 3.33031 -0.888808 -0.364898 0.138877
323 1 2.02278 4.99545 2.19715 -0.397789 0.00765869 -0.616695
324 1 1.42342 4.85014 7.42513 1.44888 0.517876 0.654054
325 1 5.44976 5.68472 1.6272 -1.58336 -0.429811 0.807901
326 1 5.64987 1.5256 5.93452 0.478643 -0.61587 -0.80198
327 1 5.12364 1.56647 8.48866 0.143772 0.594081 -0.0904557
328 1 8.13667 6.00993 1.16216 -1.23899 -1.84133 0.425168
329 1 9.38431 0.637186 8.66076 1.42869 -0.853448 -0.0179906
330 1 3.22747 5.79371 9.29964 -0.981363 0.0466792 0.413505
331 1 4.45597 1.64236 4.47341 -0.297593 0.685539 0.298571
332 1 4.54027 0.793394 3.77769 0.553632 -0.4202 -0.184098
333 1 0.712033 4.07787 3.66498 -1.20733 -0.0167754 0.468426
334 1 0.573243 7.46284 6.04829 0.285711 0.43093 -1.38742
335 1 2.44425 3.29813 1.74464 0.654023 -0.33597 -1.23783
336 1 7.06437 6.4583 6.265 0.199491 0.688579 -0.950361
337 1 7.97254 3.03061 7.5425 -1.09952 0.170684 0.351209
338 1 8.76934 2.33481 7.29516 0.255488 0.179837 -1.09322
339 1 0.276949 3.17625 6.50233 0.0432314 -0.258839 0.501409
340 1 5.33929 8.80666 2.62956 -1.01932 0.506379 -0.0470603
341 1 6.8036 3.36132 6.52695 -0.648067 -0.901381 -0.366987
342 1 7.20022 5.65645 0.90312 0.97367 -0.475589 0.66423
343 1 6.82364 5.71633 4.49935 0.479619 0.75181 -0.309761
344 1 0.851721 1.71271 5.37227 0.0214145 0.431696 -0.231888
345 1 8.07794 6.62719 8.66531 0.484783 -0.619598 1.39564
346 1 8.90453 0.128228 0.110401 -1.11359 1.37869 0.211891
347 1 6.5338 5.59404 8.74948 -0.61685 0.738507 -0.230433
348 1 6.44738 2.42817 6.35409 -1.29632 -0.357501 -0.104484
349 1 2.36978 4.54907 8.19075 -1.15038 0.111216 -0.113324
350 1 4.75371 3.95345 7.49155 0.805284 -0.0972807 -0.216719
351 1 6.58055 7.0889 2.29942 -1.3618 0.0482086 -0.29564
352 1 4.84756 8.01748 7.77898 -0.0917768 0.981137 -0.226575
353 1 9.32762 3.35094 5.18592 -0.380398 1.14065 -0.500691
354 1 9.24741 6.77522 6.15364 -0.76671 0.90598 -0.332204
355 1 1.30452 7.51747 1.7067 -0.0465635 -0.489133 0.93696
356 1 4.96263 1.76235 7.3887 -0.0462898 -0.566968 1.7899
357 1 9.13593 3.79179 1.2766 0.817758 -0.716681 -0.040619
358 1 4.21554 6.9019 5.16778 -0.773561 -0.511835 1.40343
359 1 3.96706 6.44963 7.71327 0.59007 -0.603745 -0.440758
360 1 3.70543 2.50595 0.861343 -0.61085 0.0482397 -0.773828
361 1 6.7784 1.49322 5.9684 -0.515585 -1.18815 -0.373733
362 1 0.656611 9.21005 3.17052 -0.384452 -0.0454283 -1.04026
363 1 8.54362 3.07096 2.27424 0.443954 0.932214 -0.518879
364 1 1.91856 1.31854 7.25993 0.747223 -0.156413 1.05702
365 1 2.22847 5.20588 9.07871 0.627598 1.01977 -0.486239
366 1 4.66565 7.9556 -0.00788081 0.30844 -0.296688 -0.473284
367 1 2.69016 3.15367 9.25167 0.168071 -0.0403268 -0.579587
368 1 2.36069 2.37063 4.47084 0.116292 -0.416098 -0.365027
369 1 9.04143 5.8402 0.615777 0.441175 -1.10405 -0.479261
370 1 1.43981 7.48755 8.64126 -0.957334 0.139581 0.397247
371 1 3.37993 3.36299 4.45441 0.165728 1.16591 -0.244946
372 1 6.03196 0.939513 8.90836 0.527291 -0.35967 -0.729876
373 1 6.44343 3.81428 2.19786 -0.533282 0.193397 0.348457
374 1 9.17573 0.101841 6.0036 0.262761 -1.29511 0.386765
375 1 3.13117 6.62506 1.37905 0.685585 0.874738 0.15793
376 1 4.11493 1.68532 1.48518 -0.696877 -0.150841 -0.402942
377 1 2.45185 7.44489 6.75783 0.149113 0.571369 -0.93157
378 1 3.43693 5.80882 1.98595 0.278821 0.492393 -0.98512
379 1 6.69169 4.88379 5.96069 -0.0212528 0.0298845 0.331211
380 1 7.7725 3.45833 5.50945 1.15344 -0.525442 -0.0982634
381 1 5.19546 2.60946 4.03889 -0.48316 -0.232986 1.04455
382 1 5.29558 7.9965 6.00378 1.02733 -0.0360312 -0.333033
383 1 8.73369 8.63515 6.50564 -0.555117 -0.195024 -0.486392
384 1 2.99695 0.393949 2.5229 1.56406 0.792626 -0.699801
385 1 4.17331 6.97658 8.90918 -0.0196021 0.961545 -0.471936
386 1 0.38953 4.91981 4.26258 0.38266 0.37567 1.1683
387 1 0.520491 8.16558 1.51325 -0.301277 -0.876833 -0.189846
388 1 6.05931 6.98161 0.376679 0.243646 0.690559 -1.38305
389 1 6.01895 3.46947 5.07102 0.720078 -0.10041 -0.112139
390 1 2.95139 6.28128 3.61729 0.955947 1.05335 0.106619
391 1 9.34571 8.823 2.15358 0.215383 -0.318725 -0.170005
392 1 4.82304 3.65643 2.33128 0.319183 -0.879392 0.268507
393 1 8.32569 6.9495 0.482252 -0.0946669 -0.105122 -0.621326
394 1 9.06072 5.1963 4.9966 -0.52137 0.0827506 0.407983
395 1 8.75877 1.26473 9.20167 -1.18823 -0.510987 0.484863
396 1 3.36138 4.08193 1.39947 -0.190198 0.551361 0.551898
397 1 6.36541 4.10702 8.02043 1.1477 -1.50594 0.626666
398 1 8.04599 3.61452 1.01312 -0.699345 -0.102951 -0.203027
399 1 7.53285 8.93142 2.38405 -0.598987 -0.548516 -0.446688
400 1 1.29645 5.36653 2.87174 -0.100687 0.517484 -0.499539
401 1 6.58582 4.49509 9.11904 -0.875427 1.21448 -0.426949
402 1 2.18173 2.10193 1.50223 -0.387688 -0.60713 0.824196
403 1 2.27345 3.98554 2.47853 -0.758471 0.645918 -0.611441
404 1 4.02032 7.17324 1.21689 0.77855 -0.798426 0.0679014
405 1 2.83274 5.48493 6.51078 -0.742916 -0.402229 -0.0186253
406 1 3.92404 8.1979 1.7431 -0.917099 -0.709843 0.396825
407 1 6.42108 9.01762 9.21076 0.718467 -1.24906 1.6643
408 1 1.80257 2.2075 0.170641 -0.94543 -0.328296 -0.148676
409 1 3.92561 2.64019 5.2197 1.1353 0.624402 -0.519478
410 1 8.27971 1.64768 8.14287 -0.0967518 0.757106 0.424324
411 1 4.85704 7.39121 1.81664 0.19196 0.000223425 0.793057
412 1 2.33214 6.46378 4.47055 0.859683 0.41867 -0.245497
413 1 1.80278 0.327817 1.58675 -0.240719 0.147542 -0.541712
414 1 6.57447 1.75401 8.47135 -0.0538087 0.414966 -0.0969088
415 1 7.30144 0.172644 8.75142 0.170376 -0.671669 0.625269
416 1 8.91367 8.83871 8.397 0.405109 0.00672882 -0.653176
417 1 6.52179 1.69871 3.31512 -0.297924 0.150901 0.38099
418 1 2.80793 1.96278 3.11028 -0.273495 -1.03865 -0.914333
419 1 6.49774 0.940483 2.62117 0.500803 0.668829 -0.560632
420 1 2.32223 3.82252 5.56084 0.738139 0.0509577 -0.761002
421 1 6.91159 8.03217 6.12029 -0.84033 -0.205238 -0.311153
422 1 7.92285 4.29795 4.76106 -1.60739 0.521679 -1.20838
423 1 7.91552 2.58842 4.62402 0.56096 -0.335982 -0.285037
424 1 3.91912 6.45535 4.25215 -0.524021 1.25113 0.619099
425 1 1.18045 0.755656 6.76076 0.641328 0.698911 0.351705
426 1 2.47512 1.46506 8.09482 -1.1021 -0.331286 -0.191318
427 1 7.74434 4.48745 5.80245 0.655373 -0.202754 -0.158982
428 1 4.25494 8.55962 7.15197 0.577078 0.473701 -0.964435
429 1 6.98021 0.837837 4.55029 -0.570908 -1.6976 -0.310857
430 1 8.25384 5.1233 4.3772 0.338087 -0.0184253 -0.473436
431 1 9.17552 3.00428 3.04712 -0.295238 0.0150739 -0.370268
432 1 0.970721 8.33244 2.45595 0.876589 0.195327 0.676989
433 1 1.92476 8.72687 4.68959 0.41498 -0.203257 -0.157895
434 1 7.3317 5.25137 9.3526 -0.245807 1.14499 1.74575
435 1 7.96972 7.74646 9.42948 -0.385855 0.498662 0.372157
436 1 7.98158 7.20692 5.34237 -0.643446 0.681165 1.12197
437 1 4.94119 3.74321 3.32723 -0.190143 -0.324101 0.13809
438 1 1.79177 6.23603 2.65327 0.7352 0.325769 0.38362
439 1 4.60361 6.87474 3.56976 0.273036 1.23066 0.956192
440 1 5.48376 4.93271 0.862046 -0.19058 0.312129 1.18134
441 1 7.09652 0.724103 1.17852 0.0389027 0.0971314 0.37231
442 1 6.61313 3.54953 4.26796 -2.03726 -1.24236 0.150566
443 1 3.12698 3.8545 3.07955 0.725463 -0.665896 0.0556567
444 1 0.656858 5.64621 5.12641 -1.17122 0.0995051 -0.360022
445 1 7.36395 5.71453 7.79512 -0.20243 -0.930112 0.24747
446 1 8.41253 2.46463 5.64317 1.39188 -0.328457 -0.439667
447 1 0.48326 5.29362 0.187695 -0.282438 0.165844 1.04942
448 1 2.53161 8.09093 0.0587108 -0.651694 -0.03578 -0.286461
449 1 4.06016 5.91038 6.75747 -0.410083 -0.0598742 0.231463
450 1 2.97357 8.24941 6.10259 1.54568 -0.183395 -0.887808
451 1 5.37862 4.39585 8.11053 -0.4959 -0.790678 0.262359
452 1 4.66451 6.08233 8.43573 0.097881 -0.727775 -0.235844
453 1 2.30053 1.77559 6.38982 0.706077 0.789773 0.611177
454 1 2.19055 7.05356 1.74728 0.0396035 -0.659137 0.295287
455 1 0.284517 4.41361 5.24419 -0.40993 -1.26059 -1.08697
456 1 1.73999 4.37825 1.45755 0.296543 1.11798 -0.232349
457 1 7.29777 7.32447 8.64099 0.15412 -0.501463 -0.318197
458 1 1.9785 7.88715 4.15856 -0.0603203 -0.586987 -0.34019
459 1 8.71946 3.50897 7.08449 0.360518 -0.691158 0.00976514
460 1 6.84222 3.8209 5.61847 0.505594 -0.169939 -0.940546
461 1 9.13078 5.21094 8.00178 -2.12006 1.24633 0.288606
462 1 4.28131 9.15247 8.83173 -0.135557 -0.708599 -0.0844395
463 1 3.33747 0.257639 8.62077 0.644565 1.00669 -0.720862
464 1 8.42162 3.47393 4.67577 0.979478 0.348922 0.973919
465 1 1.23457 6.54152 8.23723 1.7462 0.129181 0.699847
466 1 3.90866 2.31704 7.27758 0.794881 1.39361 -0.753417
467 1 5.50432 1.30986 2.3761 -0.0230602 0.355571 0.811259
468 1 7.89764 7.72181 3.38688 -0.457206 -0.220949 -0.790476
469 1 7.44145 0.794361 5.47985 0.562256 -0.2224 -0.350633
470 1 7.33978 3.92351 7.56499 0.710711 -0.828615 0.533244
471 1 3.88019 2.03449 6.20925 -0.106793 0.530003 -0.711619
472 1 0.64641 4.31637 1.707 0.289324 -0.572155 -0.051828
473 1 1.06298 2.62788 5.97211 -0.545795 -0.242258 -0.0474142
474 1 0.668376 8.7063 0.470826 -0.097454 -0.239001 -0.445358
475 1 0.296061 1.42013 0.349581 0.104409 0.252651 1.13949
476 1 8.90209 0.505207 7.67479 -0.0446726 -0.661902 0.49435
477 1 0.61788 1.59763 2.48883 -0.179906 0.465536 0.0549639
478 1 5.36417 8.42949 7.01185 0.919742 0.868378 2.10813
479 1 1.47354 3.78747 0.406659 1.2001 -0.440783 0.792219
480 1 2.45643 1.12441 1.89506 -0.207051 -1.19121 -0.391151
481 1 3.9689 2.52219 3.97892 0.312924 0.607989 -0.631334
482 1 7.26304 2.95342 9.07525 1.10789 -0.0782705 1.33954
483 1 3.62354 7.67543 5.4483 -0.661581 -0.856941 -0.088346
484 1 4.80286 9.30757 4.3265 -1.04277 0.274599 0.657325
485 1 4.77844 7.00221 8.09393 -0.405942 0.874118 -0.267918
486 1 6.58936 7.18863 1.24805 0.531192 0.221403 1.27883
487 1 6.28193 6.02386 2.4219 0.82393 -0.626617 -0.774255
488 1 8.26318 7.83195 7.19591 -1.20001 0.49251 0.837208
489 1 0.58503 1.655 8.64743 -0.115947 0.189752 0.268251
490 1 2.85224 7.35493 4.18398 0.542619 1.031 -1.26123
491 1 7.82473 7.0416 2.63074 1.26507 -0.727877 -0.652306
492 1 5.73848 1.04512 7.81075 1.12202 -1.36436 0.0857058
493 1 7.05348 1.85379 0.0123745 0.550749 -0.0577924 -0.284769
494 1 6.21061 2.30053 5.27413 0.348833 0.144334 -0.514531
495 1 7.46017 1.92413 2.87658 -0.675803 -0.839328 -1.42419
496 1 2.36635 3.33447 8.15689 0.148925 -1.80413 0.751456
497 1 2.34945 0.365992 8.01665 0.345432 -0.84116 0.72049
498 1 7.48005 8.83332 1.33507 0.178566 -0.185172 -0.13923
499 1 4.00423 7.4378 2.3966 0.179309 0.233407 0.90903
500 1 4.11713 4.43204 0.829384 -0.215566 -0.318043 -1.09626
501 1 5.43278 8.5249 4.75822 0.652282 0.82269 0.174768
502 1 1.37559 5.02401 3.8617 -1.09854 0.315192 1.40784
503 1 4.5526 5.64559 2.20665 0.211913 0.933686 -0.379686
504 1 4.27346 2.56315 2.00875 0.539664 0.622045 -0.913927
505 1 7.44299 5.45762 3.66265 0.625944 -1.69037 0.110714
506 1 1.08207 8.91422 5.30896 0.696269 -0.691259 0.379444
507 1 6.67468 0.799463 8.13813 0.317213 -0.331546 -0.573723
508 1 7.53629 0.619637 2.42684 0.410161 -0.31595 0.319981
509 1 0.752939 7.62669 7.11005 0.383875 -0.396663 -0.697415
510 1 0.0453848 8.25023 2.9736 -0.129168 -0.823103 0.609123
511 1 6.85259 7.73977 3.75462 0.576991 0.621971 0.881732
512 1 2.05468 5.80057 3.60204 -1.07302 -0.365642 1.33083
513 1 1.61142 7.72376 5.26125 0.845411 0.396948 -0.840053