ITEM: TIMESTEP
1140000
ITEM: NUMBER OF ATOMS
1000
ITEM: BOX BOUNDS pp pp pp
0.0000000000000000e+00 9.4000000000000004e+00
0.0000000000000000e+00 9.4000000000000004e+00
0.0000000000000000e+00 9.4000000000000004e+00
ITEM: ATOMS id type x y z vx vy vz
1 1 2.19639 2.177 8.99069 0.561132 0.529205 -0.418164
2 1 8.20837 2.5698 8.44797 0.323737 -0.123801 -0.345755
3 1 3.02813 5.91855 2.35952 1.11936 -1.23417 2.13657
4 1 5.73955 6.50211 0.0682084 0.891167 0.959809 -0.260428
5 1 2.08523 8.40884 4.37181 -0.305548 0.827219 -0.00707088
6 1 6.69054 0.598973 7.32966 1.20219 1.11056 0.0768182
7 1 1.33938 7.9165 8.83342 -0.855041 -1.04538 -0.12955
8 1 4.11139 3.4519 6.89754 1.11131 -0.808554 0.394091
9 1 2.85518 3.20919 4.29076 -1.25416 0.979623 0.290696
10 1 8.75992 7.57108 9.2232 0.986577 -0.0776539 0.907014
11 1 9.32038 1.91797 9.32233 0.605771 1.15281 -0.0580223
12 1 7.03979 0.765085 2.84474 0.451317 0.982517 0.215615
13 1 8.40459 2.1063 4.68191 -0.469477 -0.227414 -1.05032
14 1 2.66504 5.24928 0.226033 0.155785 -0.53351 -0.651844
15 1 8.81999 3.47702 1.22468 -0.785743 0.288464 0.80025
16 1 1.41563 0.947104 6.68344 -0.319211 -0.781515 -0.0286205
17 1 8.65067 3.68238 7.12148 0.362908 1.06836 0.198267
18 1 8.85894 6.72649 0.374056 -0.770903 -0.317975 -0.0511602
19 1 3.6809 0.966924 8.26457 0.287461 -0.973041 0.404795
20 1 4.25619 2.57722 7.58629 -0.117352 -1.71882 0.806465
21 1 0.296647 2.45616 2.53942 -0.620873 0.96778 0.576227
22 1 3.22818 4.77003 5.70183 -0.132384 0.107555 -1.05406
23 1 6.05433 2.30373 8.37788 -0.477337 -0.305436 0.194893
24 1 3.35756 6.7557 5.94213 0.484197 -1.35912 0.510386
25 1 5.89535 1.8704 7.39963 -0.129209 1.22934 0.865232
26 1 0.111241 9.22202 4.13195 0.292888 -0.220539 -0.214329
27 1 7.45087 8.23252 8.55531 1.61561 0.0933485 0.587153
28 1 3.61067 3.75322 6.10082 -0.954734 -0.0350559 0.118383
29 1 1.02638 4.2232 8.39162 -0.778904 0.566311 -0.128734
30 1 8.81832 1.84485 2.69587 0.0595118 -0.94741 0.0762815
31 1 0.215555 3.59614 3.68394 -0.599003 0.39699 -0.140341
32 1 4.01675 1.46781 5.13688 -0.469578 -0.465154 -0.15689
33 1 2.85475 4.26252 0.105468 -0.173863 -0.738982 -0.627743
34 1 7.42047 7.3743 2.42303 0.735549 -0.552256 1.28523
35 1 8.01926 8.52021 5.62222 0.757275 -0.590974 0.0643622
36 1 9.11909 6.33221 2.35187 -0.822758 -0.134542 0.445751
37 1 5.72551 3.91345 2.47024 -0.210845 -0.130833 0.493037
38 1 1.32465 0.404988 2.48331 0.302156 -0.427095 0.0211323
39 1 1.96381 7.32025 6.50843 -0.333555 0.105663 -0.868991
40 1 2.22104 0.45818 0.0608084 -0.693418 0.961666 0.205627
41 1 6.11805 9.12459 7.14307 -0.5301 -0.633715 1.10231
42 1 0.934601 7.1829 8.22505 -1.07107 0.991212 -0.21039
43 1 3.08864 1.41994 2.13354 0.303826 0.0944905 0.557565
44 1 5.51894 2.98551 4.22603 0.279833 -0.086092 -0.364158
45 1 4.0097 1.34063 6.26071 1.35243 0.732224 0.298755
46 1 0.751568 7.86616 2.70462 0.725908 -1.66326 -0.767024
47 1 3.41179 5.02435 7.46686 0.395805 0.608122 -0.46189
48 1 7.05597 5.14944 3.24277 -0.697005 -0.671839 0.364061
49 1 4.27443 4.25397 5.45529 -0.245917 -0.90321 -0.141061
50 1 8.62569 9.19456 2.76287 -0.669921 0.750688 -0.792111
51 1 5.29589 5.66067 4.41647 0.0227859 -0.59868 -0.130695
52 1 4.982 2.36684 0.963092 -0.51715 1.3403 -0.266321
53 1 6.79351 3.18673 5.71488 0.12892 0.266679 -0.3421
54 1 8.18224 6.93355 7.09683 0.0956891 0.589155 0.548213
55 1 1.48822 2.93876 5.90481 -0.770499 0.642732 -0.781234
56 1 2.19961 4.70891 5.82324 -0.759817 -0.379248 0.995275
57 1 0.200162 0.335371 7.45993 0.526743 -0.362129 -1.06039
58 1 8.58017 7.62712 0.848369 1.01917 -0.0554778 -0.283932
59 1 9.24757 8.94084 6.02002 -0.160261 -0.306818 -0.293745
60 1 0.31473 5.47262 8.7675 0.997552 0.431968 -0.20909
61 1 5.64727 5.398 1.98363 -0.958748 1.22001 -0.567295
62 1 0.806532 1.00111 1.78827 -0.148661 -0.492933 -0.0205153
63 1 4.11478 4.40649 8.12085 -0.861814 0.156096 -0.650224
64 1 4.60465 6.48426 7.99052 0.936688 -0.185715 1.02426
65 1 3.06773 2.49185 0.235455 1.14296 -0.0677601 0.12572
66 1 5.47089 5.23626 8.68385 -0.00470258 0.748206 1.55299
67 1 3.77258 7.47957 2.83077 0.497615 0.168365 0.456339
68 1 2.89777 6.00505 8.8183 -0.0093106 0.0144974 -0.0463477
69 1 4.55376 3.47265 8.95043 0.707088 -0.0687648 0.0470973
70 1 0.855459 2.79852 4.13758 -1.0229 0.0243891 0.552699
71 1 7.41558 4.71559 9.04164 -0.919977 -0.0476836 -0.558991
72 1 5.58617 7.03883 1.66581 0.507709 -0.00948968 0.689971
73 1 1.91947 5.9583 2.00206 0.0671381 -0.878645 -0.253666
74 1 5.44818 7.43917 9.272 0.991273 1.18033 0.0876335
75 1 1.08247 9.22147 4.57998 0.391195 -0.887041 0.0639672
76 1 5.38589 1.97712 3.74026 0.050009 -0.15527 1.00507
77 1 3.27017 4.05531 7.06401 -0.800646 -1.75117 1.25646
78 1 9.28022 6.00703 1.1928 -0.636775 0.0922474 0.0296717
79 1 5.50848 6.55561 2.58815 0.239289 -0.524092 1.6415
80 1 0.143599 5.44324 3.96896 0.710471 0.278188 0.374743
81 1 3.05403 1.92382 3.04759 0.607995 -0.0279402 0.495394
82 1 5.69939 8.93585 1.89033 0.482322 -0.279933 -0.780849
83 1 2.62555 8.32599 5.25595 -0.969287 -0.792337 0.690967
84 1 8.30042 5.73725 0.366795 0.363127 -0.0128486 -1.08597
85 1 2.23358 5.63132 3.10493 0.526701 1.0606 -1.77116
86 1 5.38531 4.67661 0.129809 0.936442 -0.632394 0.411907
87 1 7.83503 5.42482 3.72526 1.20814 0.905524 -0.377864
88 1 1.76409 8.18047 6.00869 -0.402647 -0.867537 0.523752
89 1 1.211 4.3723 0.937811 1.0028 -0.363379 -1.14278
90 1 5.69281 0.116413 4.56577 -0.267735 0.336023 0.306043
91 1 8.41725 5.26416 6.91933 -1.01075 -1.70157 -0.0185435
92 1 1.47218 8.51293 7.85592 1.2098 0.497627 0.544009
93 1 2.50615 8.82343 0.41284 -0.29551 1.39573 0.281763
94 1 6.03621 7.25442 0.696244 1.01384 -0.309909 0.655963
95 1 5.14356 6.60818 3.56002 -0.0953999 -0.618809 -0.776338
96 1 3.57506 8.34296 7.82683 -0.180711 0.580759 1.08309
97 1 4.96559 3.27311 0.49271 0.84812 1.20805 -0.540671
98 1 8.37484 8.74418 1.07126 0.0702542 0.987106 0.839432
99 1 0.978187 1.70721 5.87353 0.160969 0.966744 -0.0597132
100 1 4.54508 2.53515 6.55448 1.4437 -1.70248 -0.145876
101 1 6.24896 6.28195 1.92291 0.0176823 -0.202819 1.21385
102 1 6.62169 8.22338 7.69619 1.91504 -0.583126 0.864302
103 1 2.10402 1.13087 3.48524 -0.706332 1.42186 -0.235026
104 1 1.51646 9.21999 0.54089 -0.358151 -0.796969 0.912878
105 1 7.48567 9.37776 6.85862 0.8819 0.0795411 0.889067
106 1 5.46301 2.70608 5.37607 -0.00118336 0.348213 0.790355
107 1 9.18942 6.97832 1.45013 -0.183365 1.54306 -0.0163069
108 1 8.81656 7.92198 7.33154 -1.0897 0.467651 -0.327018
109 1 3.37393 4.07199 3.70066 0.0322597 -0.422501 -0.216458
110 1 1.33904 7.43837 7.27469 -0.654318 0.0858615 -0.688037
111 1 1.19541 0.581322 9.22727 0.286538 0.917743 -0.568408
112 1 3.43271 3.36945 2.48126 0.0188681 -0.739917 0.0485202
113 1 0.0274086 6.24773 8.06058 -1.22213 0.23143 -1.35831
114 1 3.97189 6.46957 2.45182 0.430593 1.1612 -1.15162
115 1 4.8995 0.938706 5.03582 -0.383986 0.579563 -0.000148236
116 1 1.69098 8.18507 0.42745 -0.50734 -0.33155 0.563341
117 1 5.79483 7.02906 6.77031 -0.344497 -0.271672 0.263838
118 1 7.21455 8.77265 0.323234 -0.209085 -1.43875 -1.11278
119 1 6.92348 7.92676 0.861321 0.273335 0.211373 -0.207535
120 1 5.70882 8.62145 2.88798 -0.0145493 0.208437 0.132921
121 1 5.0938 8.86317 7.19125 -0.0567095 0.315852 -0.559646
122 1 0.626091 1.68395 0.869702 0.437229 0.468873 -0.854795
123 1 0.862862 1.23771 4.9145 -0.127417 -0.514896 -0.951834
124 1 1.44836 7.40963 1.07674 0.445668 -0.246476 0.310267
125 1 8.63801 3.0283 4.06466 0.243397 -0.832937 0.0456795
126 1 1.45278 4.69907 6.78344 -1.16052 -0.299274 -0.492309
127 1 3.63877 7.61455 3.92689 0.24092 -0.661973 0.722332
128 1 4.97383 1.66829 7.75301 -1.72887 -0.0679856 0.442711
129 1 4.41556 5.84556 0.822265 0.458451 -0.0389837 -0.527638
130 1 1.84461 5.63277 6.48187 0.0206962 0.387401 0.545111
131 1 8.69712 0.341401 5.41744 1.42488 0.483682 -0.57044
132 1 6.3654 5.794 2.85658 -0.712215 1.30211 1.20394
133 1 7.33889 6.49445 1.91721 0.249914 0.505126 0.0920951
134 1 6.0838 1.19444 8.11637 -0.907757 -0.195436 -1.39713
135 1 5.59917 2.95295 7.61305 -1.08509 -0.0475168 -0.304601
136 1 3.40593 8.02181 8.80636 -0.692878 0.827447 0.774073
137 1 2.28698 4.65598 7.62251 -0.156875 -0.782985 0.538502
138 1 3.67148 3.49038 7.90633 -0.519072 0.115428 0.694041
139 1 1.03136 8.53315 3.81948 0.0363967 -0.493356 -0.0042123
140 1 1.44145 4.57204 5.0076 1.11055 0.289486 -0.437098
141 1 0.92617 1.73389 9.20016 -1.3929 1.36923 -0.471025
142 1 3.61946 2.18371 6.88701 -0.205121 0.480294 0.371557
143 1 2.53437 6.36395 6.4204 -0.217344 0.567375 0.799814
144 1 8.30706 7.11762 5.96126 -0.876181 -0.45844 -0.522752
145 1 3.50405 6.43106 7.01605 0.263291 -0.828791 -0.378045
146 1 8.15556 7.85126 1.88503 0.214049 0.341043 -1.52419
147 1 3.55993 9.38158 8.16382 -0.416178 0.405273 -0.582081
148 1 8.59009 4.10352 8.09461 -0.0798441 0.792691 1.00361
149 1 0.669884 7.48238 1.71535 0.767232 -0.496187 0.483503
150 1 4.09855 8.72796 5.21269 1.12082 1.0372 -0.275706
151 1 0.18826 0.936589 5.81098 0.456235 -0.104382 0.545665
152 1 5.69596 1.56068 0.695096 0.914167 -0.016367 -0.852358
153 1 0.401412 5.07984 1.24467 -0.489799 0.486624 0.936083
154 1 5.68206 8.11645 7.09673 0.167364 -0.356065 0.381487
155 1 4.37634 7.69847 8.2752 -0.150484 0.149684 -0.602717
156 1 3.92079 2.2803 0.791599 0.688863 0.684591 -0.595977
157 1 7.62295 1.05692 7.14529 0.21115 -1.18125 -1.37287
158 1 1.08775 8.53723 6.75137 -0.394284 0.785721 0.629725
159 1 6.90373 8.48041 5.69028 0.601917 1.30166 0.397047
160 1 7.28142 2.14142 8.73155 0.30149 -0.128695 -0.128824
161 1 8.50961 3.52398 2.18548 -0.199636 -1.21013 -0.215994
162 1 9.42015 3.60043 0.287596 0.808826 -0.11473 -1.23803
163 1 7.94494 1.3374 8.37283 0.458171 0.847917 1.11876
164 1 3.80339 7.28486 7.53689 -0.890288 0.705115 -1.11133
165 1 1.71268 1.62662 0.427812 0.730023 -0.30333 0.876977
166 1 7.11158 6.78281 5.69005 -1.42595 -0.967189 0.584312
167 1 7.66103 7.16914 1.16424 -0.358178 -1.32482 -0.131732
168 1 5.6225 3.34789 1.37765 -0.977934 0.223532 1.04536
169 1 3.41345 5.63951 5.21761 -0.0173345 0.961684 0.00608889
170 1 0.222492 6.91053 8.88819 -0.258635 0.346374 0.7435
171 1 8.91824 4.66623 3.59543 0.227996 -0.156564 -0.77619
172 1 6.4188 8.99086 0.959145 0.936035 -0.65584 0.859235
173 1 7.50515 6.04651 2.89075 0.741134 -0.192102 0.793003
174 1 2.05985 2.16378 3.14398 -0.588167 0.200995 1.68598
175 1 4.25721 0.434903 0.426286 -0.87269 -0.537892 -0.0204751
176 1 0.220998 0.113626 5.12311 0.670033 0.00196754 0.365966
177 1 2.21296 1.20966 4.43856 0.329653 0.735288 0.91415
178 1 5.07096 7.56736 6.25893 -0.645252 0.177418 -0.222265
179 1 4.95097 5.79637 9.34302 0.0141772 -0.216544 -0.279675
180 1 4.36438 8.08306 7.18184 -0.495178 -0.544987 -0.92146
181 1 9.09843 4.38921 1.64051 -0.49817 0.215543 -0.576653
182 1 6.1777 2.08612 2.85942 -0.210078 -0.795698 -0.095654
183 1 3.84982 8.98454 1.68976 0.968382 0.0192401 -0.031981
184 1 4.74216 3.48316 7.83657 0.384638 1.59501 0.711428
185 1 1.5809 3.93925 5.8792 0.417052 0.954054 -0.235567
186 1 7.15295 5.92075 5.09654 -0.661901 -1.39422 0.8124
187 1 5.33109 2.8465 2.19841 -0.572468 -0.33439 -0.449228
188 1 9.33883 7.1124 5.01661 -0.256253 0.492582 -0.233687
189 1 3.01879 3.05697 6.44839 -0.793269 0.546655 -0.382768
190 1 8.67166 5.59861 3.13451 0.62723 1.78265 0.127283
191 1 6.36037 3.75386 7.66393 -0.97291 1.10116 -0.153323
192 1 7.43664 4.98145 7.16644 0.557393 -1.17786 -0.947238
193 1 4.64112 9.15837 6.27304 0.332298 0.493509 -0.397499
194 1 3.14401 9.19171 5.26254 0.0243824 0.110325 0.302379
195 1 7.42265 9.2596 8.73419 0.0735732 0.102403 0.326104
196 1 6.16989 8.63139 4.05027 0.196202 0.928153 0.423909
197 1 1.77008 4.62258 4.01625 -0.158715 0.0717173 -0.152919
198 1 3.32635 5.65771 6.28388 -1.07779 -0.483613 0.174849
199 1 0.988207 7.44883 6.05461 0.0400041 0.327725 -0.393912
200 1 3.80817 0.212802 3.53041 -0.541784 -0.636127 -1.19091
201 1 4.10659 7.29361 6.53261 -0.0376918 -1.03719 -0.722769
202 1 0.958028 3.52031 5.14317 -0.204342 -0.413146 -0.172735
203 1 1.62973 6.56299 5.82947 -0.822822 0.425322 1.50087
204 1 5.8327 3.34953 6.17651 -0.579987 -0.824495 -0.0451713
205 1 9.18444 7.26212 7.9649 0.413883 0.118864 -0.487381
206 1 6.3427 2.40017 3.94782 0.203809 -0.342928 0.508496
207 1 6.42371 1.92755 0.0436213 -0.315293 0.614237 0.529141
208 1 7.65324 4.97926 5.42044 -0.264247 -0.986877 0.304643
209 1 6.32345 1.12866 1.99903 -0.250543 -0.556141 0.221474
210 1 9.16663 4.61947 7.32564 -0.737422 1.11674 -0.100371
211 1 4.04857 1.72071 2.60882 1.41037 -0.0856943 -1.16967
212 1 4.38467 8.14488 2.17654 0.441665 -0.742383 0.951735
213 1 3.15341 0.773666 5.86126 0.450905 1.48664 0.174627
214 1 0.0221685 4.61699 8.37664 0.28109 1.16389 -0.527591
215 1 1.93563 6.54098 7.31553 -0.342548 -0.877102 -0.266825
216 1 3.77426 2.73665 8.74497 0.117727 -0.612253 -0.409846
217 1 6.45869 3.00287 1.98677 -1.34059 -0.415186 0.476414
218 1 3.52984 3.10203 1.29986 0.37251 0.173071 -0.336615
219 1 5.58221 6.16357 1.10718 -1.29801 0.00273924 0.391167
220 1 7.72759 3.03839 9.2535 -0.0639204 0.73417 -0.541073
221 1 2.26091 0.659669 5.28429 1.08727 -0.316675 0.999082
222 1 4.60548 3.64444 2.69365 -0.0707204 0.488138 0.224514
223 1 8.20513 5.68671 2.16986 -0.26123 -0.118178 -0.0374537
224 1 7.54458 6.496 0.443491 -0.453533 -0.0274174 0.186458
225 1 2.2941 2.42688 4.8776 -0.0756465 -0.125089 0.373461
226 1 4.19414 5.66586 6.89798 -0.276756 -0.0554569 -0.860413
227 1 4.04566 1.40396 1.64214 -0.000916699 0.432422 -0.163479
228 1 6.50718 6.27201 8.54013 0.989772 0.685734 -0.119421
229 1 2.48921 8.5675 3.05898 0.0729946 -0.0381584 -0.573361
230 1 3.15937 7.74527 0.407172 -0.363 -0.143243 -0.772088
231 1 0.871053 5.58358 6.70984 -1.63837 -0.160463 -0.614102
232 1 5.00549 6.32469 6.87271 -0.0146934 -0.176025 -0.190627
233 1 7.32135 7.44162 7.27513 -0.502332 0.306736 -0.843452
234 1 1.09376 3.67206 0.0883194 0.351747 0.568689 -0.2125
235 1 8.20511 5.74045 4.66127 0.453683 -0.306227 -1.49737
236 1 2.69894 5.84527 7.31137 -0.235637 -0.329142 0.188868
237 1 7.43293 2.27149 6.96456 -0.261412 -0.173421 0.974478
238 1 5.15523 8.39775 8.91523 -0.740014 0.66782 -0.716239
239 1 3.12585 6.59505 4.941 0.526913 0.923813 -1.15766
240 1 4.03412 0.415689 5.37058 0.395673 -0.183554 -0.352492
241 1 7.22033 4.10702 3.9604 -1.12504 0.464178 -0.577292
242 1 4.69209 3.35809 5.94785 -0.106435 0.320256 0.151547
243 1 5.85509 8.10802 1.24081 -0.267905 -0.31293 -1.08829
244 1 6.62281 3.65076 1.05249 -0.00570632 -0.415895 -0.261468
245 1 7.82695 2.7543 2.24993 0.188643 0.537307 -1.11462
246 1 7.72429 5.75281 8.57285 -0.37808 1.39617 0.468162
247 1 8.83831 1.74868 0.896366 -0.18808 0.574696 0.184159
248 1 8.32861 6.48039 8.04047 -0.770763 0.1323 0.349034
249 1 1.00857 6.20243 8.73714 -0.0802118 -0.684222 -0.237361
250 1 2.9202 9.13127 3.81498 -0.0748373 -0.454436 -0.232978
251 1 1.34526 8.78014 2.74446 -0.625779 0.154185 -0.40065
252 1 5.35941 4.74088 3.93813 -1.04307 -0.298105 0.45485
253 1 9.34479 5.64792 7.06304 -0.0225438 -0.350823 -0.174718
254 1 6.43608 1.4988 4.32986 0.779134 1.01962 0.222126
255 1 9.1347 0.725745 1.29386 0.605893 0.394041 1.29141
256 1 8.03479 4.43061 6.49615 0.563682 0.54471 -0.0684889
257 1 2.83467 8.78806 1.51984 1.50527 0.451876 -0.480581
258 1 5.55241 0.978421 4.11451 -0.279505 -0.172616 -0.397647
259 1 4.37647 5.24147 5.90533 -0.568245 -0.485278 0.464952
260 1 4.02919 9.10512 7.2041 -0.277947 -0.498194 0.204627
261 1 7.61401 3.68481 0.70494 0.277014 0.778493 0.724813
262 1 4.35583 2.63098 2.49898 -0.231048 -0.234396 0.60237
263 1 6.57783 2.78276 6.71476 0.299741 -1.05307 0.416701
264 1 8.15164 4.6578 4.34361 -0.603648 0.400638 -0.276935
265 1 7.93702 3.69052 4.5585 -0.687676 0.00744043 0.800776
266 1 7.88548 4.48899 3.32773 0.752314 -0.889246 -0.634513
267 1 2.27048 0.192303 3.15542 -0.586326 -0.131595 0.059931
268 1 5.66346 3.38134 8.57485 -0.12161 0.754695 1.48923
269 1 2.0388 5.92378 8.25165 -0.525783 -0.202366 0.311797
270 1 8.93843 0.316477 6.48159 0.274451 -0.629339 -0.693402
271 1 2.0824 2.53791 0.834471 -0.392443 0.115313 0.144727
272 1 5.90942 1.80278 5.84134 -0.941513 -0.599592 -1.17696
273 1 0.509907 6.08285 3.13315 0.371254 0.113656 0.239498
274 1 6.36653 7.9075 8.63535 -0.62491 1.17976 -0.941066
275 1 2.95689 6.95908 9.22694 0.188467 -1.51746 0.199744
276 1 9.04886 6.64573 3.33242 -0.189178 -1.15212 0.346743
277 1 8.98138 5.08692 4.88974 -0.626097 0.0348941 0.892395
278 1 2.64135 2.12752 6.96478 -0.610586 -1.21684 -0.517106
279 1 1.30271 0.81082 0.926808 -0.880109 0.473249 -1.62777
280 1 6.68495 2.8973 9.01009 0.918436 0.42308 1.50759
281 1 6.75198 8.04078 3.09747 -0.71113 1.94132 -0.446447
282 1 4.25419 9.13825 2.58005 -1.25558 -0.77667 -0.163647
283 1 8.87323 8.76653 4.92447 0.109114 -1.11084 -0.19472
284 1 4.00151 8.91084 9.00997 -0.804785 -0.928397 0.239062
285 1 3.68431 5.84264 1.57661 0.550894 -0.572258 0.405575
286 1 0.66786 0.126635 6.56789 1.13731 -0.956185 1.0461
287 1 3.79343 5.7996 4.26084 -1.03175 -1.08698 0.0558178
288 1 1.44649 1.81609 1.46776 0.408918 -0.869601 -0.279038
289 1 5.93438 3.0656 3.05213 0.690359 0.849464 0.565221
290 1 1.71825 7.90767 3.22237 0.474149 0.0275722 0.702875
291 1 2.66652 8.81112 6.28272 1.02706 -0.386437 -0.830968
292 1 2.56522 3.69536 5.7702 0.623412 0.467126 0.728957
293 1 3.88654 0.737582 2.38927 -0.933034 0.304322 0.439622
294 1 1.87087 5.8341 9.35445 -0.132104 -0.258735 -0.518547
295 1 4.22328 2.56486 5.40186 0.415652 0.681736 0.0902059
296 1 5.90143 4.68535 7.91276 0.957862 0.266544 0.4106
297 1 6.47344 5.23733 8.77795 -0.672338 -0.974458 1.11913
298 1 3.01037 6.77539 3.92766 0.512625 -0.00266885 -0.0600132
299 1 7.4435 8.75346 1.40141 0.109481 0.263859 0.998537
300 1 6.72831 3.72033 2.81086 -0.346036 -0.456321 -0.840406
301 1 0.197034 3.69965 6.70693 1.26999 -0.540146 0.454684
302 1 6.60938 9.29099 5.08046 0.273931 0.0167624 -0.158294
303 1 4.23946 6.36405 6.17956 -0.811849 0.436186 -0.404836
304 1 7.36931 2.1129 4.48221 0.615524 -0.421572 -0.479417
305 1 3.38292 0.645877 9.30873 0.167787 -0.812936 -0.530329
306 1 8.83995 7.34961 4.13633 0.0305686 -0.665899 0.577005
307 1 6.65428 7.20586 1.54611 0.0231596 -0.762773 -0.414362
308 1 5.43467 1.34935 2.58992 0.717704 0.0527147 -1.23422
309 1 2.66273 4.93634 6.74795 -0.34144 0.17877 -0.257782
310 1 2.03672 0.195432 4.1826 0.599368 -0.264158 -0.313432
311 1 5.24011 0.790644 0.250938 -0.0814253 -0.70988 0.925394
312 1 0.637183 2.49715 1.55823 -0.742904 -0.0968634 0.527169
313 1 7.35775 3.64402 1.96716 -0.0868231 1.64696 0.315317
314 1 5.09697 4.21658 8.50495 -1.61836 0.478312 -0.134694
315 1 3.79482 4.71236 6.53651 0.322342 0.299151 -0.534655
316 1 2.27765 0.78549 2.2718 -0.692638 0.511655 -1.14948
317 1 1.74226 1.26002 8.72904 0.926782 0.408297 -0.324155
318 1 8.85385 6.04307 8.95972 0.462872 0.145045 0.361814
319 1 1.45118 0.0866557 7.32101 -0.502624 -0.874813 0.353483
320 1 7.59553 0.0772631 3.30297 0.471286 -0.0310216 -0.850021
321 1 3.90248 3.23807 4.4802 -0.324341 -0.335851 -0.476734
322 1 0.239264 8.03057 8.90295 -0.608806 0.624242 -0.983172
323 1 3.55975 8.51949 3.35194 0.311225 -1.50065 -1.13044
324 1 7.00547 4.5321 1.42107 -0.718956 0.088043 -0.381912
325 1 6.34979 4.73492 2.25195 -0.327565 -0.399881 0.535888
326 1 0.355563 7.61507 6.87666 0.157857 0.100336 1.09178
327 1 3.52183 5.93444 8.02881 1.28588 -0.26391 -0.224023
328 1 4.0698 4.00457 1.87736 -0.112975 1.06082 0.385971
329 1 1.29658 3.40253 1.97544 1.19545 1.11554 0.195983
330 1 2.9254 2.08 1.19664 -0.47932 -0.459922 1.47584
331 1 1.92918 4.02571 8.75467 0.458979 0.170996 0.149985
332 1 1.32644 2.21451 8.41911 0.0913946 -1.06802 1.1149
333 1 5.46567 4.98647 2.88446 0.420388 -0.495006 -0.159006
334 1 3.32225 8.11513 6.81945 0.538628 0.746018 -0.322625
335 1 4.45966 3.0847 1.57334 -0.458775 -0.798706 -0.649194
336 1 8.16562 6.80943 4.85374 0.951377 0.0837718 -0.508861
337 1 5.51382 6.29943 8.38059 0.37568 0.726667 0.642986
338 1 7.68972 1.64023 5.43179 -1.27466 0.597739 -1.2219
339 1 7.19863 7.14822 8.4443 0.38927 -0.344007 -0.270921
340 1 0.751186 6.52299 1.02373 1.26163 -0.311675 0.929246
341 1 9.07111 9.19499 1.80539 0.967236 0.280909 0.888143
342 1 4.94114 7.28 7.27105 0.0460207 0.332682 -1.07271
343 1 1.99372 4.64884 2.86515 0.209973 -0.61379 -0.502463
344 1 4.91198 0.713153 6.05779 -0.51254 -0.258077 -0.904674
345 1 8.78891 8.63124 3.74537 -0.635261 0.542266 0.0915548
346 1 0.512086 4.53915 9.31288 -1.24053 -0.208727 -0.475893
347 1 3.11605 5.01571 1.22016 0.442369 0.161383 -0.00238757
348 1 4.95517 2.5331 8.36819 0.0716486 0.0998691 0.616554
349 1 4.60978 2.32142 9.33399 0.213906 0.81929 -0.230194
350 1 5.60771 7.61794 3.34613 -0.391443 0.9138 0.580179
351 1 8.12134 4.01147 9.19005 0.95007 0.615805 0.0262129
352 1 4.00081 5.97878 8.96715 0.0289106 -0.996063 -0.795706
353 1 0.0387573 2.86626 4.75565 -0.941612 -0.00262676 1.3476
354 1 1.74115 8.85282 8.87806 0.818141 -0.0178044 0.199431
355 1 7.5938 3.9614 7.46206 0.342001 0.286009 -1.14164
356 1 0.612045 5.22083 7.71413 0.725298 -0.129982 -0.789122
357 1 7.15643 0.346307 1.14711 -0.979015 0.227994 -0.376265
358 1 6.63516 6.33543 0.915778 -0.630437 0.526522 -0.800557
359 1 2.98069 1.68817 8.53978 0.274644 0.930759 0.715303
360 1 5.21493 4.36231 5.00216 0.152041 0.0730623 -0.412439
361 1 0.907938 1.99234 3.2992 1.02315 0.498279 -0.0624578
362 1 5.32874 3.83319 3.46468 0.763484 -0.91972 -0.188742
363 1 6.65596 7.019 9.23769 -0.0537543 0.492214 0.238685
364 1 2.36884 1.23955 1.29446 -0.555808 0.906207 -0.0222103
365 1 2.37992 5.01495 8.61301 -0.0126477 -1.50343 -0.347188
366 1 7.07116 5.81166 6.13519 0.254028 -0.140243 1.06953
367 1 0.776563 5.1165 2.68031 0.137929 0.804501 -0.070149
368 1 2.36005 7.86125 1.2618 0.216071 -1.31772 1.40118
369 1 6.82942 2.72253 7.84972 -0.4205 0.462928 -0.753422
370 1 5.93704 2.1295 1.65974 1.28957 1.57037 -1.0542
371 1 0.148136 8.09752 4.28185 1.47421 -0.702076 -0.163435
372 1 2.23913 3.94867 6.68066 -0.0382811 -0.742331 0.432171
373 1 6.13673 0.987884 9.22705 0.183844 0.751466 -0.102472
374 1 6.05456 6.36584 4.52041 -0.422756 -0.471426 -0.440625
375 1 6.31074 6.24904 5.5207 0.419686 -0.749692 0.398322
376 1 4.06083 1.88966 8.33535 -0.979459 -1.28345 -0.131042
377 1 1.31058 5.16 8.58579 0.0335788 -0.541609 0.890539
378 1 6.57125 8.31142 1.9355 -0.89253 0.769185 0.478714
379 1 7.90031 4.85365 8.10317 -0.831307 -0.438355 0.139172
380 1 8.30213 6.86499 2.11632 0.0935954 -0.226006 -0.412854
381 1 2.59243 0.69968 8.534 -1.45501 -0.024518 -0.312289
382 1 7.19425 7.05404 3.38831 0.7947 0.524288 0.645057
383 1 6.54965 4.66197 0.45767 -0.525293 0.708694 1.40445
384 1 6.75663 9.31597 1.92492 0.00120456 0.422175 0.056838
385 1 4.88565 9.02936 0.296585 0.253406 0.558328 1.46415
386 1 8.77859 0.852676 2.88062 0.150317 -0.204528 -0.0106495
387 1 0.17034 0.763945 3.60826 0.477425 0.433409 -1.00882
388 1 7.79744 1.16992 0.850648 -0.898817 0.125211 0.66118
389 1 7.86192 3.04635 5.47963 0.527059 2.18122 1.33368
390 1 3.65943 4.95445 3.32361 -0.240645 1.49559 -0.746321
391 1 4.64013 8.84043 8.13958 0.614432 -0.390902 0.123167
392 1 8.64108 2.46077 5.65202 0.0116538 -0.980047 -0.789695
393 1 3.52587 7.71637 1.4124 0.0874304 -1.17996 0.154866
394 1 0.658016 4.25199 7.44179 -0.11983 0.137657 -0.100625
395 1 7.80582 8.43773 7.41508 0.358837 -1.44668 1.06961
396 1 2.93006 3.0523 3.24671 0.214644 -0.898393 0.228875
397 1 6.03983 3.50015 0.20982 -1.34037 -0.442741 0.715917
398 1 8.56395 5.18782 1.2065 -0.766151 0.411198 -0.239274
399 1 0.888787 3.19247 3.05563 0.376512 0.967103 -0.144049
400 1 7.60291 8.59752 2.52327 0.505737 -0.179272 -1.18912
401 1 5.48516 1.8806 4.7706 -0.661385 0.135355 -0.937937
402 1 8.82416 1.44672 3.91068 -0.20167 0.0735387 0.126572
403 1 0.764295 5.86997 2.00902 1.01176 -0.0163423 -0.0732236
404 1 6.40671 7.54567 3.99572 -0.119262 -0.67868 -0.276606
405 1 2.38492 0.50339 6.76945 0.309698 -0.595938 0.590092
406 1 4.90812 1.9412 1.93688 0.239703 0.848041 -1.41587
407 1 5.30809 1.05945 1.50831 -0.86567 0.396095 0.950402
408 1 3.04164 3.93645 1.71038 -0.286757 -0.843893 -1.30016
409 1 1.8963 2.97042 3.92826 0.8065 0.0709045 -0.31371
410 1 0.700366 3.08832 7.72657 0.321651 1.00818 -0.547464
411 1 6.00857 1.07527 5.1398 -0.286352 -0.0339743 0.621726
412 1 7.19684 0.813573 4.85009 0.931378 0.256045 -0.470897
413 1 4.32215 7.89343 9.26121 0.55624 -0.0385577 -0.114485
414 1 8.95092 3.98871 4.38845 0.347937 -0.48151 -0.187831
415 1 1.99995 3.07431 0.00259553 -0.368682 -0.0864186 -1.86708
416 1 7.34236 1.11012 1.87588 0.0791601 -0.0724733 -0.78242
417 1 0.649367 6.25592 5.7141 -0.374818 0.453612 -0.306304
418 1 5.30929 0.115186 1.11802 -0.437629 -0.794839 0.98969
419 1 7.47841 2.96641 3.82044 0.0713139 -0.03931 0.525402
420 1 1.87463 1.61477 5.43686 -2.08446 0.709157 -0.39521
421 1 5.99608 8.41228 5.18444 0.865782 -0.989308 -0.609488
422 1 4.04681 3.18032 3.45122 -0.896054 -1.23539 0.238394
423 1 0.15095 3.33789 2.04527 -0.485812 0.634195 -1.49395
424 1 7.96999 -0.0548624 4.79746 -1.00416 -0.98559 0.0383196
425 1 2.67256 2.10357 4.02977 0.922605 -0.0582874 0.0295211
426 1 8.71001 0.949315 9.17971 -0.415894 -0.168058 0.0497857
427 1 6.28776 5.23549 7.09149 -0.269136 0.443696 -0.238329
428 1 3.61854 9.15625 6.16454 -0.151119 -0.269564 -1.19324
429 1 3.94146 6.94702 0.221468 0.199466 -1.50462 0.036019
430 1 2.74491 7.61761 4.50627 0.266602 0.756203 -1.10426
431 1 0.0148689 1.95161 6.30384 -2.10577 -0.493068 0.822112
432 1 5.57603 0.75982 7.33266 -0.177043 -0.702699 -0.118757
433 1 3.40126 0.559028 6.93959 -0.556635 0.630485 0.457941
434 1 6.38119 5.32741 1.23822 -0.000147024 -0.325501 0.0627555
435 1 1.27124 2.47314 2.41158 -0.401243 -1.12715 -0.304907
436 1 9.38068 2.65986 0.820543 0.874952 0.635059 0.0295382
437 1 8.6327 4.93863 8.99828 0.96199 -0.178861 0.754577
438 1 8.29111 8.48883 0.0593087 -0.234453 -0.0655395 -0.0445047
439 1 4.59095 8.33863 3.2196 -0.29243 0.446124 -0.339567
440 1 1.4674 6.17714 2.84716 -0.188908 0.891424 0.282585
441 1 7.03549 1.7609 3.48334 -0.341129 0.0448086 -0.916159
442 1 5.87022 4.32083 6.78559 -1.06992 -0.0117863 1.33671
443 1 3.42369 5.03353 8.61548 -0.984985 -1.00384 0.832743
444 1 7.7547 5.96771 6.82331 -0.105491 1.16516 1.04934
445 1 4.45022 1.11763 9.04012 0.679748 -0.219022 -1.00902
446 1 6.88958 4.47645 8.17613 0.383847 -1.47333 -0.00874818
447 1 2.99646 6.87707 0.954089 0.609898 0.248344 0.764118
448 1 6.81128 8.48408 6.72508 0.679259 1.02646 -1.24296
449 1 0.266341 0.319146 8.8261 -0.946598 -1.02106 0.251124
450 1 1.726 4.76486 0.0484347 -0.419585 -0.0191308 0.291256
451 1 5.72029 8.56528 8.06013 -0.367214 0.21721 -0.215318
452 1 6.774 6.71129 6.66677 0.66098 -0.113119 0.271758
453 1 4.80983 6.41477 1.77561 -1.65621 0.0304577 -0.463786
454 1 4.63099 7.47113 3.76148 -0.501787 -0.188298 -0.00343048
455 1 6.46412 5.15909 5.45687 -0.732699 -0.224561 0.179632
456 1 7.0012 6.05483 3.94708 0.0561228 0.193786 0.777385
457 1 6.22114 7.31884 2.50016 -0.101651 0.860615 -0.369571
458 1 0.527818 6.87815 2.54865 0.20648 -0.31259 -0.779668
459 1 0.191903 7.40025 0.506069 1.1754 0.0580753 -0.448464
460 1 7.19838 1.28549 9.25648 -1.8963 0.403759 -0.0895787
461 1 0.596387 4.56335 3.59753 0.324999 0.90933 -0.477948
462 1 3.34061 8.30025 2.30754 0.277321 -0.568466 -0.00589839
463 1 2.24717 0.0848162 1.1857 0.156464 0.687172 -0.0738308
464 1 9.0404 4.53402 6.31756 -0.0449478 -0.73895 -0.360251
465 1 8.12528 7.5377 8.00062 0.535772 1.28408 0.428963
466 1 7.6777 8.29797 3.55982 -0.874653 2.59427 -1.61979
467 1 6.78613 1.77356 1.16192 -0.115387 0.786751 0.613947
468 1 8.46157 8.1833 2.9133 0.161585 0.140501 -0.805884
469 1 1.66841 2.75405 7.33953 -0.666933 -1.12109 0.926753
470 1 0.785185 2.39819 6.76328 0.454091 1.587 0.574617
471 1 2.62323 8.18251 7.95979 -0.212853 -0.49848 0.179532
472 1 5.29307 6.63978 5.89911 -0.986398 0.0215526 1.10818
473 1 9.02023 2.91628 7.7987 -0.18415 -0.709329 -1.12076
474 1 6.46868 8.94543 8.83051 -0.64304 0.0479211 -0.143312
475 1 2.80207 1.1991 7.45799 -0.88459 -0.256931 -0.125549
476 1 9.09601 1.96148 7.24061 -0.0497581 -0.203361 0.880284
477 1 8.70594 8.28645 8.40169 0.180687 0.53975 0.727545
478 1 1.27418 0.112245 3.47491 -0.0209102 0.103682 -0.710451
479 1 0.309949 6.20053 0.175536 0.471138 -1.44962 -0.89628
480 1 5.97468 5.97741 6.47002 -0.53505 -0.475224 -0.818912
481 1 4.00304 6.75835 1.21494 0.383987 -0.645643 0.51355
482 1 5.40721 7.83968 4.48077 0.624637 -0.43379 -0.370426
483 1 5.28894 5.09918 1.05684 -0.324187 0.0948539 -0.173886
484 1 8.09321 4.25656 1.44469 -1.5658 0.17686 1.06643
485 1 8.77741 5.37334 8.02957 0.324166 0.51876 0.507411
486 1 1.57649 1.972 4.254 -0.143122 -0.794908 -0.437816
487 1 0.532441 5.57749 4.95763 0.788695 -0.0317664 1.12183
488 1 6.39412 3.43253 3.90093 1.60359 0.679887 -0.082595
489 1 0.582911 8.73749 1.99269 0.633644 0.0650009 0.313384
490 1 8.18488 7.2063 3.15371 0.0854147 0.664914 0.444508
491 1 6.21191 6.63036 3.48166 -0.733871 -0.422044 -0.104809
492 1 2.20484 7.20789 0.411827 0.464942 -0.513301 -1.17533
493 1 8.30147 6.37096 1.20644 0.620597 0.945947 -0.592539
494 1 6.08495 3.58943 4.98268 -0.522378 0.795899 0.690273
495 1 2.26737 2.10069 2.04183 -0.494182 1.36864 -0.110799
496 1 3.02009 4.30262 2.67456 -0.587186 0.198477 0.103827
497 1 7.28045 6.47276 7.62256 0.447884 -0.646945 0.671034
498 1 6.95826 0.700454 8.35274 -0.449276 0.808079 0.982623
499 1 3.99345 2.15162 3.60261 -0.523093 -0.1569 -0.243578
500 1 4.52737 4.15975 0.293063 0.165923 0.190807 1.63825
501 1 6.95642 4.74155 6.28858 -0.332001 -0.436614 1.29095
502 1 0.0772432 4.26116 2.68981 -0.563038 -0.13954 -0.926297
503 1 2.70598 7.37747 7.21956 0.0789158 -0.287225 0.17049
504 1 3.34354 8.46191 4.44899 -0.227931 0.394679 -0.16002
505 1 6.97738 3.83443 9.29825 0.140791 0.92415 1.45489
506 1 2.33302 5.72192 5.45252 0.515519 0.403093 1.1567
507 1 6.53771 9.36391 6.20646 0.73608 0.885185 0.682345
508 1 4.62675 5.60749 3.46009 0.376706 -0.88429 0.341453
509 1 3.83651 3.24877 0.272383 -0.63285 -0.157291 0.521984
510 1 4.8939 4.65075 2.13347 0.23068 -0.36736 1.79148
511 1 4.66962 0.493337 7.08235 0.314318 -0.635675 -0.031931
512 1 9.31885 8.36916 0.451733 -0.737955 0.894742 -0.45953
513 1 1.05704 7.15983 0.00114676 0.842658 1.26349 -0.570506