ITEM: TIMESTEP
19160000
ITEM: NUMBER OF ATOMS
1000
ITEM: BOX BOUNDS pp pp pp
0.0000000000000000e+00 9.4000000000000004e+00
0.0000000000000000e+00 9.4000000000000004e+00
0.0000000000000000e+00 9.4000000000000004e+00
ITEM: ATOMS id type x y z vx vy vz
1 1 1.9651 3.80725 7.97769 0.827034 -0.00519461 -0.0783012
2 1 7.31492 4.36809 8.59625 -0.445788 1.12687 -0.15346
3 1 2.66721 3.90537 1.7278 0.305644 0.320759 0.856226
4 1 7.51539 7.80106 8.09795 -0.437202 -0.375494 -0.644395
5 1 1.37026 0.794138 4.72789 0.734444 -0.0505269 -0.940509
6 1 6.4914 9.17737 7.35375 0.217106 -0.761713 0.264631
7 1 9.08166 7.47862 8.7733 -0.12595 0.76778 0.67081
8 1 4.44524 2.08286 4.73352 0.46072 -0.45706 -0.778194
9 1 3.47079 3.51825 6.13181 -0.5905 -0.403825 -0.190088
10 1 0.169471 7.19349 7.77323 1.20467 -0.746116 0.359678
11 1 6.60407 1.06108 7.22167 -0.631807 0.886606 0.666233
12 1 8.33153 1.27964 1.27399 0.63963 -0.987355 -0.594389
13 1 0.63359 3.35487 0.741346 -1.03273 -0.937059 0.263833
14 1 3.45529 4.53012 2.48813 0.0577904 0.833269 0.809033
15 1 8.79114 1.99078 8.99238 0.260016 0.490608 0.0633335
16 1 1.21565 1.31425 5.63503 0.711342 -1.00392 -0.538666
17 1 0.434692 3.6177 9.04244 -0.639436 -1.66622 1.46837
18 1 7.73145 5.36897 1.58559 -0.682951 0.173765 1.09052
19 1 4.9067 4.277 8.52947 -0.0991456 0.0492642 -0.92847
20 1 7.08121 5.86926 6.82899 0.337715 0.870165 0.700085
21 1 8.49874 3.82565 2.87277 0.19383 -0.123492 -1.12046
22 1 3.7309 2.41189 6.06218 -1.22048 -0.773086 0.0548097
23 1 5.98291 2.79934 8.62101 -0.696123 0.0309238 -0.59508
24 1 3.02388 1.16661 6.70949 -0.955521 0.0747154 0.1616
25 1 7.42102 1.90733 7.51277 -0.123502 0.490536 0.624256
26 1 0.490077 4.59003 2.98824 -0.483118 -0.0761892 -0.929873
27 1 8.60026 7.4835 0.452944 0.339493 -1.38982 -0.382388
28 1 3.94515 4.0133 5.24778 -0.203344 -1.68161 0.390043
29 1 1.60797 2.21387 5.32509 -1.69757 0.395786 0.161087
30 1 1.85802 1.7277 4.36969 -0.100783 0.310091 1.1221
31 1 2.35615 4.55933 0.553569 0.270913 -0.796996 0.654733
32 1 4.55678 7.76031 6.24803 -0.333446 -0.605484 -1.09623
33 1 1.74536 1.03079 8.41822 -1.74117 -0.267571 -0.50318
34 1 5.13008 8.56117 2.95124 -0.0138558 -0.754256 0.748878
35 1 8.4755 2.14167 2.72117 -0.33408 1.61366 -0.0720487
36 1 1.69375 0.643792 1.2102 0.289511 2.30672 0.586506
37 1 5.5195 1.72588 0.717151 -1.20162 -0.230995 0.802739
38 1 0.782954 7.77867 3.98808 0.557722 -0.372413 0.735412
39 1 0.79016 0.384537 5.51992 0.486058 -0.719711 0.445238
40 1 0.483688 2.53478 8.83781 -0.677466 0.622149 -0.723904
41 1 8.93073 7.45433 6.81741 -0.747714 0.162562 0.0226515
42 1 2.32854 7.3127 4.90714 0.281242 0.844772 0.493035
43 1 1.63375 1.59092 0.701477 -0.0507442 1.4622 0.103653
44 1 4.31789 3.7212 4.2893 -0.481665 0.477736 0.831019
45 1 5.92352 2.09003 6.34744 -0.886419 0.000751413 0.537103
46 1 2.24905 4.70425 3.77251 0.339233 -0.320581 0.273243
47 1 1.96822 6.29248 7.05957 0.0564186 0.552256 -0.266242
48 1 5.71539 5.74546 4.46928 -0.422307 -0.0188777 0.0304648
49 1 4.0309 4.09789 7.11431 1.02543 -0.525921 0.258945
50 1 2.7417 0.531697 2.9499 -0.224523 0.0898327 -0.647388
51 1 2.22543 5.73632 3.6486 -0.644969 0.148219 0.274317
52 1 4.20093 1.52564 8.79459 -0.460347 -0.281888 0.39508
53 1 6.03603 2.63335 4.42903 0.285906 -1.11634 -0.370498
54 1 8.65784 6.5834 9.31981 0.182267 -0.618146 -0.436279
55 1 1.56308 3.28081 4.71556 1.10359 0.929043 -0.122219
56 1 2.08651 5.3247 7.06866 0.61718 0.397127 -0.596747
57 1 1.57801 8.62822 8.24652 1.0112 -0.412649 0.448108
58 1 8.39833 8.56847 0.0848037 0.696961 -0.154657 0.425107
59 1 8.95041 9.34072 3.77074 -0.503856 1.40314 1.38817
60 1 0.783632 6.57734 0.5114 1.40402 -0.261947 0.0459205
61 1 5.19804 4.28042 2.2821 0.445656 -0.0913755 0.373605
62 1 9.08034 0.511233 1.45162 -0.209629 -1.13175 0.441221
63 1 6.40399 7.80001 0.259459 0.521565 -1.01129 0.595004
64 1 7.61897 6.79968 0.285596 -0.64068 0.21923 0.873157
65 1 7.36612 4.85204 6.72407 0.185905 0.930883 -0.218984
66 1 3.9504 3.5324 8.07459 0.81692 0.221997 1.57275
67 1 3.41408 9.15585 2.7932 1.81086 1.15917 -0.413345
68 1 3.50265 6.41885 0.718394 -0.531887 -0.611274 0.491492
69 1 3.69394 4.83672 0.261602 0.0626335 0.735549 1.33444
70 1 0.522393 4.44671 3.9885 -0.053529 1.33936 0.681473
71 1 8.78809 4.84848 0.196848 -0.73866 -0.527877 0.0809755
72 1 5.31335 7.80205 7.00162 0.49242 -1.07752 0.00726897
73 1 2.53259 7.09946 8.8392 0.0184096 -1.13253 0.658044
74 1 7.93593 7.51891 6.06713 0.373729 0.0768135 -0.0159809
75 1 8.52439 0.125035 8.18501 -0.747696 0.217391 -0.261255
76 1 6.81741 2.6407 9.337 -0.142688 0.382319 -1.06835
77 1 3.40802 3.34365 4.56158 -0.363175 -0.295098 0.796433
78 1 1.59148 7.13243 2.26829 0.921696 0.182863 -0.641139
79 1 5.39447 0.445947 1.88251 0.75532 0.306306 -0.515125
80 1 8.92086 6.70001 4.64999 1.02101 0.263251 -0.0564887
81 1 3.2322 0.502265 3.9199 0.116381 0.955787 -1.34033
82 1 8.32776 1.84482 4.58176 -0.629447 -0.171818 -0.364482
83 1 2.66966 8.3989 5.15382 -0.556805 -1.16954 -0.215392
84 1 1.2116 6.771 7.54804 -0.158822 -0.786538 -0.374797
85 1 2.04195 2.54964 0.343331 -0.648439 0.0244903 -1.36583
86 1 5.3358 6.36441 1.81365 0.313582 -0.787599 -0.246171
87 1 6.88547 3.09769 4.91701 1.06481 -0.722509 -0.00342991
88 1 9.16829 8.16875 7.66186 -0.913163 -0.772468 0.496413
89 1 0.670193 2.62975 3.05251 0.619993 -0.113102 0.56757
90 1 4.97397 7.10965 4.88739 -0.465941 -0.436547 -0.392631
91 1 0.597041 6.95443 5.4656 -0.443018 0.477125 -0.934349
92 1 8.05874 7.43373 8.94229 0.326931 -0.429854 1.00821
93 1 3.12548 8.16201 2.50799 -0.791832 -0.290374 -0.00571534
94 1 9.3677 7.81613 2.22753 0.422426 -1.37951 -0.252781
95 1 4.09138 5.45129 3.6807 -0.101813 -0.287457 -0.809144
96 1 3.85825 8.85597 8.89282 -0.917472 0.160343 1.21807
97 1 3.28232 3.34158 1.11078 1.78446 0.553089 -0.784015
98 1 6.18712 8.53768 2.90927 -0.214991 -0.350135 -0.461378
99 1 2.3708 9.32863 5.03564 0.9952 0.605385 -1.47428
100 1 4.92276 8.91971 5.48307 -0.0771334 0.34702 -0.21806
101 1 4.49015 5.0567 2.8209 -0.547041 -0.299461 0.280197
102 1 6.60893 2.00604 0.995161 0.367154 2.00021 0.268513
103 1 9.35178 8.92642 1.75311 -0.624173 0.370202 0.317057
104 1 2.37288 8.7098 7.51019 -0.897031 1.22451 0.959945
105 1 7.23924 8.22218 6.42452 -0.164024 -0.164798 -0.418869
106 1 5.94129 3.50948 5.13468 -1.41757 -0.0387761 0.512495
107 1 7.72602 7.38235 1.28427 -0.856316 0.116688 0.209256
108 1 7.21155 0.726524 5.73288 -0.861638 -0.365865 0.300938
109 1 7.09224 3.99684 2.40507 0.0741343 -0.393967 0.707058
110 1 8.4555 4.86969 6.49253 -0.203989 -0.78674 0.784246
111 1 2.71103 7.7655 6.86129 -1.07725 0.0426884 0.254281
112 1 6.11361 2.07766 2.97909 0.521286 0.659284 0.382427
113 1 1.68392 4.53083 9.11568 -0.0424863 -0.621524 -2.02367
114 1 3.07721 5.38764 4.28576 0.593302 -0.280917 0.120993
115 1 4.99712 0.518176 5.00247 -0.595238 0.0931682 -1.23319
116 1 5.48542 6.20209 7.43593 -0.481975 0.0599191 0.382902
117 1 7.05336 6.2584 8.80663 0.318632 0.0725428 -0.243325
118 1 7.9024 1.6099 8.44386 -0.158474 -1.3093 0.883625
119 1 8.96634 7.04354 1.59309 0.774458 -0.0632688 0.429675
120 1 4.94376 7.54705 3.30764 1.44133 -0.0505759 0.0293355
121 1 5.65094 7.65575 5.99541 -0.240346 -0.0292487 1.07733
122 1 8.71381 0.953984 8.77321 -0.811868 0.0512219 0.525699
123 1 2.24261 1.11687 5.16378 -0.439326 0.32197 -0.664477
124 1 3.86554 7.45654 1.96781 -0.282666 -0.731687 -0.332085
125 1 6.77822 4.0944 3.33431 0.0643802 0.0709774 0.299508
126 1 0.898175 5.37023 8.69568 -0.414654 0.358297 -0.128132
127 1 1.66675 8.13821 4.5256 0.266545 -0.0262974 -0.299658
128 1 4.36746 0.278671 0.314957 0.356065 -0.149956 0.211053
129 1 3.36218 4.47162 1.19487 -0.00545948 -0.309937 0.437352
130 1 3.45035 6.47224 8.19494 -0.504902 1.2779 0.407341
131 1 0.335444 1.19937 5.00706 -0.0466118 1.00626 -0.220965
132 1 6.83487 6.05472 4.30823 0.224263 0.360536 -0.73678
133 1 7.22676 5.75957 0.341748 0.102704 0.236098 -0.325636
134 1 4.06244 1.29579 6.26421 0.09967 0.773112 -0.416648
135 1 6.10698 1.08081 5.64914 0.296877 -0.128493 0.591276
136 1 1.22044 0.247478 8.79765 -0.185148 0.744304 -0.747803
137 1 2.98777 5.90808 7.38358 0.545439 -0.191913 0.542587
138 1 6.16377 5.32225 7.07172 -0.851187 0.0906194 0.573636
139 1 0.467785 8.60556 4.72578 0.790035 0.0045573 1.10076
140 1 1.74766 4.02668 5.43628 0.507122 -1.51421 0.0049733
141 1 3.27893 9.08255 5.59342 -0.44895 0.336651 1.1646
142 1 1.0769 3.19542 8.19792 0.593307 0.351174 0.661134
143 1 3.58912 8.23308 7.03658 0.0673225 0.12172 0.603314
144 1 0.934206 4.47146 5.84821 0.484837 -1.02503 0.0383897
145 1 6.49111 6.12085 7.7697 0.404465 0.136508 -0.349944
146 1 7.96897 8.74717 2.89528 -0.0463567 0.219395 0.440597
147 1 1.27416 8.25623 6.46013 0.839854 0.274211 0.291272
148 1 5.44873 3.55175 7.85464 0.363555 -1.20767 0.841956
149 1 8.8984 6.53519 2.65612 -0.543099 0.216772 0.493664
150 1 4.82133 0.513825 7.71223 0.0727907 0.499024 0.144096
151 1 1.78772 7.87255 5.61714 1.28104 1.02822 -0.839356
152 1 4.50678 6.90117 0.307633 -0.602805 -0.188003 0.0790408
153 1 0.437676 6.40086 8.95226 -1.75177 0.204495 -0.252935
154 1 6.40805 4.02498 8.50929 -0.764431 -0.0473962 -0.922587
155 1 6.59485 7.7469 3.53048 -0.10341 -0.996468 -0.775209
156 1 5.27092 0.319377 2.95319 0.862479 -0.0469654 1.19473
157 1 7.77983 1.3522 6.64217 0.315806 0.622123 0.550383
158 1 2.77221 0.955486 7.75282 -0.593985 -0.491908 1.36103
159 1 0.698376 8.77993 3.34858 -1.16363 -0.533671 -0.300059
160 1 7.11904 9.01597 5.81729 -0.194341 -0.592408 0.746889
161 1 0.875025 4.31834 1.9206 0.796062 -0.355176 -1.13603
162 1 9.00808 0.9613 0.408709 -1.35027 1.34636 0.060662
163 1 8.75894 3.25244 7.5588 -1.37367 -0.342782 0.033104
164 1 5.63203 7.60903 4.16051 -1.4722 1.47348 -0.709157
165 1 6.98392 8.11489 1.28008 -0.505531 -0.490924 0.0596595
166 1 9.19708 4.62276 4.73143 0.940894 0.129044 0.309752
167 1 5.21349 7.90247 2.06287 -0.491432 -0.179699 0.113794
168 1 7.57481 5.41341 8.68122 0.216786 0.128987 0.568424
169 1 4.60565 5.71731 5.80029 -0.130808 -0.861202 0.259967
170 1 3.49404 0.395656 8.41658 -0.214972 1.39174 -0.02371
171 1 0.413236 3.40608 1.7627 -1.35931 0.280939 0.158114
172 1 4.05483 2.01622 2.08943 0.658352 -0.86112 0.0324602
173 1 6.79615 7.11815 0.906796 0.570289 0.914836 -1.46368
174 1 2.36165 3.54178 4.10621 0.387482 0.401419 -1.27084
175 1 4.39893 8.19654 1.37552 -0.639917 1.13609 0.303997
176 1 0.371365 1.57125 6.08669 0.141693 1.09195 -1.57929
177 1 1.7623 9.22345 4.25917 0.755683 0.292066 -0.724361
178 1 8.05362 7.85702 7.06759 0.830113 0.0678954 0.407808
179 1 6.39784 6.59425 1.99906 0.335773 0.216842 -0.667256
180 1 1.95516 8.87078 6.06452 0.608756 -0.199219 1.5733
181 1 8.40993 6.21308 1.57538 -0.146203 0.313837 0.858577
182 1 5.01059 2.58585 1.19233 0.0285374 1.13069 -0.0806337
183 1 3.35632 7.79448 8.63041 0.31858 0.192366 0.661732
184 1 2.46783 1.91555 8.16799 -0.584755 0.946501 -0.162636
185 1 0.286079 5.1346 7.78813 -1.38014 -0.632026 -0.666395
186 1 9.01109 7.17683 5.5954 0.0880817 0.324078 0.241574
187 1 3.0866 2.15068 0.664283 0.847753 0.551987 -0.402345
188 1 1.85574 5.61116 1.07508 0.981233 0.676743 -1.05138
189 1 1.03254 2.33941 4.46364 -0.295068 -0.121147 -0.0276853
190 1 8.18344 4.43758 4.34151 0.40833 -0.608005 0.234496
191 1 6.52209 5.03856 8.36866 0.242097 -1.39298 -0.370112
192 1 9.02678 6.38089 7.24923 0.442596 0.642557 -0.370341
193 1 3.44296 7.24835 5.22982 -0.0922966 -0.225452 -0.773593
194 1 3.97569 2.6066 8.79863 -0.184023 -0.288777 0.673168
195 1 8.98896 8.87351 2.83186 0.0580643 -1.25792 -0.0359652
196 1 2.24963 0.735787 4.16916 -0.622224 0.63811 0.949304
197 1 1.50949 4.26313 4.37063 0.00766696 0.0681878 1.15335
198 1 2.98849 4.00223 8.40489 -0.383826 -0.155675 0.695187
199 1 2.71664 5.66683 6.40757 1.50448 -0.764951 -1.08503
200 1 4.17484 0.282885 5.59217 0.712097 -1.14858 -0.531835
201 1 8.05259 6.46285 8.47954 0.290221 1.12093 0.370861
202 1 9.13138 2.5733 3.58552 -0.75651 -0.983615 0.793126
203 1 3.79437 6.09168 6.65524 0.16238 -0.403112 0.385214
204 1 4.77222 3.30319 7.04758 0.748684 1.00551 -0.0520407
205 1 7.85094 6.91026 7.12603 -0.76753 -0.406332 0.585908
206 1 0.147242 1.63117 3.27066 -0.688134 -0.781703 -0.482667
207 1 7.33393 2.37728 6.59094 -0.273621 0.268753 -0.151541
208 1 7.16513 5.96641 5.30554 -1.08571 0.310932 0.135235
209 1 5.13253 1.10921 9.40918 -0.114133 0.320762 0.454646
210 1 1.59179 4.82997 7.93235 -0.0405851 0.201826 -0.0489025
211 1 3.26356 2.44688 2.93832 -0.176843 0.483655 -0.304316
212 1 5.63789 6.25207 2.81369 -0.423826 -0.846402 0.745427
213 1 4.11779 1.26913 5.23727 1.48529 -0.753517 0.973845
214 1 7.25643 3.35786 8.82862 0.074495 -0.666531 -1.21511
215 1 1.35415 5.34827 4.15652 1.05528 1.13985 -0.772587
216 1 5.28033 4.22433 7.01766 -0.820939 -0.481249 0.335405
217 1 7.4186 8.9558 0.0228657 0.737482 1.40919 0.301169
218 1 4.26503 3.89833 0.918725 0.174743 -1.90302 -0.305011
219 1 4.39022 5.90406 0.504885 -0.321433 0.241323 -1.41364
220 1 8.69644 3.61272 1.90276 -0.104514 0.594005 -0.658823
221 1 0.0488582 9.17842 7.45988 -0.574045 0.91939 -1.09521
222 1 5.03949 3.56621 1.51893 -0.242868 -0.0913569 1.47928
223 1 2.51933 6.55612 0.844899 0.322336 0.34523 -0.240698
224 1 6.40495 5.55044 2.50421 -0.217626 -0.29021 -1.60525
225 1 2.9744 4.29013 5.64642 -0.379353 -0.740994 -0.570468
226 1 0.345677 7.42252 0.78676 -1.20531 0.771323 -0.392369
227 1 4.45525 9.32888 2.40394 0.550022 0.148501 0.392254
228 1 6.52081 3.70011 0.0942956 -0.742335 -0.717912 -0.557652
229 1 1.28084 1.5031 6.72445 0.371853 -0.591596 -0.758678
230 1 3.57456 0.531425 2.12928 -0.50594 0.241216 0.653789
231 1 9.0275 5.6093 6.18359 -0.307772 0.372952 0.67531
232 1 5.31139 6.64465 8.38202 0.0290944 -0.976091 0.0824927
233 1 8.45248 8.89308 7.36536 0.351459 -0.242134 0.231988
234 1 0.709572 1.041 0.727672 1.12507 0.630697 0.635254
235 1 6.48505 5.29816 5.93859 0.213615 0.575916 -0.588143
236 1 3.38642 9.18023 7.52206 1.06906 0.685642 -0.304419
237 1 7.52038 2.27871 0.674971 0.51197 -1.15232 1.39891
238 1 6.0524 9.19623 8.39896 -0.410373 -0.766155 0.420142
239 1 1.66999 5.68027 6.00698 -0.754637 -0.284799 0.407056
240 1 4.531 0.376101 6.53043 -0.595543 0.497629 -1.51218
241 1 4.47826 6.09886 2.77266 -0.13029 -0.242311 -0.374434
242 1 7.90461 2.99121 4.68822 -0.358418 -0.148305 -1.34504
243 1 3.05851 7.93941 1.40937 -1.48992 1.06782 -0.656416
244 1 6.23014 0.910411 0.559577 1.51032 -0.267013 -0.951512
245 1 6.88975 2.83186 1.9861 0.115085 -0.822398 1.01573
246 1 1.07324 6.11006 1.62312 0.337949 -0.839734 0.837773
247 1 7.63188 3.21714 3.07138 0.649738 -0.590948 -0.201843
248 1 8.20814 7.4117 4.12838 0.0419882 -1.09044 -0.272605
249 1 0.208972 4.73087 6.67483 0.260254 0.545618 0.274305
250 1 2.98121 7.36993 3.2256 -0.449967 1.01199 -0.296705
251 1 9.30923 4.46536 5.73349 1.22826 -0.458795 0.439011
252 1 4.2908 3.75686 2.42418 0.0561317 0.991463 0.493272
253 1 0.574769 5.41235 5.88394 0.400371 0.0932966 -0.927797
254 1 8.61276 1.5753 3.5982 0.480911 0.169326 0.59092
255 1 6.84746 7.83236 7.32541 -0.541056 -0.0432956 0.960728
256 1 0.00443894 4.69366 8.79611 0.182622 0.348895 -0.0568197
257 1 2.91393 8.57596 0.0622041 0.876415 -0.839353 1.22492
258 1 3.87864 1.39394 4.19808 1.27709 0.724066 -0.882619
259 1 4.0296 5.6765 8.07522 0.340324 -0.456626 -1.36022
260 1 5.2297 1.32747 6.25538 0.645267 -0.441341 -0.121968
261 1 6.88902 4.31121 0.908043 -0.331413 0.366139 0.00770883
262 1 4.00865 1.72032 3.16329 -0.552302 -0.808471 -0.256895
263 1 0.228355 3.1503 4.3788 -0.0701306 -0.361564 -0.527818
264 1 7.06241 5.01288 3.83664 -0.621838 0.266515 0.00290565
265 1 6.52952 5.14474 4.81926 -0.707601 1.17949 -0.620553
266 1 7.99341 7.02188 5.11645 -1.02738 0.480358 -0.478372
267 1 3.3 1.44704 1.40977 -1.11969 0.648517 0.77338
268 1 4.79734 3.18809 8.62752 -0.417398 0.936622 -0.0969695
269 1 2.8802 5.43768 0.62883 1.41189 0.781432 -0.125808
270 1 7.42455 8.76961 7.30791 -1.33149 -0.509717 0.75032
271 1 9.31665 8.14142 0.148899 -0.326613 -1.01653 0.246278
272 1 6.96801 3.78374 5.74215 0.51063 0.375495 0.777918
273 1 7.38177 3.58813 3.95029 0.575761 0.726066 -0.242012
274 1 6.07066 7.25383 7.64574 1.00502 -0.444713 -0.155594
275 1 4.35496 7.45116 7.38822 -0.133008 0.91701 -0.49295
276 1 8.10109 5.69693 2.54798 -0.224155 -0.287151 0.491574
277 1 5.62967 2.81526 3.4962 -0.498071 0.557815 -0.485598
278 1 2.1938 3.51143 6.24216 -0.42491 -0.6173 0.222544
279 1 1.54919 8.99234 1.30543 0.592858 0.199928 -0.291105
280 1 4.17956 3.03409 1.6774 0.112557 1.432 -0.524617
281 1 4.21149 7.97605 5.20204 0.414304 0.787551 -0.421811
282 1 7.36408 0.486229 3.71534 -0.699518 0.752903 0.25745
283 1 8.83338 8.77806 4.62102 -0.619944 -1.18987 0.487351
284 1 6.64426 7.40695 6.03928 -0.0937838 -0.416213 0.240073
285 1 4.95761 4.84215 3.89844 -0.461149 0.198321 -0.382999
286 1 0.0964517 0.487441 8.22942 -0.620816 -1.054 0.905278
287 1 4.95636 8.76134 8.39745 -0.708663 -0.924137 -1.17157
288 1 1.13582 0.063126 0.457867 -0.139088 1.03639 1.36308
289 1 6.65726 2.1203 5.38726 -1.37741 -0.08725 -0.0125633
290 1 2.49792 0.21155 6.98845 0.345635 -0.657025 -0.198197
291 1 3.45173 7.99797 5.96925 1.55625 -0.192662 0.365934
292 1 2.10201 4.67734 6.10949 1.16707 -0.0612631 -1.21006
293 1 2.42239 7.82752 3.97366 0.294035 -1.58452 0.097183
294 1 9.29064 3.96367 8.0679 0.0466402 -0.836059 0.0578643
295 1 7.84625 5.58807 6.04268 0.00774141 0.804606 -0.572727
296 1 5.83759 6.70295 1.03935 -1.27857 -0.174572 -0.682239
297 1 2.23035 3.68351 9.19895 0.416875 0.10896 -0.357557
298 1 3.85146 5.70149 5.06478 -0.861264 0.538628 0.581904
299 1 4.10725 6.65924 4.76008 -1.04805 1.03595 -0.0329827
300 1 6.17675 4.48727 2.56065 0.0904224 1.07598 -0.201034
301 1 8.99593 1.29354 7.76279 -0.419037 -0.472605 1.37164
302 1 0.00273331 0.872497 3.98313 -0.542643 -0.166822 0.554815
303 1 0.62476 7.94035 8.39649 0.0524155 0.476872 0.23094
304 1 5.88218 2.38495 1.9099 0.378865 -0.0615197 -0.177241
305 1 4.06613 2.18889 1.05539 -1.12295 1.81269 0.294755
306 1 0.618756 9.39965 2.55083 -0.23709 0.177548 -0.39038
307 1 5.55243 8.85405 1.72482 0.428154 0.866226 -0.407922
308 1 5.45024 0.274382 5.93307 -1.1957 -0.537271 -0.111847
309 1 1.20873 4.92946 6.79695 0.871938 -0.321695 -0.556791
310 1 2.73683 2.65315 5.78355 -0.85527 -0.404943 0.300798
311 1 8.1114 8.34578 1.06759 0.919933 0.711077 -0.811894
312 1 2.12956 6.29697 1.91572 -0.610872 -0.68172 -0.00269495
313 1 6.61514 8.87586 1.98687 -0.245533 0.339673 0.186524
314 1 6.66478 4.68928 0.018219 0.31039 -0.617367 -0.462802
315 1 3.68076 5.11745 7.25583 -1.36705 0.428961 -0.412488
316 1 1.84361 3.10946 3.18479 1.1224 0.961695 0.654945
317 1 0.251293 2.05116 7.18128 -1.49897 0.476908 1.16673
318 1 8.67586 5.64098 8.93835 0.844143 -0.794796 -0.0236316
319 1 3.5066 0.13917 6.5017 -0.573667 -0.487591 -0.274056
320 1 6.17224 8.56355 3.974 -0.151533 -0.684749 -0.547234
321 1 2.47993 4.48342 4.78879 0.760755 0.570463 -0.272906
322 1 1.51959 7.39935 8.43812 -0.230693 -0.0897952 -0.904629
323 1 6.37897 0.182176 3.27623 0.224641 -0.0992531 0.785917
324 1 4.95044 4.37182 0.165131 -0.328241 -0.063134 -0.453791
325 1 5.06617 4.5687 1.19461 -1.29778 0.693212 0.657871
326 1 1.35893 8.93703 5.16106 -0.339855 0.0977315 -0.0949637
327 1 4.51841 9.19876 1.35957 1.02645 -0.0621214 0.667926
328 1 3.53293 1.64454 8.02931 0.450674 0.401023 0.264719
329 1 8.40563 3.08536 1.0743 0.76268 1.69728 -0.420999
330 1 3.81675 8.85217 0.651517 -1.04689 0.477711 0.468231
331 1 4.67568 2.0994 6.78386 -0.57778 -0.725649 -0.224017
332 1 2.16685 1.67802 9.20373 0.255201 0.734038 -0.295938
333 1 5.52188 5.09766 2.93958 -0.707131 0.311149 -0.450723
334 1 3.34246 6.37788 5.78519 0.497906 -0.100866 0.269856
335 1 6.78995 3.12479 0.940381 -0.523692 -0.24366 0.475432
336 1 0.61091 3.88545 4.94272 -0.145235 1.34115 -0.501568
337 1 3.33575 7.46006 7.61727 0.28775 -1.18581 -1.24733
338 1 9.09178 2.29675 8.05731 -0.0381911 0.0680885 0.908363
339 1 0.743753 4.92538 4.91455 0.232588 -1.26781 -0.823145
340 1 8.50351 8.45334 2.00254 -0.844581 -0.267383 -0.263661
341 1 7.6421 0.594676 8.74181 -0.0373651 1.21884 0.157168
342 1 4.72339 5.48365 1.5168 0.621408 -1.07094 -0.318024
343 1 2.70207 3.92686 3.0331 0.984818 0.447209 -0.172661
344 1 3.4773 8.22554 3.52089 0.568324 -0.88786 0.191297
345 1 5.32651 6.6626 5.78125 -0.0550532 0.265768 0.284894
346 1 7.63873 3.52347 0.515055 -0.077502 -0.814104 -0.408166
347 1 3.1918 3.89588 0.176945 -1.08743 0.520894 0.0357122
348 1 7.46902 5.9327 7.83799 -0.280706 0.0651557 0.191304
349 1 6.48411 3.28359 7.7988 -0.112593 -0.474131 0.252487
350 1 4.6918 5.81216 4.51404 0.764369 0.670381 -0.0364491
351 1 8.08251 4.49454 2.0951 0.143221 0.0412001 -0.723119
352 1 2.43086 7.98436 8.23684 -0.156275 -1.03712 -0.35469
353 1 1.13657 1.73234 2.59088 0.188 0.413699 -1.23656
354 1 1.04831 0.259084 7.74139 -0.902868 -0.0293511 0.0871674
355 1 9.16228 6.4272 0.813535 0.964717 0.757272 -0.82797
356 1 5.71097 4.66555 7.86374 -0.381916 0.699874 -0.15269
357 1 8.21534 0.3792 0.212518 -0.179445 0.0233091 -0.435406
358 1 7.23059 6.99452 3.92395 -0.233739 -0.729137 -0.39039
359 1 4.65294 4.80033 7.76073 0.441799 0.222585 -0.0718415
360 1 2.58437 3.45384 5.11896 -0.261465 -1.38413 0.411862
361 1 3.74023 3.41219 3.40609 -0.163712 0.544656 1.30442
362 1 5.35991 3.11417 2.39428 0.215511 -0.687471 0.653726
363 1 5.69234 5.20642 1.897 -0.311416 0.116919 -0.391472
364 1 2.11155 2.80559 7.70409 0.0231114 -1.41176 -0.542649
365 1 0.941194 2.45034 0.410813 0.52804 -0.572782 1.50563
366 1 6.20736 7.65974 5.06054 0.026032 -1.29381 0.653482
367 1 0.792983 5.11632 1.2048 0.845289 -0.429544 0.844825
368 1 2.65593 9.09074 3.66355 -0.249883 0.267466 0.726612
369 1 7.7635 4.92871 7.71861 -0.383774 1.59976 0.329883
370 1 5.38705 0.118156 -0.0313328 -0.742584 -0.409074 -0.42522
371 1 1.74348 5.05899 5.14574 -1.05788 -0.364499 1.33929
372 1 2.74831 4.79727 7.6487 -0.229037 -0.851347 -0.25796
373 1 5.96013 8.59118 0.781005 1.09446 -1.07897 -0.317043
374 1 7.29885 4.74226 5.68097 0.253157 -0.414758 -0.904306
375 1 4.24935 6.94801 5.76048 0.1487 -1.50273 0.388495
376 1 2.02133 0.0807721 8.02063 -0.407165 -0.402105 -0.758009
377 1 1.90772 7.19763 0.314332 1.0738 -0.342756 0.907394
378 1 5.99224 1.1751 1.51841 -1.24719 -0.491809 -0.570612
379 1 7.3768 6.65703 6.10355 0.439091 -0.0930752 0.0399152
380 1 6.01842 4.73577 3.93452 -0.569373 0.600162 0.906138
381 1 2.45328 9.3409 0.697346 -0.660868 -0.822771 0.285672
382 1 7.89711 6.72303 3.18126 0.889028 -0.308087 0.0671137
383 1 0.656961 0.0443311 6.64314 0.904612 -0.692308 0.332255
384 1 4.24792 8.28488 2.60589 -1.54883 0.063664 0.420863
385 1 4.73062 7.8506 9.02222 -0.531346 0.549778 1.9783
386 1 0.926864 1.4 4.00105 0.571881 1.45954 -0.149035
387 1 8.87431 1.63801 5.43441 0.130747 0.159853 -0.670407
388 1 7.99712 1.41047 0.147234 0.5378 1.26727 -0.701603
389 1 6.28609 3.6005 4.06241 -0.297334 0.111653 0.699751
390 1 3.17619 6.20589 3.6028 1.27636 -0.311106 -0.586114
391 1 5.20841 0.74514 0.928932 1.01867 1.42639 0.557034
392 1 7.56696 1.48017 3.84436 0.272318 1.28701 0.0321804
393 1 0.378098 6.16942 7.87843 0.37774 0.0744154 0.378572
394 1 8.36838 4.13514 1.02142 -0.190938 -0.406066 0.752996
395 1 9.00455 0.623377 3.07961 -0.488161 0.0531497 0.323032
396 1 3.47055 2.35865 3.97723 0.282767 -0.0553469 -0.627852
397 1 5.60352 4.94419 8.90744 -0.581844 1.09662 -0.422272
398 1 6.20172 5.69654 3.4922 -1.42775 -1.12476 0.473272
399 1 8.002 2.85821 2.1964 -0.26008 -0.17383 -0.267597
400 1 0.981567 7.7974 2.75104 0.873577 -0.0584546 -0.106099
401 1 2.28443 1.78171 7.13144 0.538836 -1.16193 -0.878902
402 1 9.07422 8.12391 1.20774 -0.887512 0.259326 0.475444
403 1 1.79506 4.46652 1.4694 1.13751 -0.639888 0.183006
404 1 6.29704 6.29641 6.01283 -0.459696 -0.697352 -0.654736
405 1 5.181 2.82107 6.26605 -0.0679881 -1.02271 0.296244
406 1 6.44501 9.23236 0.143583 -0.885475 0.665009 -0.555682
407 1 5.99829 1.82477 8.11441 0.198453 0.2108 -1.08502
408 1 1.40881 3.50868 1.48143 -0.319199 -0.350497 0.0212858
409 1 4.94674 3.83131 5.11377 -0.627686 -1.40298 1.69177
410 1 0.546921 2.28516 5.43548 0.746314 1.11382 -0.624337
411 1 6.89123 1.11531 3.12405 0.788272 0.109061 0.364482
412 1 8.31524 0.70336 4.03394 -0.167257 -1.69081 0.13785
413 1 0.867031 8.11809 1.68381 0.243145 0.381873 -1.01151
414 1 6.93292 1.32788 8.42249 1.59325 -0.626685 -0.389357
415 1 9.33377 1.52216 1.24837 -0.567215 1.34621 -0.583385
416 1 7.61983 2.01382 1.65491 -1.35496 0.424233 -0.113276
417 1 8.3895 6.1714 5.41276 0.0952866 0.363654 0.798948
418 1 3.14283 0.63234 4.94255 0.699078 0.210921 -0.999576
419 1 7.50684 1.06534 2.12673 0.211741 -1.67865 0.86327
420 1 8.99224 2.58135 5.04446 -1.21623 0.624883 -0.211688
421 1 5.91078 6.69426 4.78624 0.202976 -0.726772 0.109561
422 1 7.70489 1.67142 5.54501 0.147598 -1.05061 0.0712712
423 1 1.48538 2.09979 3.46633 0.6871 -0.288922 -0.477837
424 1 5.17588 8.5356 4.0668 -0.620199 -0.664754 1.65993
425 1 2.45966 2.50826 4.77487 -0.0607562 -2.00673 0.285878
426 1 5.57001 0.491084 6.98986 0.894707 -1.2213 1.14842
427 1 8.65972 4.61779 7.43496 -0.36611 0.925744 -0.721006
428 1 2.891 8.76295 6.60517 0.399466 0.505997 -0.832806
429 1 5.85401 7.36995 2.79249 -0.203119 0.263631 1.29811
430 1 4.15171 0.3425 4.41869 -0.767914 0.479711 1.32199
431 1 8.46728 2.14012 7.24555 -1.15803 -1.6718 -0.51386
432 1 5.17704 8.66052 6.44991 0.464947 -0.27565 -0.610609
433 1 2.56975 7.23242 5.90906 1.20151 0.294719 1.32321
434 1 7.67278 8.98744 1.92873 -0.0840324 0.443346 0.354209
435 1 2.16716 2.19418 2.67554 -0.28147 0.933058 0.305569
436 1 8.97769 9.19661 9.03993 0.126732 1.51816 1.36402
437 1 7.53597 7.86092 0.268658 -0.765035 -0.835187 -0.187027
438 1 8.42475 8.35713 8.44467 -0.227448 0.230846 0.187801
439 1 3.99863 7.41016 3.10278 -0.0905617 -0.296426 0.99833
440 1 6.88371 4.83872 1.8681 0.676378 -0.562008 0.363836
441 1 5.39741 1.78596 4.17668 1.0599 -0.931338 0.180355
442 1 5.59955 2.43359 5.38885 -0.459728 0.967812 -0.336563
443 1 4.17593 6.405 1.6178 1.00526 0.319556 -1.89843
444 1 0.158018 6.60484 6.31835 -0.320845 -0.413908 1.08178
445 1 4.22776 2.46934 7.75632 0.105936 0.219168 -0.244968
446 1 8.90795 3.86687 6.48623 1.58005 0.382594 -0.236784
447 1 2.29494 4.869 2.7663 0.305108 -1.40026 0.49186
448 1 5.70852 6.8795 6.74987 -0.0079511 0.769066 -0.177159
449 1 0.969855 8.48015 9.27331 -0.326101 0.376479 -0.0174243
450 1 3.7203 4.823 8.56771 1.09353 -1.059 -0.329559
451 1 5.90101 8.23438 7.9824 0.360866 -0.543651 -0.803247
452 1 2.8584 6.66684 6.72269 -0.539106 -0.106775 -0.146678
453 1 4.29181 7.6444 4.17754 1.3218 -0.209317 0.791852
454 1 5.27917 8.05532 5.11157 1.24797 0.63538 -0.658024
455 1 8.49347 6.60453 6.34992 0.390755 -0.576396 0.516332
456 1 7.59982 5.17693 4.74587 -0.499169 0.227198 -0.290448
457 1 4.27411 0.946536 1.3555 0.946248 0.614841 -0.293959
458 1 2.17142 6.6672 2.98758 0.427529 0.891758 0.923718
459 1 9.08536 5.38045 1.22848 -0.343622 1.15954 -0.951554
460 1 5.86844 3.19397 6.96625 0.066772 -0.230337 -0.339569
461 1 9.07295 4.62225 2.31262 -0.880867 -0.280792 1.0108
462 1 2.39197 9.02323 2.60088 0.458957 -1.96155 0.339306
463 1 3.84781 1.193 0.458475 0.550067 1.04698 0.816152
464 1 0.414678 3.24356 7.44954 -0.248714 -1.90155 0.688722
465 1 0.800913 8.51312 7.47671 -0.401435 0.0603902 -0.106089
466 1 6.46244 0.434652 2.19764 -0.810018 0.934184 0.591322
467 1 4.69157 2.14229 0.212416 0.277494 0.384623 -0.359611
468 1 6.85162 1.2632 4.83763 0.178616 -0.651997 0.342584
469 1 8.55033 3.49835 3.92958 -0.920303 0.362182 -0.619042
470 1 1.47429 3.45016 7.0574 -0.088009 0.452172 -0.95813
471 1 4.38875 9.003 7.22911 0.572893 0.0157581 1.35992
472 1 6.41244 4.34367 6.57956 0.903341 0.777102 -0.543823
473 1 7.40694 2.99324 7.56735 -0.313269 -0.700891 0.564612
474 1 2.77634 7.20067 2.01395 0.258911 0.959525 -2.04681
475 1 3.16538 2.80916 7.87641 0.253666 0.156462 -0.354712
476 1 0.327147 0.479004 9.27871 0.185824 -0.623558 -0.228024
477 1 1.54068 6.46253 9.11297 0.179573 -1.02082 2.0492
478 1 9.17572 0.321676 4.84806 0.20983 0.175145 0.809673
479 1 1.46725 2.46728 1.31209 -0.776233 0.176691 -0.660553
480 1 7.05298 0.358855 7.94661 0.83464 0.436978 1.08891
481 1 1.9858 7.98022 1.69199 -0.303352 -0.0462128 -0.208213
482 1 3.41125 7.09008 4.09471 0.430989 -0.933636 0.327449
483 1 5.29129 5.34317 0.416148 -0.645255 -0.966182 0.584373
484 1 6.9041 2.39701 8.27087 1.64577 0.163202 -0.179064
485 1 6.22809 5.70941 0.3346 0.718311 1.55461 0.409962
486 1 0.0670435 3.6008 3.42987 -0.387153 0.71966 0.301563
487 1 0.194175 5.67827 4.45348 -0.218346 -0.13225 -0.150994
488 1 7.88876 6.27891 4.30931 0.531401 1.04624 0.976268
489 1 0.544607 8.74922 0.938545 1.06455 -0.686031 0.480047
490 1 7.16528 6.01676 3.29281 0.0614042 0.00330962 -0.809429
491 1 8.58013 7.55236 2.80609 -0.906889 0.793847 0.652935
492 1 1.95811 8.04477 9.19031 -0.360248 0.291704 -0.920653
493 1 7.04792 7.35725 8.94841 0.0673688 -1.57182 1.33673
494 1 6.5198 3.18565 2.89001 0.303261 -0.739336 -1.68179
495 1 3.17883 2.47212 1.67529 -0.309105 -0.141026 -0.972358
496 1 4.57774 2.42093 3.73655 0.419781 0.479857 1.93152
497 1 1.30557 7.98578 0.729652 0.377964 -0.778212 0.35918
498 1 6.92906 1.62706 0.0307613 0.220728 0.118285 0.241348
499 1 5.07496 2.88107 4.58267 0.979028 -0.261762 -0.385989
500 1 6.60989 5.78351 1.38652 -0.597597 -0.41083 1.03272
501 1 5.36281 5.81178 6.45277 -0.569927 1.56484 0.393263
502 1 1.33092 2.82606 2.30794 0.186766 -0.749163 -0.0107467
503 1 3.37587 8.03074 4.51367 1.44693 -0.501186 0.503659
504 1 7.01592 7.04313 2.81476 -0.224313 0.123656 0.234204
505 1 8.16927 3.74051 8.26574 -0.310459 -0.293856 0.935193
506 1 2.73243 5.35995 5.3688 0.490474 0.042297 -0.371444
507 1 7.09347 6.89047 7.93525 0.907563 -0.0478524 0.685231
508 1 4.17895 6.539 3.66903 -0.574979 0.684055 0.149345
509 1 1.13297 1.33368 9.20249 -0.215006 -0.203078 -0.669747
510 1 4.77318 1.16747 3.53183 -0.451462 0.580121 0.194603
511 1 5.22251 1.47313 5.18436 -0.148472 0.640334 1.21825
512 1 7.28826 5.02039 2.83441 0.230836 -0.0451027 -0.925663
513 1 1.73147 8.45459 3.50188 -0.405281 -0.17813 -0.759407
514 1 0.470525 5.78277 3.43275 0.311004 -1.78501 0.236777