ITEM: TIMESTEP
62990000
ITEM: NUMBER OF ATOMS
1000
ITEM: BOX BOUNDS pp pp pp
0.0000000000000000e+00 9.4000000000000004e+00
0.0000000000000000e+00 9.4000000000000004e+00
0.0000000000000000e+00 9.4000000000000004e+00
ITEM: ATOMS id type x y z vx vy vz
1 1 6.71808 0.119534 2.71232 0.811144 -0.182873 0.016123
2 1 2.56641 5.83827 0.130423 0.504631 -1.40632 0.25546
3 1 3.48408 1.74271 5.08045 0.205238 0.475794 0.0995178
4 1 1.58723 4.611 2.08622 0.931379 -0.260463 -0.013504
5 1 0.515686 0.0746117 4.06418 0.852632 0.230151 0.149535
6 1 5.92451 0.116713 5.75922 0.294273 0.334981 0.874722
7 1 3.45261 6.60189 4.52225 -0.423152 0.450763 0.0460715
8 1 2.90473 1.44971 7.81382 -0.785515 -0.150371 0.328176
9 1 1.38941 6.36517 3.73485 0.407232 -0.194489 0.563192
10 1 2.25252 3.76767 0.68036 0.1008 -0.765489 -0.511399
11 1 5.99508 1.08717 6.03248 -0.107262 0.883501 -0.759893
12 1 6.90491 0.953503 1.19842 0.493592 0.454116 1.13517
13 1 0.3805 1.10927 4.75261 -0.800052 0.841357 0.238405
14 1 4.47797 4.70082 5.10029 0.232497 -1.09876 1.5714
15 1 0.157993 9.00627 8.37977 0.113786 0.158104 0.312929
16 1 0.506552 8.83914 7.41559 -0.348708 0.840638 -1.22793
17 1 8.06272 3.42874 1.35464 -0.912603 0.105838 0.452833
18 1 5.81741 5.53086 8.94725 0.645764 -0.191233 -0.906437
19 1 4.09387 5.76305 7.23499 0.706224 -0.234791 0.504694
20 1 0.187507 3.70088 8.34294 -0.212565 0.706499 0.135318
21 1 9.22439 4.80388 0.334809 -0.279364 -0.14289 -0.0725093
22 1 0.363759 3.58466 7.29027 -0.294528 -0.944378 0.00891536
23 1 4.7737 0.878873 0.836776 -0.943581 0.0812901 0.0489639
24 1 1.30009 6.26705 5.97873 -0.732657 0.954286 0.512501
25 1 8.36068 1.43781 2.3784 -0.342776 -0.233467 -0.796289
26 1 7.26003 2.69744 6.60881 0.0475515 -0.805924 0.841023
27 1 0.436968 9.19038 1.75381 -0.332206 0.150365 -0.480665
28 1 4.23541 1.19529 1.80752 -0.17048 -1.08848 -0.0710233
29 1 1.77328 3.6498 4.28747 0.234575 -0.290007 0.254364
30 1 7.28412 2.65182 4.78052 0.699183 0.267824 0.0196034
31 1 3.15605 0.575868 0.0143845 0.457952 0.468584 -0.693465
32 1 1.48641 2.22622 9.17239 -0.445618 -0.462777 -0.959704
33 1 5.11171 0.485482 1.71198 -0.262367 -0.198376 -0.530256
34 1 5.65274 9.26043 2.48372 0.97346 -0.879412 0.614552
35 1 2.23372 1.01952 4.14837 -0.316932 0.406184 0.126451
36 1 3.4184 3.52622 2.37197 0.475617 -0.446044 1.11036
37 1 5.62173 6.65201 7.72777 -0.335132 -0.702436 0.33466
38 1 1.50205 1.44086 1.78918 0.451279 -0.105433 1.20523
39 1 6.44162 7.97357 8.64238 0.0930028 -0.393002 -1.21035
40 1 8.91326 8.10727 8.76852 1.03274 -0.862198 0.277726
41 1 6.45283 2.66533 7.5186 -0.150137 -0.552781 -0.750644
42 1 1.536 0.158912 4.20164 -0.614405 0.193801 0.088427
43 1 2.06162 8.25455 6.13194 0.320937 1.06552 -0.413247
44 1 3.2662 0.974683 5.7654 1.6824 0.191937 -0.000262921
45 1 8.50005 9.0431 3.07296 -0.183091 0.927823 -1.08067
46 1 8.05532 6.71 1.31165 -0.0988942 -1.36002 -0.053131
47 1 0.887499 2.15014 2.219 0.289404 0.0497323 -0.626812
48 1 4.92778 7.903 1.44937 0.124569 0.165398 -0.506485
49 1 5.03896 2.58667 5.13846 1.1567 0.34895 0.472133
50 1 1.1469 2.69151 5.22484 -1.18189 -0.408534 0.341057
51 1 0.772078 4.19633 3.6965 -0.719364 1.04662 0.126237
52 1 6.33646 8.79112 3.26105 -0.20679 -0.296641 -0.946667
53 1 2.9092 0.0662318 5.23279 -0.581671 -0.0421526 -0.343525
54 1 8.73356 5.5453 9.11845 -0.944647 1.05405 1.57187
55 1 1.47316 5.10269 6.11635 -0.020138 1.11851 0.0705472
56 1 0.382591 5.05328 4.3703 0.668642 -0.710637 -0.453257
57 1 1.19159 5.78363 6.90598 -0.145282 -0.0410151 -0.130017
58 1 4.82154 7.59281 3.54781 -0.558679 -1.17351 0.311728
59 1 5.91134 8.62993 7.2252 0.532246 -0.889453 -0.409639
60 1 1.99016 8.11979 3.28181 -0.152849 0.16739 -0.66929
61 1 2.22376 8.99447 2.79414 0.292514 0.100719 -1.35879
62 1 4.50621 9.16247 1.14628 -0.239842 -0.493403 0.24403
63 1 8.29163 2.61795 6.42273 0.318167 0.301169 0.208441
64 1 0.0785231 6.51401 9.30418 -0.927278 -0.066341 -0.0898404
65 1 7.47659 1.28944 2.98946 -0.600475 1.07696 -0.491931
66 1 3.02641 0.199172 7.37158 0.351275 0.441636 -0.198402
67 1 7.44597 7.30383 8.57985 -0.013137 0.96779 0.205957
68 1 3.79098 7.70539 7.98365 0.151477 0.366171 -0.157077
69 1 6.23263 5.20975 0.509692 -0.165373 1.10594 0.451926
70 1 7.95134 3.47831 2.98714 0.397856 -0.47089 -0.728251
71 1 7.96303 2.65794 0.668124 -0.621205 -0.219634 1.08036
72 1 6.1868 2.49089 3.39823 -0.558767 0.84526 0.033374
73 1 2.66283 7.41886 5.42706 1.46291 0.760961 -0.432779
74 1 2.92341 8.34985 1.28868 0.195359 0.0597031 0.515541
75 1 8.02571 1.87541 9.36243 0.250926 -0.209415 -0.309304
76 1 8.7451 8.53335 1.25387 -1.04565 0.980277 -0.39516
77 1 1.63632 1.76789 4.57832 0.493469 -0.0138359 0.709901
78 1 2.0829 6.4792 2.66589 -0.129882 0.567868 -0.574534
79 1 5.83725 2.64871 8.34558 -0.489675 -0.0324342 0.206551
80 1 1.08661 9.05115 8.32414 -0.577332 1.55453 -0.16031
81 1 2.70644 8.35256 6.98488 0.229012 -0.330133 1.09534
82 1 5.94071 1.53074 2.85602 -1.45051 -1.3426 -0.641635
83 1 4.69886 5.89707 4.43406 -0.120527 -1.1324 0.120558
84 1 0.533485 5.2728 5.97568 -0.235387 -0.147682 -0.847263
85 1 0.997622 2.51963 0.539711 0.0914937 -0.384109 -1.23524
86 1 4.8442 2.82227 0.941465 1.31209 0.101583 1.90666
87 1 3.72845 3.60759 3.35566 0.589425 -0.0398829 -0.347779
88 1 8.79784 1.82885 7.11474 0.304918 0.76045 -0.6053
89 1 6.16543 5.43354 5.36035 1.69803 0.659922 -0.930038
90 1 5.47945 5.98768 0.791519 -0.259762 -0.454034 0.327165
91 1 7.50771 7.58345 4.38889 1.3157 0.0696898 -0.722229
92 1 7.41378 9.26202 8.27274 1.02304 1.35304 -0.246181
93 1 3.25011 0.864055 4.5514 -0.317249 -1.16404 -1.10651
94 1 1.11804 5.40896 5.04105 0.420148 -0.631957 -0.326892
95 1 0.430393 7.79592 4.27245 -0.312122 -0.00406432 -0.204187
96 1 5.57717 7.78768 6.60563 -0.945665 -1.21485 -0.13729
97 1 2.64414 5.55698 1.14299 0.428085 0.913284 0.36551
98 1 5.46937 8.80951 1.28772 0.798988 -0.857497 -1.65827
99 1 3.20305 0.127078 6.31589 0.813735 -0.58162 0.609605
100 1 7.98555 7.91613 7.006 0.416827 0.661054 -1.10836
101 1 5.38224 5.7923 6.25621 1.48767 -0.291349 0.213049
102 1 3.19978 9.04478 3.18051 0.647506 1.48145 -0.35195
103 1 3.42827 7.90387 5.04126 0.21408 -0.768066 -0.149656
104 1 3.02355 6.96921 2.73715 1.40956 0.728902 0.398881
105 1 0.281621 0.753411 5.78255 -0.7235 0.225553 -1.19271
106 1 7.14322 1.86246 7.21735 -0.470432 -0.262462 0.717831
107 1 6.27528 6.73366 1.33815 0.905378 0.313822 -0.558313
108 1 8.95261 1.89211 4.77718 -0.664643 0.0336634 -0.440349
109 1 6.70283 1.09039 2.30341 0.364852 0.282427 1.93102
110 1 0.99881 4.27627 7.79963 0.259546 1.09916 -1.20855
111 1 8.70735 3.0724 8.44209 0.30841 -0.129856 0.373008
112 1 6.03777 0.536088 9.34208 -1.38204 0.398785 0.558413
113 1 4.49147 4.52147 1.38357 -0.336237 -0.485344 0.943348
114 1 1.18257 1.26407 2.89201 -2.4901 -1.24956 -0.420602
115 1 6.42952 8.92944 5.062 -0.719303 -0.650288 0.254962
116 1 7.76621 2.48939 8.54613 0.187433 0.741639 -0.0646601
117 1 8.27977 7.172 7.62569 0.206115 -0.611856 -0.230882
118 1 7.95024 1.52227 6.64699 -1.0862 -0.107886 -0.208424
119 1 4.31099 2.94038 8.32198 0.699373 1.6703 0.0342758
120 1 0.314006 7.53342 9.00954 -0.038084 0.362697 -0.306303
121 1 5.33172 9.03778 5.08864 0.720214 0.483933 1.006
122 1 1.40487 6.99562 1.24469 -0.130383 0.396862 -0.264981
123 1 2.10951 5.6331 5.47698 0.103181 0.277704 -0.511155
124 1 4.56796 2.11625 6.41603 0.754059 -0.909986 -0.736823
125 1 5.32737 5.14248 4.71257 -0.599697 -0.214461 -0.827816
126 1 6.66761 4.18696 4.19753 1.41627 -0.170355 0.566723
127 1 3.48581 8.95574 4.48173 -1.3181 0.473526 0.264664
128 1 5.16138 4.73879 9.00989 0.357274 -0.831873 -0.773146
129 1 0.922457 5.97113 9.00675 0.73661 -1.29584 0.125621
130 1 4.01784 1.11567 6.60619 -0.701943 0.41348 -0.775471
131 1 9.15175 2.23404 3.77296 -0.879853 -0.479679 0.76885
132 1 7.59215 2.16732 5.68938 0.55925 0.154446 -0.950616
133 1 7.39265 8.84873 3.23495 0.456073 -0.569663 1.19483
134 1 0.532823 5.82074 3.25682 0.20089 -0.441644 -0.624948
135 1 6.6908 5.68075 2.63525 -0.423344 1.99997 0.37322
136 1 8.87873 8.61179 7.05863 0.740252 0.793333 -1.81737
137 1 0.798888 5.17547 0.279908 0.574896 -0.855125 0.19892
138 1 6.28953 3.51111 -0.00169935 0.541705 -0.758186 -0.0975329
139 1 0.00958563 0.943063 7.07669 0.0664981 -0.401855 -1.09078
140 1 4.9369 3.78556 5.04468 -0.506768 -0.0970869 0.33508
141 1 2.94807 7.18205 8.46222 0.365357 1.30298 0.18302
142 1 3.90456 7.99716 1.19893 -1.01748 -1.0105 0.687801
143 1 4.10269 4.81314 8.57484 -0.235427 1.59915 -0.0261548
144 1 0.581596 2.14857 4.54651 -0.215313 -2.01012 0.18361
145 1 7.83115 5.67968 8.67879 -0.42259 -0.495531 1.39232
146 1 4.4788 1.91464 1.00601 -0.31356 0.891069 -0.866469
147 1 5.77198 3.20486 6.87332 -1.56322 -0.656339 -0.971491
148 1 1.78876 4.74933 8.26793 -0.761049 -0.0156107 0.150913
149 1 3.00104 7.99311 3.00782 0.717635 0.189887 0.952812
150 1 7.48139 6.53171 2.76985 0.486353 1.78648 -0.328659
151 1 8.83001 8.71465 6.02339 0.142876 -0.764101 0.234859
152 1 6.07698 8.55304 0.437506 1.00623 0.602989 -0.164941
153 1 1.99864 6.27006 8.67151 -1.252 0.300463 -0.161772
154 1 3.39408 6.76004 0.049603 0.151409 -0.0393679 0.433895
155 1 0.516092 6.10637 4.36092 -1.85933 -0.00252245 1.27094
156 1 5.45792 8.06133 4.39335 0.370218 0.233525 -0.555169
157 1 6.63597 3.57428 7.31317 -0.134609 -0.589993 -0.293592
158 1 1.99542 5.61922 7.54261 -0.468844 0.145612 0.114724
159 1 0.28061 6.2568 7.55532 0.277117 -0.159333 0.195449
160 1 2.71038 3.48056 8.06582 1.35484 0.236605 0.726963
161 1 2.00674 2.9667 6.03209 0.965208 0.348916 0.649819
162 1 8.81981 2.61778 0.0196056 0.0767064 0.510145 -0.0359314
163 1 2.12029 2.71955 4.92756 -0.173384 -1.32019 -0.507595
164 1 2.90509 8.77286 0.327225 -0.247614 -0.171025 0.180527
165 1 4.40248 5.32138 2.09308 0.677705 0.0663742 -0.537074
166 1 5.59763 7.02133 1.96266 0.472891 -0.00689189 0.0385309
167 1 2.74651 6.30689 3.89155 -0.793011 -1.52546 -0.291762
168 1 7.27552 5.49573 0.877174 -0.252964 0.369567 0.372692
169 1 3.09354 6.22216 8.68902 -0.0702527 -1.25902 0.847667
170 1 0.772097 3.41925 4.6114 0.456069 0.00953547 0.52568
171 1 5.02096 5.45547 8.29777 -0.124865 0.0416231 0.655105
172 1 2.51799 2.44159 7.83249 -0.498957 -0.336201 1.50232
173 1 8.04152 3.76745 0.357817 0.615488 -0.586394 1.24491
174 1 2.17887 4.08515 6.23261 -0.40766 -1.52039 0.464943
175 1 5.87739 4.82716 8.18594 -0.583459 0.266815 -1.00195
176 1 2.21968 9.18504 6.71948 0.967765 -0.84884 0.0408066
177 1 3.13595 7.70705 0.425247 0.531091 -0.0869722 0.7236
178 1 8.07416 4.65486 1.86033 -0.442578 0.318858 0.975299
179 1 5.63712 1.09633 7.36438 0.37345 0.124558 0.114019
180 1 0.169377 8.86053 3.15619 -0.380031 -0.324932 0.979115
181 1 8.75401 5.75748 3.0454 -1.3322 0.511277 1.38864
182 1 4.1522 3.72874 7.62475 1.21215 0.106362 1.5092
183 1 3.05229 3.20065 0.534674 1.20573 0.326895 0.124157
184 1 3.37201 8.62853 7.91176 -1.47764 0.531306 -0.144759
185 1 1.78379 7.6755 6.96369 0.968389 0.473811 -0.0682301
186 1 3.31067 3.71139 4.38612 1.02397 0.138746 -0.673202
187 1 2.27269 0.646424 5.99335 1.21799 -0.450112 0.388219
188 1 1.69196 6.47647 0.299997 0.0443724 -0.50097 -0.551099
189 1 4.23321 6.7059 3.84835 0.837774 -0.139383 0.41912
190 1 4.99347 7.67871 2.45174 1.20117 -0.99862 -0.368713
191 1 6.0879 5.65415 7.5313 0.981182 0.813706 0.192265
192 1 0.429429 2.25122 8.89373 0.388604 0.212987 -1.15383
193 1 2.14048 8.12883 9.2456 -0.307636 0.127386 1.36664
194 1 8.09126 7.72498 0.976963 -0.30035 -0.327359 -0.609257
195 1 8.90944 0.262852 4.04719 -0.714537 0.24267 0.847207
196 1 0.397711 1.03214 2.11052 0.714897 0.275844 0.148355
197 1 6.05002 6.55092 5.98888 0.540044 0.27381 0.527915
198 1 0.510446 1.79629 1.25417 0.951561 -0.759027 -0.155829
199 1 9.2975 9.3359 4.9309 -0.03278 0.00787204 -0.915105
200 1 3.79248 0.990834 7.63693 -0.89235 -0.087419 0.474639
201 1 4.28303 1.73793 2.88937 0.254217 -0.584678 -0.632078
202 1 8.00567 6.98451 3.71839 -0.758219 1.84899 0.920545
203 1 5.77153 7.69745 7.74346 0.107754 -0.0917547 -0.547001
204 1 5.05129 0.902072 9.11799 -0.969667 -0.101689 0.777275
205 1 4.61289 8.67157 7.01407 -0.529911 0.793475 -0.493367
206 1 1.48052 0.744943 5.10318 0.369495 0.378462 0.123213
207 1 6.54709 1.87432 1.60895 0.316445 -0.0444335 -1.77201
208 1 1.25828 4.46348 4.56254 0.879087 0.34969 0.981523
209 1 6.90523 9.20405 6.87127 0.0682345 -0.565865 0.70508
210 1 0.77465 1.45886 0.257728 0.376827 0.889198 0.590795
211 1 8.68996 0.418462 0.0325234 -1.24843 -0.223147 -0.236434
212 1 7.02123 7.50954 1.32077 -0.299551 -0.842295 -0.0146729
213 1 1.87771 1.84639 3.61727 -1.00111 0.308639 0.473087
214 1 7.37393 1.81974 0.949527 -0.693964 -0.414189 0.481975
215 1 3.71841 5.75628 3.82942 0.64765 -0.431559 0.0613087
216 1 6.43047 7.60521 6.04582 0.927485 -0.482164 0.838627
217 1 3.91949 0.342488 5.27996 0.629905 -0.612151 -0.0447491
218 1 2.82854 2.48068 2.13643 -0.313255 -0.437058 0.1531
219 1 6.84735 5.52531 9.11616 0.481894 0.780748 -0.458482
220 1 1.09269 1.18228 8.6598 0.709785 0.908927 0.581166
221 1 7.89449 8.90559 6.50061 1.2094 0.759385 -1.24483
222 1 5.30123 5.26522 1.58407 -0.328581 -0.569019 -1.38622
223 1 0.46229 0.598044 8.02668 -0.799389 -0.978188 1.3924
224 1 6.65751 6.42411 5.17423 -0.363997 0.449533 -0.903696
225 1 7.93516 5.94751 6.4255 -0.755243 -0.671947 -0.734073
226 1 2.51614 7.42745 4.40819 0.439931 -0.847314 0.305731
227 1 5.98717 7.28828 3.8809 1.56051 -0.204198 0.108547
228 1 8.41596 9.0407 8.56272 0.319127 -0.374976 0.581896
229 1 4.27505 2.5306 2.01374 1.16561 -0.130314 -1.33275
230 1 3.9959 5.86906 8.3375 -0.340132 1.19943 -0.573748
231 1 5.14942 5.82577 7.31604 -0.549336 0.0585967 0.0701319
232 1 5.38973 3.91106 2.48747 -0.663169 1.95307 -0.4947
233 1 8.08749 8.12749 3.71292 0.447531 -0.270578 -0.276738
234 1 6.73484 8.88171 9.06225 -1.00868 -0.36393 0.84133
235 1 8.46935 7.12505 6.51187 -0.232638 0.2454 0.562142
236 1 0.531697 4.70381 7.01228 -1.05999 1.04462 0.071057
237 1 5.15524 2.00137 2.14237 0.135444 -0.178705 0.204073
238 1 7.06711 5.41372 7.97963 0.665264 0.39476 -0.0311106
239 1 4.0006 8.9568 6.20738 -0.0645993 0.104087 0.556433
240 1 4.02574 2.51022 5.52194 -0.255463 -0.715509 1.69377
241 1 2.77712 4.91494 3.09198 0.994226 0.387867 0.813881
242 1 6.15209 4.17104 0.750708 0.311341 0.157297 0.653422
243 1 2.60121 6.58413 0.908227 -0.6203 -0.0285356 -0.527698
244 1 5.22233 6.83548 6.73061 0.275461 -0.213898 0.289108
245 1 5.39257 3.05653 3.1462 -1.62185 -1.4863 -0.419194
246 1 6.92345 6.9368 3.63275 -0.358742 -1.04069 -0.385554
247 1 4.42044 2.82748 3.63838 0.454678 -0.351586 1.17643
248 1 4.98989 8.61427 5.97438 -0.341435 -1.39141 -1.1943
249 1 4.54765 4.21367 6.08614 0.401173 0.0274339 -0.359059
250 1 5.29611 6.49511 3.71797 -1.06686 0.654514 -0.0741534
251 1 6.46397 0.0938976 7.72995 0.623458 -0.400973 0.499777
252 1 0.524806 4.30812 5.27856 -0.186173 -0.319861 -0.132587
253 1 0.758039 4.81832 2.73187 0.257857 -0.63241 0.578092
254 1 5.40509 1.62786 0.370836 -0.125239 -0.951038 -0.375533
255 1 6.46625 5.5695 1.53797 -0.1686 -0.147027 0.324746
256 1 9.0041 3.10473 1.62478 0.251698 -0.792026 0.00999166
257 1 6.44657 0.664337 4.31444 1.48499 0.455499 -0.133573
258 1 2.26784 8.19034 2.12366 -0.877407 1.86359 -0.0683069
259 1 3.07485 6.30885 6.91929 -0.686583 -0.129179 1.12389
260 1 3.49294 3.98433 1.3277 1.14204 -0.443284 0.582397
261 1 9.14665 7.08303 8.2981 0.41984 -0.779748 -0.796075
262 1 1.87506 1.87982 0.965407 0.942502 -0.363663 0.155171
263 1 7.36448 5.06445 4.16538 -0.45432 0.713289 0.669361
264 1 6.59897 8.00674 6.9582 0.953076 0.00013018 -0.0418584
265 1 5.63211 3.79387 4.24549 -0.577061 -0.225585 -0.337089
266 1 7.75918 5.58746 2.55358 -0.773546 0.0956441 -0.0712172
267 1 7.3113 2.80064 1.61043 0.761827 1.08885 -0.663743
268 1 4.35784 9.16007 7.97485 -1.0118 0.700153 -0.6812
269 1 1.61458 5.55526 0.771787 -0.797166 0.757623 -0.146174
270 1 0.686375 8.36245 2.34766 -0.481287 -1.40534 -1.32128
271 1 5.06005 7.28804 0.0822572 0.0466911 0.0567474 -0.884488
272 1 0.224954 5.5771 2.17609 0.136276 -0.232541 0.519524
273 1 6.99239 3.12584 2.64065 -0.737587 1.25971 -0.873465
274 1 2.81924 7.38767 7.28745 -0.714016 -0.958737 1.36155
275 1 4.31598 7.15259 1.89851 1.01074 0.863185 0.291042
276 1 0.129598 7.59196 2.92127 0.698348 0.603312 -0.603285
277 1 5.34848 0.726794 4.33317 0.726277 0.557526 0.764539
278 1 1.50262 3.75263 5.34604 -0.126622 0.292248 0.795222
279 1 9.28606 6.4464 1.44321 1.31293 0.805505 -0.0941861
280 1 3.93937 0.668549 2.85767 1.12543 -0.846025 0.129208
281 1 7.84005 7.35181 2.11437 -0.134327 -0.545318 -0.639469
282 1 0.157866 4.20968 2.02491 0.563516 -0.522202 0.172086
283 1 8.53239 7.31305 2.85439 0.745298 0.390227 0.209026
284 1 7.97577 8.16661 2.66609 0.0361831 0.543135 -1.12033
285 1 6.86273 9.12184 4.13951 0.12747 -0.436536 -0.090387
286 1 2.08031 1.68046 8.41304 -0.0215784 -1.31055 -0.0287102
287 1 2.49674 8.15405 8.09499 -0.338834 0.072835 0.594324
288 1 1.7058 7.29136 5.88322 -0.428566 -0.139029 -0.555735
289 1 6.11555 1.60239 3.95072 0.515182 -1.34573 -0.189996
290 1 2.43139 6.48911 7.70981 0.857537 -1.37222 0.639985
291 1 6.57084 4.07669 8.21194 -0.0944202 -0.437904 -0.525638
292 1 1.45745 6.43715 4.96829 1.30959 0.291278 0.211646
293 1 9.38772 1.70671 2.87382 0.2101 -0.329198 -0.590421
294 1 8.90291 5.28374 7.53813 0.944587 -0.834956 -0.531291
295 1 9.06 4.22764 4.47168 0.0658342 -0.255586 -0.0776096
296 1 7.32012 8.54349 0.594155 0.119936 0.464417 0.744443
297 1 5.51928 6.21884 5.23424 0.622637 -1.17548 1.00869
298 1 3.04103 5.26335 5.81512 1.95742 0.328347 0.708816
299 1 4.55088 0.110302 4.54741 0.581374 -0.233695 -0.368066
300 1 8.92658 4.07839 1.09211 -0.819697 -0.463267 -0.704006
301 1 2.57874 8.49495 5.25198 -1.29871 1.67998 0.083209
302 1 8.78075 0.884642 5.12132 -1.00145 0.651681 -0.62992
303 1 0.954639 0.264024 2.63424 -1.10541 2.08474 -0.0795269
304 1 7.94911 5.65918 4.90189 0.265854 1.78353 0.0194386
305 1 1.50764 8.94426 9.24644 -1.24901 -0.277611 0.38011
306 1 3.16757 8.85481 2.11297 -0.319519 -0.455128 0.953054
307 1 5.02009 0.987945 2.72364 0.217825 -0.860798 -0.40132
308 1 0.0897985 9.30112 6.62466 0.150488 -0.462949 1.00938
309 1 8.76394 5.95517 5.70476 -1.05523 -0.473419 -0.0325899
310 1 5.918 4.85636 2.34537 1.10024 -0.123855 -0.16666
311 1 7.35914 6.4532 9.13284 -0.212254 0.661317 -0.581715
312 1 3.88162 7.01753 0.972774 0.555597 1.27804 -0.921571
313 1 6.94725 4.60519 1.32126 -0.920887 -0.812929 1.17181
314 1 7.43837 3.45425 4.173 -0.247321 0.0505843 0.212884
315 1 4.5248 5.33373 5.99527 0.282851 -0.185139 -0.715534
316 1 9.35031 4.34223 6.1767 1.76947 0.470757 1.35145
317 1 7.94824 0.844966 1.48207 -0.369129 -0.0849069 0.141986
318 1 8.75282 3.42583 3.76588 0.571387 -0.615238 -1.31758
319 1 3.81181 1.09982 0.601944 -1.88326 0.26518 -0.671108
320 1 3.94698 5.58454 5.1101 0.632066 -0.21873 0.44245
321 1 1.06477 3.73121 1.67366 -0.970902 -1.15803 0.839068
322 1 2.81588 6.4937 5.93586 -1.2461 0.208791 -1.48801
323 1 1.29131 5.21123 3.76472 1.016 -1.11121 -0.508988
324 1 1.11339 4.17515 6.23674 0.652649 0.363834 0.613587
325 1 6.54741 8.55792 1.34093 0.0296141 -0.0722777 0.91949
326 1 6.25987 1.89275 6.60736 -0.0949328 -0.414683 -0.644375
327 1 5.03358 2.27097 8.8904 0.114843 0.147947 -0.142516
328 1 8.96013 7.42593 1.59529 -0.567277 -0.398829 0.867412
329 1 9.36988 9.12099 0.636759 -0.167653 -1.52678 0.720065
330 1 3.43282 5.58986 1.76928 -0.805095 -0.246165 0.815243
331 1 2.96566 0.586445 3.39167 -0.524752 -0.790178 0.613312
332 1 4.55962 1.12513 3.75771 0.0908931 -0.956995 -0.334649
333 1 1.13204 3.75864 2.66363 1.0234 -0.234572 -1.19209
334 1 0.908282 8.10626 5.95202 0.209436 0.0465879 -0.224189
335 1 2.6905 3.37206 1.57259 1.34952 0.875005 -1.16001
336 1 7.19755 7.35004 5.33593 0.0749519 -0.925514 0.622547
337 1 8.36147 0.742009 7.15552 -0.092204 0.3029 0.039554
338 1 8.58554 2.70888 7.53338 -1.57219 -0.600247 0.214072
339 1 1.33818 3.5633 7.05193 0.476909 0.181349 0.326049
340 1 4.77516 8.66783 2.09117 1.6465 0.0785228 -0.0564921
341 1 6.67187 3.63147 6.25078 0.772109 0.895699 -0.736501
342 1 6.92538 3.10018 8.43535 0.870308 0.135095 -0.16294
343 1 6.95167 7.97294 3.54654 -0.156702 0.337189 -0.207877
344 1 0.891457 2.63061 6.2876 0.522791 0.851655 -0.166656
345 1 8.6085 6.11793 7.99119 -1.06589 -0.609111 -1.03556
346 1 0.38321 0.245239 9.17184 0.102949 0.406823 -0.250755
347 1 7.10864 6.13246 7.10049 -0.46966 -1.53445 0.33611
348 1 8.04272 1.76936 7.84891 -0.0518781 -0.475405 0.11156
349 1 3.58297 4.94719 0.901653 0.71678 -0.139123 -1.58285
350 1 3.09903 3.0948 6.1884 0.274162 -1.22587 0.243493
351 1 5.39341 8.37715 3.12564 0.158849 0.428341 0.854086
352 1 6.64714 7.24061 7.91555 0.0355821 -0.327642 0.218126
353 1 9.05904 4.2613 7.63156 -0.587993 0.0602018 -0.0494956
354 1 0.699507 7.10148 6.20016 -0.7309 0.156655 1.14792
355 1 0.643919 7.35657 1.89666 0.394697 -0.560479 0.661097
356 1 5.42929 2.238 7.2322 1.49711 -1.08227 0.498732
357 1 8.54692 3.87016 2.2594 -0.429324 0.806252 -0.0848573
358 1 4.56525 6.43673 5.71608 0.96721 0.606765 0.855215
359 1 3.53242 6.6392 7.77528 -0.202405 -0.653987 -0.77909
360 1 4.29055 2.92799 0.0581858 -0.201181 0.487929 -0.490248
361 1 7.03575 1.43592 6.09358 -0.294802 -0.46399 0.225231
362 1 1.56048 8.95221 1.95927 -1.42398 0.905432 0.0920695
363 1 8.2593 2.36471 1.69787 -0.386663 -0.366645 -0.350163
364 1 2.13389 0.774066 7.58214 0.200471 0.491256 -0.377085
365 1 1.57855 4.29675 9.28257 0.730554 0.95002 -0.194882
366 1 5.87058 0.852137 0.87784 0.86434 -0.608422 1.70896
367 1 2.0213 2.82878 0.36071 0.160351 -0.027016 0.112628
368 1 2.68489 2.07555 4.36077 -1.00987 0.207621 -0.0531221
369 1 8.26514 7.64372 9.3611 -1.02778 1.5937 1.10855
370 1 1.23552 6.33455 8.05639 -0.412709 -0.854816 0.452173
371 1 3.20493 2.79972 4.99267 -1.0853 0.0411664 0.189212
372 1 5.3132 0.028715 0.424976 -0.244249 -0.117416 -1.72553
373 1 6.36334 3.92901 2.08931 0.229207 0.44942 1.12819
374 1 8.72246 0.812933 6.17266 0.771247 -1.23183 0.22545
375 1 3.32325 6.68518 1.77557 -1.1111 -0.523568 1.09524
376 1 4.79217 3.89219 0.57001 -0.360922 -0.485813 0.767019
377 1 1.82583 7.28718 7.91825 -0.655909 -1.15094 0.0742388
378 1 4.00344 6.26827 2.44061 0.703743 0.124148 0.126486
379 1 7.34424 4.38781 7.6109 -0.186671 1.12187 0.606147
380 1 7.73856 3.74157 6.74926 -0.922353 -2.04787 0.994335
381 1 5.37645 2.68327 4.13356 0.232857 0.745076 -1.27783
382 1 5.2932 7.19868 5.75795 -0.31772 0.948843 1.02378
383 1 0.0167611 8.01195 7.87494 -0.0510777 -0.0408757 -0.119993
384 1 3.30287 0.826775 1.50788 -0.362929 -0.100189 0.0593884
385 1 4.87878 7.41508 8.39411 0.441234 0.169081 0.780118
386 1 7.3516 3.84777 2.05038 0.947038 -0.230382 -0.0848689
387 1 0.359381 8.18712 1.28591 -0.944581 0.386249 0.315254
388 1 5.48615 8.17954 8.92398 -0.70024 -0.939408 0.285069
389 1 6.46847 3.07745 4.31615 0.471331 0.72196 0.0509647
390 1 3.03064 5.53669 4.59703 0.594267 -0.160101 0.00508418
391 1 9.01703 8.41543 2.36323 0.40331 1.5998 -0.392738
392 1 4.89385 6.19559 1.83755 -1.05612 1.55937 -0.152912
393 1 5.89609 7.65441 1.14589 -0.19877 0.819726 -0.932684
394 1 6.96205 4.76501 5.10601 -0.696293 -1.52612 0.194028
395 1 8.96942 1.50065 0.344271 0.965897 0.459966 -0.531388
396 1 3.5109 1.89293 1.46102 0.414017 0.45008 0.885738
397 1 5.74186 4.03491 7.61746 -0.479374 1.02859 0.248574
398 1 7.27218 4.65133 8.70231 0.147492 -0.766005 1.38298
399 1 8.21204 9.07846 1.98985 0.364366 -0.242227 0.0870348
400 1 2.08613 3.14124 2.4582 1.0946 -0.394793 -0.102389
401 1 6.19916 4.55851 9.12551 -0.378509 1.42347 -0.888321
402 1 2.74511 2.37539 1.02256 0.672259 0.751213 -0.0121605
403 1 2.46361 4.43166 1.48094 -0.220072 -0.329434 -0.22994
404 1 3.16385 7.67097 2.02568 -0.350402 0.209376 -0.712128
405 1 3.69205 4.93479 6.55688 -0.133229 -0.223244 0.172974
406 1 4.99983 9.13603 8.90758 0.941271 -0.753937 0.85315
407 1 6.79398 0.0658471 0.546982 -0.739647 -0.696661 -0.103721
408 1 2.81269 1.36179 0.6808 -0.253748 -0.153787 1.6832
409 1 4.07694 2.00842 4.26256 0.863386 -0.133711 0.927553
410 1 7.93578 0.731084 8.60771 0.348263 -1.01624 0.173507
411 1 6.00089 0.554192 3.38059 -0.678742 -0.0783721 -0.742821
412 1 3.37824 7.46265 6.25223 -0.504762 0.245647 -0.0829112
413 1 0.212577 0.746561 0.841339 0.516272 1.20541 -0.432117
414 1 7.07808 1.55608 9.15545 -0.336293 0.371069 -0.778045
415 1 5.96502 8.79906 8.30143 0.110037 1.17325 -0.685063
416 1 8.39821 8.75727 0.23148 0.895921 -0.638116 -1.02055
417 1 7.25607 1.57479 4.01582 -0.0955139 0.609745 0.77536
418 1 3.53874 1.42424 3.62148 -0.0670391 -0.62579 -0.177398
419 1 8.80103 2.9126 2.77738 -0.109328 0.343164 0.302367
420 1 2.69923 2.2672 5.63581 -0.472775 0.416461 1.15838
421 1 7.35948 8.07224 6.14922 -0.395266 -0.244436 0.0717351
422 1 7.12164 4.11072 3.19149 -0.196976 -0.015761 1.15459
423 1 8.53355 2.75621 5.42114 0.637457 0.877362 0.668514
424 1 4.86593 6.63785 2.73652 -0.0957996 0.536682 1.41268
425 1 0.938583 1.03538 6.64007 -0.0907003 0.611033 -0.110847
426 1 2.98276 0.616027 8.33235 0.303879 -0.0314178 -0.576036
427 1 6.81009 3.68798 5.1873 0.0969943 -0.230126 -0.0211401
428 1 4.0607 0.163636 7.1028 -0.686791 -1.02043 1.21715
429 1 6.62725 0.87157 6.93178 -0.465953 0.1417 -0.000126891
430 1 7.36022 2.5035 3.65854 0.288712 1.44667 -0.32477
431 1 0.40728 3.07559 3.62214 -0.743897 -0.0352432 0.175069
432 1 2.19267 7.0527 3.48106 0.0346642 -0.880575 -0.281963
433 1 1.81678 9.14194 5.13908 -0.487869 0.554948 -0.548544
434 1 5.57614 4.85631 6.73514 -0.129128 -0.329988 -0.503867
435 1 7.5268 6.40102 8.0535 -0.447998 -0.390277 -0.118359
436 1 8.80437 6.94823 5.52319 1.20288 -1.5427 -0.700174
437 1 4.25398 4.21279 2.38573 0.1295 -0.892362 0.656283
438 1 2.07262 5.60537 3.30331 -0.0806886 0.879072 0.334694
439 1 3.89876 8.27983 2.4975 -0.72866 0.640688 -0.736832
440 1 5.10968 6.4301 8.74892 0.0222202 -0.673577 0.146144
441 1 6.61038 2.59894 0.817664 1.07174 0.561526 -0.499285
442 1 9.14872 4.6944 3.48691 -0.448937 -0.396381 0.238995
443 1 2.40868 4.15946 2.56045 0.385299 0.304512 0.504133
444 1 7.36493 6.40593 4.42822 -0.328894 1.07265 -0.706939
445 1 5.91629 3.20528 5.21254 -0.328672 -1.53148 0.200307
446 1 8.41339 4.02132 5.85624 0.741202 -0.536748 -0.80527
447 1 9.034 5.84512 0.693383 -0.274279 0.866539 -0.0898384
448 1 1.95254 8.60877 0.8201 0.570021 0.180096 -0.424202
449 1 4.50627 7.69132 6.42034 0.525607 -0.320765 0.620726
450 1 3.15992 8.50147 6.07116 -0.532881 0.484187 -0.453728
451 1 5.66861 3.78964 6.0459 0.311094 -0.0304117 -0.95532
452 1 5.88093 7.06889 8.64287 -0.767574 0.827299 0.624078
453 1 2.95881 1.06472 6.84201 -0.294182 0.159691 -0.494443
454 1 1.94894 6.17729 1.70582 0.356624 0.77105 0.397369
455 1 8.21463 3.54686 4.83642 1.05733 0.302229 0.0709163
456 1 0.888793 5.17863 1.44715 -0.641727 0.195583 0.248113
457 1 7.26034 7.62249 0.226126 -0.0459547 0.267874 -1.26289
458 1 1.60725 8.07392 5.10459 -0.389968 -0.340004 -0.11919
459 1 8.23786 5.07286 5.92824 -1.48235 -0.667877 1.38525
460 1 5.52099 4.75669 3.74743 0.821669 -0.127714 -0.135117
461 1 8.47672 5.14465 4.10502 0.687189 -0.222312 -0.423555
462 1 4.25831 0.185041 0.204923 0.81013 -0.0840267 0.657746
463 1 2.2263 0.192854 0.282745 0.545822 -0.963835 -0.791862
464 1 8.23927 1.84764 3.58398 1.03894 1.63557 -0.323436
465 1 0.836282 5.37108 7.78967 -0.167475 0.397301 0.584322
466 1 3.49614 2.27015 8.11669 0.331606 0.857689 0.443917
467 1 5.17173 1.96442 3.36443 0.694765 -1.17964 0.40651
468 1 8.35363 8.74419 4.92932 0.986573 0.401569 0.876023
469 1 8.18661 0.114497 5.70292 0.262283 -0.504534 0.152426
470 1 7.73244 3.72726 8.77762 -0.644112 -1.07709 0.850845
471 1 4.30706 1.39026 5.69186 -0.154459 -0.937519 -1.40317
472 1 0.511909 4.3569 1.06908 0.337525 -1.23371 0.147564
473 1 2.61005 2.25548 6.85553 -0.966664 0.0406937 0.808915
474 1 9.15737 8.01679 0.448748 0.41898 0.484956 -0.112238
475 1 0.0368816 1.22503 8.89831 -0.454008 1.99635 -0.160252
476 1 9.03874 0.0518656 7.61663 0.671678 0.70849 -1.13206
477 1 8.48924 0.814656 3.18884 -0.660412 -0.692875 0.851868
478 1 4.77417 7.62055 7.38537 -0.313946 0.231507 1.3529
479 1 1.17504 3.51912 0.567033 0.805506 0.21469 -0.843476
480 1 3.31996 1.45658 2.39399 -0.0254791 -0.0126053 -0.00632076
481 1 3.68708 2.60752 2.81632 0.346233 0.0671252 0.199442
482 1 7.20709 3.07452 0.100914 0.248177 -0.322434 -0.213617
483 1 4.41559 7.52612 5.43408 -0.148393 -1.01503 -0.174194
484 1 4.28266 9.09336 2.91661 -0.720722 -0.684206 0.0790333
485 1 6.54808 6.21953 8.38043 0.194949 0.352812 0.0610575
486 1 6.26155 7.36339 0.194906 0.798994 -0.60927 0.692758
487 1 6.98614 8.09045 2.50439 1.20095 -0.595977 -0.787935
488 1 7.36828 7.07845 7.1304 -0.238296 -1.27693 -0.132506
489 1 0.32838 1.60827 7.99194 1.14586 0.280683 -1.35965
490 1 2.53864 6.459 4.95145 -0.675857 -1.31108 0.308536
491 1 7.56934 8.3661 1.74721 0.492666 -1.37528 -0.295134
492 1 5.12843 3.1916 7.65868 -0.369476 -0.459705 -0.118608
493 1 7.7426 0.873649 0.419611 -0.374481 -1.09839 -0.830933
494 1 6.04824 2.23546 4.88865 -0.24579 0.615962 0.404909
495 1 5.76254 1.28937 1.88653 -0.503888 0.149569 -0.846669
496 1 3.24879 2.86328 8.93779 -0.556049 -0.180856 -0.577249
497 1 1.99365 0.591411 8.65335 -0.938494 -0.450797 -0.338164
498 1 7.13472 -0.00149031 1.64172 -1.08615 -0.76311 -0.297182
499 1 3.97606 7.3497 2.92364 0.645049 0.775749 0.482673
500 1 4.82888 4.40954 7.8629 -0.0197682 -0.979131 -0.528444
501 1 4.85276 0.155275 6.38232 0.71158 -0.75465 -0.325094
502 1 2.12616 4.6186 5.2378 1.09406 1.14813 0.691874
503 1 4.9813 8.39415 0.434752 -0.677899 -0.387553 -0.259821
504 1 5.43475 4.12427 1.48114 -0.28698 0.73488 1.79486
505 1 6.48403 4.90233 3.38692 -0.730865 0.288401 -0.684534
506 1 0.437231 9.02979 5.78248 0.831705 0.104955 -0.59665
507 1 7.50467 1.64938 1.96653 -0.443421 0.862534 -0.126564
508 1 6.7755 2.12684 2.61341 -1.21446 0.475671 0.00497541
509 1 1.1729 6.79925 7.1692 1.01482 -0.0269049 -2.32169
510 1 8.97591 7.4616 3.79569 0.831956 -0.593588 -1.28957
511 1 7.40487 8.39061 5.01448 1.86527 -0.404459 0.0149638
512 1 4.52499 4.99855 3.93391 0.396193 -0.514352 -0.416277
513 1 1.02226 6.68008 2.7808 -1.34665 0.0978138 1.31812
514 1 8.53048 7.70968 4.67787 0.0265153 -0.190353 0.757231