ITEM: TIMESTEP
3030000
ITEM: NUMBER OF ATOMS
1000
ITEM: BOX BOUNDS pp pp pp
0.0000000000000000e+00 9.4000000000000004e+00
0.0000000000000000e+00 9.4000000000000004e+00
0.0000000000000000e+00 9.4000000000000004e+00
ITEM: ATOMS id type x y z vx vy vz
1 1 2.40785 2.39136 8.62879 0.548418 -0.413964 0.250917
2 1 6.79718 2.58323 8.59242 1.0286 0.196885 -0.40302
3 1 2.69372 6.11872 1.89609 0.123307 1.75457 0.828682
4 1 6.85442 6.30724 2.1289 0.0277907 -1.60465 0.164003
5 1 2.42894 8.86791 4.05092 -0.859371 0.755795 -0.456094
6 1 6.91875 1.30303 7.17444 0.240474 0.322633 -0.216968
7 1 0.990282 8.12856 8.59964 -0.27433 -0.107791 1.41912
8 1 4.17588 2.4153 6.87307 0.00358285 1.34546 0.474155
9 1 3.31034 3.34063 4.95454 -0.268554 -1.17108 -0.230937
10 1 8.40037 7.52999 8.27522 0.648996 -0.913615 -0.477794
11 1 8.8822 1.76864 8.92011 0.894843 1.9129 0.944461
12 1 7.64395 1.62341 2.60837 1.24594 -0.416394 0.0133216
13 1 9.25494 1.66602 3.44941 0.964612 -0.318566 0.752861
14 1 2.61 4.91666 0.217742 -0.876485 -0.619879 -0.126592
15 1 9.22457 2.83274 8.80966 -0.417373 -1.10318 -0.878962
16 1 2.37715 0.578808 6.32345 -0.551364 -0.77938 -0.350595
17 1 8.42894 3.99464 7.01785 0.70702 0.271658 0.274335
18 1 9.00869 7.30289 9.07368 0.814269 -0.929873 -0.116361
19 1 3.74226 1.29583 0.00693959 1.14493 0.281276 -0.312401
20 1 4.76951 3.0931 7.9793 -0.886262 0.603046 -0.779766
21 1 0.932101 1.48449 3.07161 0.47477 -0.11684 -0.969007
22 1 3.27338 4.06387 6.68789 -1.26646 1.48863 0.0876326
23 1 5.94653 2.05084 8.1238 -0.679766 -0.849424 0.00725153
24 1 4.05372 7.27095 6.30537 0.00251121 0.372968 0.899987
25 1 5.99946 1.78225 7.09936 -0.159639 -0.379528 -0.493599
26 1 9.35861 8.52913 4.12129 0.0377332 -0.314322 0.581525
27 1 8.13664 9.28205 8.0968 -0.734764 1.48434 -1.0333
28 1 3.55199 3.12475 6.24717 -0.0791334 -0.0108873 0.5779
29 1 1.46462 2.43031 8.00951 -0.772609 -0.0687045 0.673344
30 1 9.34153 1.00854 2.65356 1.10656 -0.365715 0.302028
31 1 0.270988 3.89184 3.43693 0.882738 1.11171 -0.745442
32 1 4.03531 1.06355 5.44535 -0.167249 -0.397647 -0.608918
33 1 2.46697 3.49624 8.69328 0.214184 0.871818 0.64765
34 1 6.91185 8.09304 2.81573 0.0467264 -0.571134 -0.443337
35 1 7.95389 8.72144 5.51571 0.0281836 -0.538929 0.0842276
36 1 8.87775 6.477 2.41191 0.93545 0.278975 -0.671385
37 1 5.51148 3.61139 2.25429 -0.542462 0.521194 -0.54348
38 1 1.27165 9.23037 2.42108 0.676517 0.830604 -1.14999
39 1 2.35398 7.34646 5.47364 0.454029 0.296361 0.500393
40 1 1.81928 0.851656 9.20225 0.00887178 0.491486 0.0523691
41 1 6.27625 9.26302 7.68175 -0.265984 -1.27064 0.666211
42 1 0.277692 7.3465 8.28923 -0.250675 -1.18435 -0.660554
43 1 2.8213 1.87621 1.91971 0.267853 -0.191097 0.008482
44 1 5.45865 2.64816 3.8416 0.829322 0.106004 1.15191
45 1 5.02787 0.195112 6.69742 -1.03647 0.376737 0.0404219
46 1 1.12382 7.2972 2.98449 -0.071181 0.167876 0.751794
47 1 3.68527 5.07202 7.17385 1.82488 -0.120605 0.110377
48 1 6.9082 4.8552 3.27749 -0.730599 0.11631 -1.13975
49 1 3.99095 3.96036 5.62799 -0.674892 0.996336 0.598815
50 1 8.9181 0.141858 3.15915 -1.28071 0.751127 -0.805961
51 1 5.01886 5.35789 4.55737 -0.158377 1.60745 0.177987
52 1 5.49444 2.06747 0.934184 -1.19937 0.181773 1.02967
53 1 6.81183 3.56015 5.80097 0.569417 -0.623074 0.130841
54 1 7.80826 7.38566 7.14082 -0.0548135 0.515057 -1.1959
55 1 1.59513 3.74579 5.75879 0.605851 -0.336551 -1.61085
56 1 1.19998 4.76712 5.98959 -0.670901 -1.04155 0.520415
57 1 0.176913 0.847894 7.31442 0.25152 0.837428 -0.47835
58 1 7.80127 8.59308 0.702387 -0.186598 0.166116 0.411232
59 1 9.34282 9.31999 5.76228 0.59928 -0.524411 0.862802
60 1 0.688411 5.54291 0.10544 0.243295 0.288119 0.261397
61 1 5.29154 5.7873 2.68387 0.828669 -0.401997 0.169754
62 1 0.48725 1.0334 1.21459 1.56557 -0.223722 1.53092
63 1 3.52062 4.68564 8.12573 0.00578563 0.502595 -1.31322
64 1 4.34653 6.24763 8.26129 0.711617 -1.03775 0.121605
65 1 3.17868 2.2433 0.0668062 0.122436 -2.06956 -0.958597
66 1 5.76628 5.82571 9.10783 -0.404232 -0.816578 0.322091
67 1 4.20244 7.1232 2.80466 -0.00707851 0.0958186 0.106782
68 1 3.2576 6.2583 8.62375 -0.87163 -0.114901 1.08207
69 1 3.18862 4.11753 0.694754 0.934288 -0.0814814 -1.26376
70 1 1.192 3.34653 3.83774 -0.580971 0.46852 -0.38881
71 1 8.58418 4.05552 9.00149 0.940494 0.265758 -0.0447675
72 1 5.20219 7.77374 0.981629 0.265953 0.304139 -0.254761
73 1 2.62317 7.59289 0.463633 -0.897934 0.305327 0.600607
74 1 4.61616 8.14642 0.179281 -0.452167 -0.364842 0.0583297
75 1 0.992629 9.0751 4.23537 0.371389 -0.0356289 -0.687764
76 1 4.57682 1.39108 3.33424 0.809351 -1.12675 0.490341
77 1 4.105 3.43727 7.10922 -0.581298 2.03007 0.923051
78 1 9.10785 6.48561 1.3807 -0.387902 1.27261 1.52085
79 1 4.07194 6.06384 2.86631 0.190113 -1.43143 0.164601
80 1 0.597563 5.70063 3.7208 0.0772508 1.46969 -0.915206
81 1 3.02494 2.08113 3.6971 0.458642 -0.735414 0.64243
82 1 5.35895 9.38935 1.89263 -0.876414 -0.413427 0.705331
83 1 2.60003 8.37714 5.20113 0.403907 0.0531999 0.0960145
84 1 0.49384 6.37198 8.79514 -0.608036 -0.00577408 -0.127147
85 1 2.02238 5.67818 2.62924 -0.0824139 0.0412803 -0.523003
86 1 5.52628 5.04174 0.591146 -0.407399 0.389296 1.04284
87 1 8.00138 5.57836 3.84706 0.47873 1.64017 -1.52192
88 1 1.50454 8.27029 5.38483 0.99671 1.22325 -0.101288
89 1 0.546049 4.602 0.803265 0.34095 -0.519747 0.409083
90 1 6.26883 8.86564 4.50195 0.74708 -1.90107 0.515717
91 1 8.49553 5.30381 7.07896 0.331252 0.766928 0.668726
92 1 1.06447 7.98538 7.55832 -0.143206 -0.713732 0.56816
93 1 1.56981 7.88805 0.0603681 -0.335205 -0.589049 -0.261504
94 1 6.07098 7.25079 0.641514 -1.12996 -0.785037 0.351177
95 1 5.60819 6.06666 3.88956 0.538773 1.12929 0.650592
96 1 2.87498 8.36882 7.91212 0.0193 1.03654 -0.185341
97 1 3.68298 4.93406 0.236173 -0.692447 0.389784 0.765762
98 1 8.32276 8.21843 1.59738 0.419417 1.03074 -0.336924
99 1 0.838965 2.03841 6.42578 -0.507002 1.36478 -0.394612
100 1 4.6515 1.74403 5.96378 0.03864 -0.591526 0.733812
101 1 5.19884 6.87623 2.37343 1.20953 -0.0580746 -0.637891
102 1 7.0438 8.75962 8.24592 -0.465649 -1.29231 0.672294
103 1 1.77134 0.638865 3.11001 -0.50855 1.49668 0.571702
104 1 1.48892 8.86706 9.08775 0.571699 -0.524859 0.274789
105 1 7.86323 0.916362 6.92505 0.0473151 -0.505536 -0.347825
106 1 5.19488 2.71728 5.5292 0.525049 1.29615 -0.254804
107 1 8.65856 7.25665 0.79294 -0.104696 0.815589 -1.28953
108 1 8.77189 8.63568 7.19818 -0.456496 0.921906 -0.524078
109 1 3.60358 4.45583 2.65034 1.43248 0.285399 0.782311
110 1 0.525897 7.01932 7.15916 0.219702 -0.903341 -0.147691
111 1 2.64385 0.0776368 8.01319 0.458069 -0.598481 -0.888514
112 1 3.60201 3.44116 2.69467 -0.706349 -0.126398 1.44069
113 1 0.535612 6.18022 7.77685 0.0441875 0.589789 -0.542417
114 1 3.79069 6.12921 3.86721 0.585049 -0.822903 -0.469798
115 1 4.80172 0.577421 4.94717 -0.0102261 -0.437633 -0.410452
116 1 2.39378 5.71653 8.73921 0.587605 0.168642 -0.549322
117 1 6.20609 7.58235 6.89411 0.575798 0.23337 -0.576017
118 1 7.08256 9.27785 0.764975 -0.279191 0.287611 0.217795
119 1 7.42312 6.54935 0.2314 0.902596 0.241622 -0.204853
120 1 5.51517 9.31159 3.4951 0.35362 -0.319595 -0.196996
121 1 4.85955 8.70265 7.10046 0.465528 0.192042 -0.757356
122 1 0.45851 1.39162 0.0391688 0.558568 0.882126 -0.131109
123 1 1.43282 1.30269 5.0734 0.0540769 -0.321338 0.129583
124 1 0.603626 6.91469 1.27713 -0.518419 -0.536418 -1.87361
125 1 8.4051 3.09903 3.90282 0.230774 0.455937 -0.0934092
126 1 1.41924 3.93652 6.84477 -0.502061 -1.8236 -0.107258
127 1 3.15254 7.08695 3.84077 -0.251403 0.95896 -0.862513
128 1 4.1289 1.05965 8.33517 0.363141 0.458876 0.533112
129 1 4.51945 6.10645 1.92403 1.30773 -0.639568 1.37004
130 1 3.04265 5.60021 7.69971 -0.904673 -0.651838 -0.0538715
131 1 8.86541 0.766733 5.26281 -0.727931 0.509124 -0.385839
132 1 6.25894 5.5904 3.13642 0.183418 -0.478023 0.716596
133 1 7.32394 7.58001 2.02445 -0.169079 0.840832 0.931295
134 1 4.96494 2.11091 7.44957 -0.312943 -0.853571 -0.00713355
135 1 5.69693 2.84707 7.36789 1.29046 -0.106064 0.162124
136 1 2.35788 9.3357 9.07895 1.59639 -1.12561 -0.142627
137 1 3.00727 3.81862 7.81272 0.229075 -0.228359 -0.55573
138 1 4.44657 3.15141 8.98267 0.664417 -0.42218 0.878008
139 1 1.3865 8.11825 3.67214 -0.0252122 0.30894 -0.786473
140 1 1.00727 4.33218 5.02592 0.216628 -0.473307 -0.0155467
141 1 1.94299 8.7229 8.16949 -0.149653 0.409299 0.866539
142 1 3.80162 1.28322 6.54881 0.571243 0.872176 0.0713913
143 1 3.44434 6.49787 6.66849 -0.787645 0.58162 -0.498481
144 1 8.57429 6.97702 6.46839 0.815874 -1.1956 -0.0731793
145 1 4.1259 6.02932 7.36229 -0.0705576 0.960517 -0.38094
146 1 8.04539 7.99782 2.59848 0.719369 -0.421162 -0.597966
147 1 2.53007 8.27922 6.78408 0.61187 0.249307 0.112783
148 1 6.82092 3.45618 7.82297 -0.304025 -0.225032 -0.129323
149 1 0.63689 0.0763233 1.45969 0.321465 0.367517 0.842071
150 1 3.65997 8.64614 5.13048 0.217447 0.253564 0.453774
151 1 0.422547 0.814003 6.23359 0.915391 -1.24166 0.742162
152 1 5.45866 1.07225 1.30359 0.0141683 0.840156 -0.471953
153 1 0.0444353 5.53458 0.941619 -0.00446566 -0.73821 1.04643
154 1 5.78204 8.43809 7.35987 0.303357 -0.15358 -0.553673
155 1 4.70787 7.67189 7.01729 -0.539344 0.305075 0.126514
156 1 3.79729 2.05061 1.1089 0.538779 0.310592 -0.790704
157 1 7.85094 1.98303 7.47778 -0.37466 0.363392 -0.0785834
158 1 1.48428 8.36435 6.64827 0.527861 -0.781051 0.662004
159 1 7.0382 8.84539 6.13854 -0.349225 0.540572 -0.0498648
160 1 7.14857 1.86943 9.37822 0.979908 0.768085 -0.336113
161 1 8.80005 3.55402 1.3243 -0.324143 -0.952832 1.35354
162 1 9.16042 3.98449 0.450833 0.207712 -1.84066 0.62839
163 1 7.88273 1.73157 8.73725 0.781485 0.680486 -0.28226
164 1 2.73619 7.49564 7.49554 0.39002 0.0930172 0.52666
165 1 9.39335 0.297869 9.31172 0.491344 -0.0791846 -0.204409
166 1 7.40513 7.01593 6.33083 -1.35311 0.505219 -0.360169
167 1 7.70601 7.50823 1.05585 -0.877385 -0.964833 -0.186513
168 1 5.64938 3.17027 1.19841 0.562941 0.635544 1.03061
169 1 3.56317 4.93416 6.03521 0.870434 0.121038 -0.695491
170 1 1.50503 6.92414 8.96496 -1.25115 0.483894 -0.0933627
171 1 9.11628 4.79286 3.53226 -0.859225 1.21365 0.179167
172 1 6.24524 8.94212 1.27833 -0.717802 -0.563968 -2.11258
173 1 7.28915 5.9179 3.03722 -0.123854 -0.406052 -0.48126
174 1 1.91309 1.64004 3.53835 0.9553 -1.0923 -0.145321
175 1 3.81171 0.766004 0.950269 0.351259 -1.26643 0.809141
176 1 0.50987 0.72422 4.97672 -0.517381 1.31594 0.706907
177 1 2.32555 1.5189 4.58411 0.145578 -0.528476 0.0459937
178 1 5.36004 7.06464 6.47201 -0.226541 -0.137096 0.282485
179 1 6.0265 6.01689 0.72372 -0.0380678 0.325779 0.579751
180 1 4.02228 9.32428 6.69995 0.699562 -0.577007 0.306052
181 1 8.75185 4.58001 1.25884 0.420479 -0.920489 -0.0328093
182 1 5.5279 1.98069 3.07833 1.93984 0.671921 1.21913
183 1 4.2309 9.20888 1.41596 -0.376345 -1.37595 0.353413
184 1 4.53248 4.55005 8.73222 0.412286 -0.318824 0.493285
185 1 0.599739 3.96618 5.93478 1.0016 -1.28866 0.462547
186 1 7.40577 6.03132 6.01944 -0.0872154 -0.723396 -0.350976
187 1 5.23628 2.38485 2.00416 0.0389442 0.232271 -0.330317
188 1 0.639469 6.65593 5.22328 -0.43857 0.0958675 -0.5268
189 1 2.7391 2.41158 6.38913 -1.00326 1.22855 -0.219783
190 1 8.45923 5.58553 2.85915 -0.0864324 0.327179 -0.156347
191 1 5.706 3.68743 7.97115 -1.03259 -0.414282 0.0464121
192 1 7.42624 5.37189 6.84996 0.400338 0.513559 -0.533227
193 1 5.52692 8.14212 6.39808 0.924583 -1.29696 -0.346348
194 1 2.91337 9.38946 5.39896 -1.22625 -1.01743 0.273698
195 1 7.82728 8.72833 9.06603 -1.141 0.944794 -1.78529
196 1 5.56236 8.24914 3.98866 0.335438 -0.030356 -0.403371
197 1 2.37192 4.84811 4.16965 0.0118356 -0.443155 0.636911
198 1 2.88477 5.52562 6.60069 0.518919 -0.87 -0.665218
199 1 1.67995 7.43683 6.13383 0.347787 0.293964 -0.0990923
200 1 3.7936 8.84127 4.06837 1.15183 -1.37183 -0.267832
201 1 5.59867 7.41463 7.75875 0.113042 -0.625359 -1.52283
202 1 0.871017 3.21158 4.89866 0.834955 0.188634 -0.00147407
203 1 2.47436 6.42382 7.01531 -0.682589 0.653942 1.17895
204 1 5.68698 3.41065 6.24699 0.651323 0.365259 0.843883
205 1 8.992 6.25786 7.04736 -0.65296 0.50211 -0.931637
206 1 5.63278 1.63214 4.05059 -0.749911 0.3492 1.61808
207 1 6.31334 1.31552 8.99788 0.678639 -0.763354 0.234477
208 1 8.02353 5.46534 5.16345 -0.695911 0.969502 0.167359
209 1 6.11937 0.755083 2.14183 0.475174 0.664838 0.0851351
210 1 0.079312 5.27843 7.52676 -0.321214 0.851641 0.297627
211 1 3.596 1.36834 2.9983 -0.0100398 -0.744527 -0.998425
212 1 4.92671 7.9264 2.30407 -0.656132 -0.107883 0.294278
213 1 3.43342 0.539316 5.99584 0.562181 -1.59253 0.00291371
214 1 0.178416 6.42836 0.434629 0.164669 0.936597 0.851626
215 1 1.73093 7.20313 7.2423 -0.630519 0.104363 0.107502
216 1 4.56423 2.14709 8.40396 -0.860351 -0.288204 -0.367713
217 1 6.22005 2.90034 2.12285 -1.10553 0.330453 0.0297493
218 1 3.61033 3.04029 1.73835 -1.20759 -0.0145647 0.522177
219 1 5.05804 5.76683 1.06741 1.00375 -0.55738 0.593116
220 1 7.99476 2.50357 0.131354 -0.163608 1.75989 -1.67024
221 1 2.23482 0.703751 5.31248 0.386439 -0.660352 -0.0794797
222 1 4.52734 3.20096 2.09588 0.436826 -0.0924536 -1.03819
223 1 7.84378 5.84962 2.02375 0.318449 0.399044 -0.873174
224 1 8.17174 5.48236 0.995919 -1.54694 0.396756 -0.624265
225 1 1.95154 3.46156 4.6561 1.27973 -1.00268 0.0952364
226 1 4.93253 5.34936 7.29916 1.26123 -0.184686 -0.113058
227 1 3.7114 1.41973 1.95294 0.94369 0.0443601 -0.874
228 1 6.64572 5.19388 8.78134 -0.376559 -0.183003 0.766304
229 1 2.28207 9.31491 2.56429 -0.520444 0.479572 0.818291
230 1 2.4212 8.84532 0.573869 -0.400523 0.340545 -0.721103
231 1 1.54229 4.91154 7.08657 0.463549 0.592974 0.591054
232 1 5.08605 6.43422 7.33688 -0.945852 -1.49355 -0.964629
233 1 6.88245 7.70618 7.70217 0.771693 0.0164797 0.344527
234 1 0.480882 4.55088 9.19588 -1.0299 1.11446 0.990146
235 1 8.36263 6.16292 4.5117 -0.176199 -0.748405 -0.409149
236 1 2.40226 6.59064 9.33307 1.08946 -0.120295 0.773152
237 1 7.20557 1.94049 6.36881 1.61724 1.11201 -0.00155676
238 1 5.66433 8.11887 0.0510218 -0.805223 -0.16882 0.125676
239 1 2.58894 6.37636 5.97594 -0.50559 0.0468535 -0.954114
240 1 4.42216 9.31563 5.7073 1.4185 -0.298723 0.16373
241 1 7.12763 3.93565 3.71235 0.0982905 1.20044 -0.0796832
242 1 4.65239 3.34073 6.16793 0.054758 -0.792326 0.101582
243 1 5.71532 8.26761 1.72702 0.794906 0.376044 0.558487
244 1 6.62682 3.49113 1.07181 0.562406 -0.820169 -0.496847
245 1 7.99501 2.66892 2.41994 -0.0788173 -0.722335 -0.318536
246 1 8.90035 5.64914 8.71882 0.028354 -0.291874 -0.102752
247 1 8.34512 1.3345 1.37304 0.35453 -0.0908939 0.41235
248 1 8.17783 5.87678 8.01045 1.13801 -0.661432 -1.21615
249 1 1.19714 6.94458 8.03582 -1.37095 -0.844556 0.520899
250 1 3.00651 0.0194665 3.31438 -1.17256 -0.927356 -0.584284
251 1 1.54853 8.25556 2.68936 0.044135 0.223103 1.05481
252 1 4.93776 4.44072 3.87715 -0.454913 0.352545 0.621946
253 1 0.790683 5.55764 6.86765 -0.246135 0.551995 -0.46011
254 1 6.4446 1.631 4.64101 0.180172 -0.454146 -0.548372
255 1 8.06239 7.69829 9.36704 0.414041 -0.142741 0.143581
256 1 8.28915 4.84785 6.21179 -0.250306 0.599387 -0.494794
257 1 3.32416 9.17777 1.04143 -0.0355307 1.04909 -0.372668
258 1 5.70375 0.607848 4.30863 -0.237462 -1.15819 0.696118
259 1 4.68227 5.20789 6.31998 -0.255703 -0.967495 0.223191
260 1 4.32541 8.47406 8.13849 0.321735 -0.110723 0.316775
261 1 7.08157 4.01977 0.286608 0.156351 -0.737627 -0.952618
262 1 4.44121 1.97053 2.53346 0.370407 0.647865 -0.349556
263 1 6.311 2.64196 6.5163 -1.17032 -0.160268 0.564838
264 1 7.74584 4.77621 4.42996 -1.08151 -0.69149 0.63975
265 1 7.86109 3.76096 4.62778 0.0476578 -0.348755 -0.374915
266 1 8.10418 4.70487 3.37256 0.278785 -0.642275 -0.266458
267 1 2.8017 0.831668 2.45456 -0.327075 -0.243986 0.504885
268 1 5.21955 3.80406 9.06009 -0.0493492 1.34308 0.124157
269 1 1.89268 5.29768 7.97917 0.393177 -0.430604 0.032758
270 1 8.67831 0.74627 6.29774 0.460508 0.294202 0.0541229
271 1 2.20691 2.18058 0.43362 0.834538 -0.187707 0.956608
272 1 5.84022 2.00024 5.79187 -0.560771 -0.54969 0.514311
273 1 0.102935 5.42547 2.77931 0.574267 -0.24646 -0.29637
274 1 5.5673 7.0842 8.86606 -0.0631653 -0.226007 0.733399
275 1 3.15227 5.86682 0.201421 0.07464 -0.412264 -1.0504
276 1 8.81382 7.40969 2.8303 0.251891 1.02023 0.157616
277 1 8.68893 5.11402 4.43923 1.80268 0.742906 0.840732
278 1 2.82023 2.18827 7.69497 -0.458612 -0.153132 -0.0896848
279 1 0.922025 0.403056 0.504378 -0.743884 0.564152 -0.0594335
280 1 5.96911 4.0875 0.353985 0.625892 -0.950114 0.462455
281 1 6.47816 7.5863 3.6075 0.106829 0.245956 -1.02093
282 1 4.35687 8.95937 2.41356 0.657041 0.264971 -0.830626
283 1 8.66031 9.25782 4.89048 -0.249601 0.33003 0.023882
284 1 5.15078 7.98522 8.59281 0.0390507 -0.211151 -0.805608
285 1 3.53807 5.28455 3.25078 0.418804 -0.379148 1.27324
286 1 0.8 9.18935 6.38258 -1.21956 0.662925 0.690314
287 1 4.03337 5.8762 4.79253 -0.495585 0.780867 0.885203
288 1 0.935233 1.96449 1.60275 0.683951 1.19903 -0.191508
289 1 6.04842 2.87197 3.08866 0.746375 -0.309947 1.02744
290 1 2.44955 8.40482 3.09868 0.268219 0.513827 -0.317266
291 1 2.96077 9.06232 6.37855 -0.695267 0.298746 -0.73794
292 1 2.45041 3.21672 5.57822 0.145437 0.507977 -0.0825708
293 1 3.79754 0.418796 2.70543 0.234592 0.463122 0.0749505
294 1 1.59071 5.03007 8.91272 0.326169 -1.74 0.43577
295 1 4.23897 2.98677 5.29171 -0.186587 -0.130344 0.304403
296 1 5.54654 4.60927 7.61655 0.320822 0.783158 -0.216
297 1 8.03199 5.00202 8.74823 -0.494432 0.928449 1.18841
298 1 3.02486 6.3775 4.9444 0.813994 0.166136 -0.247117
299 1 7.25458 8.64842 1.734 -0.546346 0.989197 -0.165914
300 1 6.5878 3.68419 2.77336 -0.76159 -1.59996 -0.0554065
301 1 0.129839 3.38177 6.78846 0.101403 -0.938053 -0.669829
302 1 6.62868 0.381333 5.84298 -0.105537 1.16341 -0.240414
303 1 4.4317 6.342 6.3837 0.538641 -1.49659 0.651204
304 1 7.38386 2.75602 3.9049 0.540505 0.0628187 -0.263993
305 1 2.92234 0.513377 0.329202 -0.733063 -0.460781 -0.188839
306 1 8.88204 6.87469 3.74968 0.820906 -0.338421 -0.730627
307 1 6.24316 7.20716 1.88798 -1.13335 -0.100921 -1.06094
308 1 5.70944 0.895718 3.21248 -0.336328 0.0574659 -0.469701
309 1 2.55479 4.69028 7.29877 0.767715 -0.238872 -0.549544
310 1 1.76238 0.671001 4.16802 -0.774485 0.100807 -1.56085
311 1 5.64489 0.906927 0.308963 -0.436316 -0.10808 -0.771656
312 1 0.472372 3.77086 1.36705 -0.551166 0.940858 0.283901
313 1 7.26335 3.31637 2.07125 -0.156564 -0.096566 -0.413348
314 1 5.68847 4.74963 8.87694 0.5455 0.0217261 -0.214705
315 1 4.25393 4.35126 6.56257 -0.306857 -0.377096 -0.629062
316 1 1.86541 0.437202 1.7859 -1.09506 -0.0430741 0.426974
317 1 1.47588 1.94107 9.01922 -1.06224 -1.72816 -0.707486
318 1 8.95028 6.55568 8.06568 0.36894 -0.22148 0.12332
319 1 2.07929 9.15613 7.03568 0.12682 0.453441 0.484962
320 1 7.07829 0.00453172 3.97891 -0.324907 0.354039 0.837461
321 1 3.79467 4.12657 3.59841 0.609309 -0.814448 0.0714829
322 1 8.86111 7.37267 7.39492 0.304686 -0.689812 0.417653
323 1 4.65444 8.65395 3.37928 -0.321415 -1.31947 -0.604361
324 1 6.90708 4.30226 1.8049 -0.270362 0.435556 0.92955
325 1 6.14616 4.64303 2.528 0.957203 -0.264499 -0.0731268
326 1 0.630567 7.31647 5.97208 -0.827812 -0.0822269 0.892589
327 1 3.91891 5.44158 8.65588 0.364833 0.501582 0.0226751
328 1 4.07802 3.70393 1.1968 -0.0607848 0.327129 -0.555231
329 1 1.32602 3.31523 1.91993 0.434318 -0.324894 -1.21575
330 1 2.88493 2.48635 1.11312 -0.286517 -0.342164 1.15454
331 1 3.98202 3.75771 8.22457 -0.757461 1.33262 0.560391
332 1 0.593085 1.89068 8.51899 0.754043 -0.446323 -0.421025
333 1 5.17108 4.81001 2.94293 0.598687 -0.5199 -0.241272
334 1 3.7222 7.71751 7.72443 0.759665 0.121263 -0.559077
335 1 4.67879 2.79567 1.15355 0.211735 1.01684 -0.012021
336 1 8.15118 6.55922 5.42459 -0.116021 1.24957 -0.581571
337 1 5.62985 6.30827 8.19757 0.215755 -0.64018 -0.327446
338 1 8.49835 1.74234 5.08278 -0.149734 0.518755 0.477279
339 1 7.58636 6.81384 8.10256 0.960753 -0.06902 -1.03139
340 1 8.44695 7.18375 1.89106 -0.938423 1.60162 -0.18731
341 1 9.29651 8.03707 0.283274 -0.0750028 -0.10154 -0.383752
342 1 4.63426 7.16715 7.92868 -0.64172 1.55544 -0.780357
343 1 1.80944 4.57625 3.09031 0.096673 0.57397 1.03823
344 1 5.49009 0.0525121 5.56866 -0.68789 -0.379209 -1.14219
345 1 8.5328 7.93702 3.81855 -0.463176 -0.270143 -0.0229686
346 1 8.98691 5.02797 0.155461 0.201014 0.171057 0.00703932
347 1 2.18685 3.26078 1.23188 0.162443 -0.632088 -0.336764
348 1 5.52142 2.7958 8.71586 0.339882 -1.11254 0.455826
349 1 5.25384 2.85179 0.303067 -1.01223 0.944275 0.600395
350 1 5.88921 6.66885 3.07399 0.872516 -0.279519 -1.56318
351 1 8.05577 3.53263 0.324308 -0.164509 -0.0721301 -0.498638
352 1 4.18096 6.14764 0.15837 1.32053 -0.0836846 0.0183891
353 1 0.0124005 3.2781 4.20641 0.851571 -0.157865 -0.0226211
354 1 1.02516 8.99763 8.02242 -0.741061 -0.764872 0.122887
355 1 7.34859 5.13846 7.9757 -0.540379 -0.365744 0.266348
356 1 0.866893 4.52917 7.93427 0.884903 -0.393982 -0.549851
357 1 8.44702 9.05 2.25118 -1.07358 1.03555 -0.0892383
358 1 5.34876 5.19438 1.82443 -0.0563155 -0.320706 -0.392976
359 1 3.48832 1.82418 8.53314 1.38527 0.0771019 -0.121853
360 1 4.2455 3.93063 4.56764 -0.0789176 -1.24566 -0.00786836
361 1 1.29379 2.44638 2.56955 0.880925 0.106424 -1.05563
362 1 5.5286 3.77672 3.26019 0.419675 0.0352739 0.190414
363 1 7.60346 5.54597 0.120577 0.431054 0.192467 0.302337
364 1 1.32236 1.63436 0.593621 -1.60894 -0.0125997 0.720438
365 1 1.28198 3.94208 8.78281 0.806256 0.796767 0.255136
366 1 6.56986 5.4779 6.20273 -0.268149 -0.258427 -0.273571
367 1 1.09258 5.26252 2.25941 -1.00797 0.616581 -0.259734
368 1 3.00201 8.1666 1.34473 -0.542431 0.22293 0.0949891
369 1 6.305 3.52905 8.88566 1.00854 0.272373 -0.872752
370 1 6.10956 1.764 1.73361 -0.205981 0.66679 -1.33821
371 1 9.29341 7.52655 4.51423 -0.587149 -0.432054 1.69781
372 1 2.29795 4.7206 6.25651 -0.155511 0.0811387 0.0220545
373 1 6.78972 0.0720553 9.03902 0.556377 0.683541 -0.221366
374 1 6.26762 6.19401 4.73589 0.131002 -0.108793 -0.736563
375 1 5.66517 6.61983 5.52942 1.31849 0.595816 -0.663554
376 1 4.27889 2.33046 0.150241 -0.859001 -0.137321 -1.87244
377 1 1.39166 5.98067 8.48163 0.0491195 0.616706 0.894284
378 1 6.355 8.92324 2.35301 0.764212 0.722779 0.464738
379 1 8.16923 4.42941 7.91789 1.04808 -1.04826 -0.31007
380 1 7.85088 6.7684 2.63302 0.022087 -0.477412 0.227286
381 1 3.27812 0.494926 8.77011 1.14749 -0.477727 -0.233566
382 1 6.87531 7.02093 2.83124 1.13234 1.43663 -0.311075
383 1 6.53921 5.11599 0.395111 -0.856732 0.877251 -0.0711085
384 1 6.9506 0.217976 1.75195 0.924505 -0.677614 0.575222
385 1 5.11582 9.09949 9.17032 1.06646 0.0435182 0.669362
386 1 8.45569 1.05352 3.18391 1.06136 0.391766 -0.0181411
387 1 9.32214 0.129975 4.17972 -0.949282 -0.105568 0.704683
388 1 8.1874 1.38787 0.301909 -0.564164 -0.572767 1.67408
389 1 7.97848 2.69272 4.92638 -0.869747 -0.555231 0.672958
390 1 2.66259 5.0028 2.24706 0.0358286 0.120669 0.551454
391 1 4.35705 0.0569003 8.45202 -0.948347 -0.0390998 0.235317
392 1 9.13867 2.6952 5.17991 1.29372 0.968362 1.29026
393 1 3.57864 7.38926 1.06708 0.510451 -0.266128 -0.495104
394 1 9.14506 4.65251 8.29474 -1.11047 -0.00284575 1.1222
395 1 7.7899 9.25003 7.03446 0.274614 -0.249834 0.090365
396 1 3.39276 3.17092 3.89368 1.09712 1.16453 0.802973
397 1 4.99309 3.81907 0.734489 0.624451 0.00251721 0.911199
398 1 7.81654 4.8516 1.89873 -0.559043 -0.392996 -0.450589
399 1 0.635473 3.20446 2.80561 0.935321 -0.086487 -0.255957
400 1 7.34763 9.14814 2.61118 -0.847269 0.081491 -0.870933
401 1 5.23543 1.66709 4.97067 0.556078 -0.446612 -0.479928
402 1 0.548061 0.412152 3.34101 -0.395275 -0.440057 0.0286201
403 1 0.267809 7.06988 2.23426 0.125542 -0.757637 -0.71812
404 1 7.27946 7.27746 4.344 0.81372 0.899584 -0.967691
405 1 3.11345 0.435551 7.07455 0.0138764 1.52697 -0.159588
406 1 4.63973 1.7392 1.51912 -0.507358 -0.526063 1.46707
407 1 5.20413 1.31363 2.27649 -0.287221 -0.34854 0.887979
408 1 1.35419 2.64993 0.872533 0.184686 0.737815 0.169381
409 1 2.21594 2.94351 3.77571 0.532406 1.04822 -0.111775
410 1 0.441941 1.93094 7.50761 0.0727817 0.273303 -0.95865
411 1 6.00093 0.93024 5.29629 0.887893 0.136767 -1.1405
412 1 7.51712 1.60206 4.77075 -0.22441 -0.438541 0.152083
413 1 3.843 7.84595 8.81228 -1.32312 0.404823 -0.293578
414 1 8.73305 4.10647 4.31383 0.00488151 -2.33304 -1.46367
415 1 1.64374 3.00677 9.31424 0.485323 -0.27086 -0.242325
416 1 7.07451 1.20826 1.72941 -0.450179 0.347191 0.154981
417 1 1.66094 6.28899 5.43726 1.1205 -1.70824 0.116068
418 1 4.87907 0.307649 0.669838 -1.02918 0.797416 0.182532
419 1 7.77664 3.37392 3.06823 -0.479223 0.405047 0.751452
420 1 1.09409 2.16897 5.4464 1.08193 -1.24044 -0.640965
421 1 6.09932 8.60577 5.54227 -0.737238 0.0343506 -0.396477
422 1 4.42822 3.25397 3.72453 -0.26245 0.411195 -0.702451
423 1 9.02929 2.84569 2.0081 -0.351577 0.952202 -0.18766
424 1 7.89384 0.511555 4.93688 -0.152979 1.41404 -0.207095
425 1 2.28301 2.16856 5.38059 -0.809161 0.113392 0.0826129
426 1 8.41844 0.795244 8.90628 -0.777325 0.0631706 -0.979764
427 1 6.59744 4.87768 7.23875 0.111991 0.456975 -1.2998
428 1 4.09236 0.670517 7.40916 0.200808 -0.0857932 -0.798699
429 1 4.39725 7.14844 0.567299 0.127022 0.0313651 0.317838
430 1 3.12953 8.06684 3.84139 0.143725 0.117834 -1.44105
431 1 9.19917 2.5508 6.21621 -0.698793 0.147263 -1.57973
432 1 5.85664 0.717726 7.04782 -0.0750331 -0.415936 -0.198881
433 1 3.69576 9.08568 7.69538 -0.0609151 0.616521 -0.410684
434 1 6.30949 5.14954 1.46322 -0.0537329 -1.58592 0.663585
435 1 0.269901 2.12455 2.51983 -0.453157 -0.0826892 0.482982
436 1 9.08538 1.83351 0.548153 -0.996605 0.242929 -1.01077
437 1 7.06556 5.83585 1.13007 -0.334331 -1.17008 0.972275
438 1 7.81913 0.22698 0.162793 -1.18817 -0.67791 0.213876
439 1 5.02196 7.67258 3.25089 -0.747458 -0.834048 0.153943
440 1 1.19619 6.25618 2.64316 0.122092 0.215621 0.533953
441 1 6.48424 2.20849 3.76172 0.109917 -1.1722 -0.209368
442 1 6.23632 3.8462 7.13784 0.164419 -0.870502 0.401732
443 1 3.94366 5.57824 1.02794 -0.367655 -1.20464 -0.870105
444 1 7.8218 6.3313 6.92525 -1.58394 -1.04944 0.98152
445 1 4.74996 0.781105 9.19425 0.421908 0.252274 -0.807207
446 1 7.36586 4.16737 7.38824 1.0183 0.611018 0.208398
447 1 3.56195 5.5887 2.0855 0.288821 -0.370708 -0.626766
448 1 6.96019 8.57292 7.18373 -0.0157253 -0.404103 0.133167
449 1 9.21354 9.35228 8.20936 -1.05454 1.26529 1.35136
450 1 2.12669 4.04431 0.12202 0.527727 -0.461104 -0.870615
451 1 5.34367 8.94242 8.10549 -0.0571322 0.226507 -0.853126
452 1 6.36488 6.65863 6.20367 1.33473 0.734764 -0.137006
453 1 4.39605 7.14952 1.65268 -0.627869 0.0467429 -0.155366
454 1 4.54861 6.81511 5.4542 -1.37255 0.302494 0.113347
455 1 6.89693 5.27308 5.23719 0.520776 -0.611777 0.790187
456 1 7.3297 6.36998 4.81339 1.52159 -0.0837795 0.200881
457 1 5.86165 7.78316 2.69475 -0.457485 -0.864293 1.48869
458 1 0.212569 6.63214 3.18898 -0.588001 -0.0254953 -0.393145
459 1 9.31571 7.73759 1.44951 -0.309362 -0.448569 0.82907
460 1 7.32199 0.928712 8.92194 0.0665833 -0.0962347 -1.10586
461 1 0.775438 4.77243 3.26317 -0.313834 -0.671833 0.0100006
462 1 3.8467 7.90197 2.16522 -0.617074 -1.3623 0.535754
463 1 1.93194 0.503222 0.72408 -0.0652772 0.241683 0.541158
464 1 8.98297 4.13198 6.06649 0.363622 -0.0427771 0.522126
465 1 7.87335 8.27941 7.66384 0.233216 0.613838 0.367005
466 1 7.07218 8.23478 4.11128 0.226056 0.690606 -0.276695
467 1 6.33972 1.58212 0.647055 -0.104942 0.844319 0.346794
468 1 7.89589 8.7802 3.34283 0.0689486 0.763368 -0.998328
469 1 1.10794 2.83306 6.99478 0.251505 -0.560629 -0.464601
470 1 0.96789 1.16199 7.91657 -0.587671 -0.106627 -0.202911
471 1 2.00541 7.67932 8.35311 0.429184 -0.160392 -0.753612
472 1 4.74354 5.80318 5.48559 1.60342 -0.247611 0.0999077
473 1 8.68825 3.4934 8.13484 0.248697 1.4315 -0.555944
474 1 6.06419 8.79897 8.74622 1.18427 -0.394871 0.503153
475 1 2.99777 1.15177 7.93377 0.12851 0.49728 0.653485
476 1 0.0805422 0.943771 8.52609 -0.865405 -1.131 0.235109
477 1 7.31505 7.85447 8.59606 -0.365773 -1.25128 -0.708661
478 1 1.61428 9.07414 3.42969 -0.639438 0.21779 -1.23027
479 1 1.6261 6.36423 1.6874 -0.483715 1.82141 0.440794
480 1 5.38766 5.98119 6.26366 1.17631 1.14071 -0.0183332
481 1 3.41026 6.38292 1.14181 -0.867476 0.415038 -0.116237
482 1 5.63868 7.15645 3.98827 0.632321 0.689633 -0.386442
483 1 4.52058 4.70088 0.868397 -0.511104 -0.153176 -1.41742
484 1 7.79449 3.9716 1.23514 0.366214 0.810208 0.214398
485 1 8.55423 6.06549 0.278833 1.78715 -0.888542 0.973269
486 1 1.60921 2.31086 4.45275 0.0258241 0.271247 0.831832
487 1 0.598194 5.52476 4.82137 -0.585553 0.191356 -0.0372892
488 1 6.1569 3.34439 3.98969 1.07828 0.780569 -0.597969
489 1 0.394647 7.98715 2.60483 0.482635 -0.243378 -0.0870818
490 1 7.68326 7.48213 3.43331 1.08134 -0.994091 -1.44833
491 1 6.68255 6.54902 3.78182 0.537651 -0.483957 0.0360561
492 1 1.66255 6.96923 0.674612 2.09051 0.589759 0.524847
493 1 7.97527 6.46235 1.13679 0.229539 -0.981093 0.394375
494 1 5.96081 3.56289 5.27783 0.385323 0.410108 -0.708989
495 1 2.35039 2.45233 2.87094 0.33015 0.741387 -0.126198
496 1 2.67003 3.6125 3.10497 -0.789647 -1.63538 0.0829602
497 1 7.25156 6.0914 8.73515 -0.140377 0.455873 0.186964
498 1 7.02071 1.65633 8.12903 0.00150329 1.46906 0.173455
499 1 4.10382 2.31057 3.59715 0.0815948 -0.0283352 -0.346765
500 1 4.77066 5.30508 9.36074 0.553943 -0.0396721 0.295055
501 1 6.96384 4.47231 6.40574 -0.442997 1.44908 -0.526168
502 1 9.33561 3.77042 2.29231 0.406108 0.395708 -1.42014
503 1 3.31189 8.0175 5.89603 -0.337972 0.543446 -0.717941
504 1 4.07606 7.72948 3.69945 -0.851416 -0.891416 0.340568
505 1 7.77006 3.16239 8.73209 0.0962249 0.160828 0.40486
506 1 1.74972 5.66197 6.32796 -0.819344 -0.997996 0.851811
507 1 6.91345 0.302494 6.86114 -0.989888 -0.980606 -0.295232
508 1 4.7146 5.48362 3.59534 -0.0654177 -0.657918 0.654013
509 1 3.63026 3.10208 0.53664 0.0923898 -0.802135 -0.533549
510 1 4.74652 4.39959 1.95464 -0.567814 -0.965207 1.47312
511 1 5.04554 0.511635 7.74888 -0.297126 1.57574 -1.17159
512 1 6.41451 6.6377 9.25757 -1.45334 -0.221669 0.975212
513 1 0.779358 7.92575 0.82397 -0.733426 -0.271824 0.87832
514 1 1.60474 5.51424 3.70126 -0.722983 1.43579 -1.35582