ITEM: TIMESTEP
93660000
ITEM: NUMBER OF ATOMS
1000
ITEM: BOX BOUNDS pp pp pp
0.0000000000000000e+00 9.4000000000000004e+00
0.0000000000000000e+00 9.4000000000000004e+00
0.0000000000000000e+00 9.4000000000000004e+00
ITEM: ATOMS id type x y z vx vy vz
1 1 3.56867 6.21338 2.53366 0.203953 0.420993 0.229277
2 1 3.62285 4.89794 3.66867 0.204751 0.176674 -0.329357
3 1 3.16385 2.88356 4.0367 -0.87858 1.33846 -0.272673
4 1 2.60273 3.97793 8.32847 -0.0476038 -0.717312 -1.04176
5 1 1.83144 0.0887477 3.09699 -0.560021 -1.07846 -0.144592
6 1 3.34408 6.87472 5.25332 -0.676729 0.345188 -0.942685
7 1 6.43986 5.25959 7.12246 0.227221 -1.37879 0.380677
8 1 8.77955 1.10797 7.41019 0.197311 0.950087 0.250312
9 1 0.668072 6.84641 6.78396 -0.985872 0.590151 1.1161
10 1 0.106693 6.16433 0.974599 1.15437 0.351176 -0.843163
11 1 1.66601 8.8443 4.90745 -0.615879 1.12723 -0.800732
12 1 9.10426 1.83919 7.97343 -0.318371 0.993126 -0.127689
13 1 8.66109 7.95979 7.50625 0.211974 0.722299 0.526315
14 1 2.14317 3.87544 6.84147 0.035589 0.711018 -0.580496
15 1 9.00432 0.0999484 0.0691425 0.933069 0.0684366 0.26187
16 1 8.63852 6.61959 8.26442 -0.341572 -1.17624 0.40022
17 1 6.69101 9.05039 1.4223 -0.280738 0.571492 -0.7556
18 1 6.18753 7.85855 4.40655 0.0603902 -0.139669 0.152953
19 1 8.67055 6.99499 2.11042 -1.3774 0.447122 0.704697
20 1 7.25943 5.1566 8.84154 -1.45399 -0.108052 0.882294
21 1 9.24291 3.32484 0.211562 0.366812 -0.367346 0.301586
22 1 7.1587 8.56276 0.614024 -0.796843 -0.73643 -0.586083
23 1 6.30465 0.136188 8.22955 0.605098 0.74956 0.397953
24 1 1.54598 5.15578 9.00521 -0.59148 0.490942 -0.989284
25 1 3.11176 7.46106 1.51051 -0.407378 -0.853113 -0.804674
26 1 5.76012 0.514098 2.81326 0.917293 0.367355 -0.00969203
27 1 7.42713 3.64882 7.62663 0.63541 0.385218 0.554944
28 1 5.78458 2.99457 2.90232 0.567785 1.50003 0.0189928
29 1 8.9644 4.68 6.99191 -0.0331903 -0.344321 0.798417
30 1 8.83857 1.78622 3.8258 -1.29906 0.450006 0.513697
31 1 9.04347 0.84438 1.8997 0.417086 0.114936 0.283291
32 1 5.94888 4.83742 6.3298 -1.11003 -0.592263 1.21826
33 1 8.63639 7.94346 1.30512 -0.671605 -0.890794 0.018914
34 1 3.0614 8.41142 0.994775 0.538574 0.247342 0.0283612
35 1 4.76765 5.44762 6.40627 -0.0824214 -0.307165 -0.229472
36 1 3.62238 8.79757 3.89862 -0.355235 0.462486 0.0321284
37 1 8.96207 5.815 9.01311 -1.62084 -0.264662 -0.16689
38 1 0.996853 8.99651 2.65805 -0.986222 0.460942 0.679646
39 1 4.91419 7.39647 3.75706 -0.77112 -0.313296 -0.441167
40 1 5.13586 0.146158 8.29769 1.44701 -0.14252 -0.836483
41 1 3.4096 8.98024 5.98184 0.237118 -1.03041 -0.430155
42 1 1.17696 0.0792721 4.1319 0.139241 0.260647 -0.493597
43 1 4.8008 1.03755 7.88981 -0.168563 -0.0398427 -1.00523
44 1 3.70543 2.24373 3.10048 0.165151 0.655951 -0.17582
45 1 1.11526 7.17964 8.75548 0.163065 0.0238231 0.915195
46 1 0.794091 4.35499 4.89483 0.05211 0.327865 1.18701
47 1 5.8587 8.47504 1.98308 -0.263034 -1.06803 -0.124127
48 1 5.27598 1.05814 5.42823 -0.526833 -0.824529 -0.859194
49 1 2.39554 4.17193 5.23126 -0.0035632 0.218811 0.684056
50 1 5.46918 1.45694 3.32316 0.473793 -1.19723 -0.917547
51 1 6.01138 6.23649 1.88903 0.512944 -0.0549314 -0.285415
52 1 4.88585 7.58605 0.642532 -0.391742 -0.803303 -0.429868
53 1 8.14424 0.829241 0.0377795 -0.113558 -0.018073 -1.08489
54 1 7.68412 0.514639 6.12528 0.11034 0.359402 0.0797898
55 1 0.981223 5.28497 3.13985 -1.2334 0.764678 -0.516091
56 1 2.51415 7.33231 5.14358 -0.217627 0.830545 -0.345857
57 1 3.09289 4.84305 5.79509 0.202286 0.433633 -0.386151
58 1 4.14715 5.32321 2.84962 -0.118161 0.234017 0.287392
59 1 5.09844 6.05899 7.20519 0.566587 1.61563 -0.0930284
60 1 3.63347 3.84596 3.95178 2.07011 -1.00246 0.497868
61 1 4.5583 4.21421 3.4188 -1.04616 -0.2252 1.33992
62 1 4.1942 7.21679 1.39693 -1.04734 -0.302083 -0.0980807
63 1 0.0373622 3.36435 4.79691 -1.69514 -0.21472 -0.371577
64 1 1.91985 8.4325 2.74929 -0.345937 -0.836347 0.78101
65 1 6.60489 0.145686 2.37049 0.316654 -0.494144 -0.454698
66 1 1.77211 0.242016 8.81307 0.0191669 0.792582 -0.243107
67 1 0.433151 4.79366 6.47648 -0.482758 -0.205334 -0.499138
68 1 5.02519 7.60858 6.40137 -0.084901 -0.408564 1.44237
69 1 8.80322 6.93557 3.50495 -0.5309 0.342092 1.234
70 1 8.95624 4.18443 4.16934 -0.269204 -0.251089 -0.0303982
71 1 7.17551 8.22639 7.08834 -0.30499 1.13381 0.404134
72 1 2.01684 2.67449 9.31756 -0.35495 0.280751 0.436993
73 1 3.62342 5.34652 1.91926 0.0302639 0.177771 -0.0559534
74 1 6.61392 1.00245 3.35757 -0.759265 -0.483901 0.693284
75 1 6.6681 2.69712 2.2788 -0.172124 0.535102 0.804274
76 1 7.16223 6.05385 6.82063 -0.583945 0.22206 0.348625
77 1 3.05704 3.26973 5.19371 -0.31849 -0.195464 0.117198
78 1 4.44249 6.45887 0.75243 0.123793 -0.363752 -0.937664
79 1 7.82033 8.69574 6.37021 1.31869 0.212245 -0.246391
80 1 0.478417 1.95044 0.386424 0.0491342 0.0312449 1.71919
81 1 3.54083 3.45497 8.06664 0.590171 0.801036 -0.21168
82 1 4.56964 -0.00733528 0.611457 -0.89979 -0.915889 -0.316998
83 1 6.80277 7.58304 5.30492 -0.600756 1.33201 0.58472
84 1 0.968291 5.73834 7.11753 0.16742 -0.861647 0.21545
85 1 8.39832 3.33246 7.59337 -0.674553 -1.48205 -0.748511
86 1 5.40912 5.04679 7.20669 -0.101108 -0.703679 -1.22809
87 1 1.20205 1.51203 5.56964 0.489935 0.272329 0.230886
88 1 7.47934 0.721197 2.92878 -0.214042 0.118572 -1.15869
89 1 4.88135 7.01811 2.21178 0.540729 -1.61966 0.774042
90 1 5.31784 5.88958 3.4975 0.142041 0.455435 -0.360916
91 1 1.07169 6.84323 2.8074 -0.553409 -0.378998 0.0450855
92 1 8.26691 1.13684 1.13103 -0.368212 -1.05913 -1.02736
93 1 3.50575 1.33036 4.86648 1.87861 0.373621 -0.334237
94 1 2.62061 5.186 4.81178 -0.216296 -0.0464404 -0.102303
95 1 6.72504 6.88328 4.31496 0.113289 -1.2991 -0.523206
96 1 5.99136 8.02229 6.68638 0.859998 -0.897152 0.738165
97 1 0.594667 3.42466 8.85699 0.687413 -0.055111 -0.422769
98 1 5.0565 8.67105 1.38246 -0.552469 -0.369579 0.0469057
99 1 6.6792 0.60672 5.65696 0.419654 0.928441 -0.905425
100 1 4.73168 4.63619 9.39475 -0.0294641 0.710011 0.826569
101 1 5.69141 4.82537 8.83665 0.920811 -0.358524 0.252428
102 1 2.25726 3.67274 3.32173 0.318532 0.937904 0.646842
103 1 5.5058 6.86886 3.015 -0.223914 0.754861 -0.558898
104 1 6.78046 7.1395 6.49123 -0.514755 0.0172228 -0.196999
105 1 0.344196 5.73889 4.0049 1.91423 -0.205961 -0.115316
106 1 8.14859 8.53705 4.86482 0.0783614 0.546291 -0.77814
107 1 4.99901 4.8924 4.02257 -0.607205 1.15436 1.18905
108 1 7.53096 0.042004 2.02656 -0.564922 0.38994 -0.14584
109 1 7.37853 5.32796 7.63137 -0.122036 -0.635442 0.0560015
110 1 8.70222 6.85984 7.30185 -1.6494 -0.174336 -0.552115
111 1 6.14064 8.57307 0.309724 0.405241 -0.0569005 -1.15187
112 1 7.34459 2.20643 0.231097 -0.394245 -0.204207 0.359802
113 1 4.23684 4.12458 8.63138 -0.434566 0.738635 0.3914
114 1 5.58237 4.0428 3.05573 -0.785633 0.982351 -0.641931
115 1 5.48921 2.04586 2.49255 0.281712 0.886776 -0.525397
116 1 5.74885 2.57566 9.12836 -0.420918 -0.0379145 0.551335
117 1 7.88289 9.11561 0.14203 2.23086 -0.406298 -1.50075
118 1 7.93225 3.31012 1.40266 -0.999507 -0.239046 -1.04696
119 1 4.45267 1.76065 5.43825 -0.349451 0.535826 0.287392
120 1 2.09199 8.66825 8.65428 -0.974548 0.134837 0.00871165
121 1 3.69768 2.50812 4.86987 0.820049 -0.224894 -0.303954
122 1 3.35951 8.06661 4.64893 1.08418 -0.100339 -0.864127
123 1 4.55706 5.96267 9.10163 0.291592 1.00342 0.987972
124 1 9.4351 9.09308 6.17519 1.27798 -0.00065199 0.375778
125 1 3.92661 4.1954 5.66455 1.04427 -0.342135 0.894725
126 1 6.15053 3.65238 2.08361 0.908254 -0.0964781 0.148032
127 1 5.5194 8.70073 5.89503 0.832962 -0.189506 -0.232773
128 1 7.32188 6.07604 4.79688 -0.535723 1.25862 0.0312541
129 1 9.42078 8.01126 0.524401 0.514611 -1.03049 0.5043
130 1 3.51771 3.2237 0.806846 0.00745321 -1.32774 0.175392
131 1 7.54233 1.30325 3.76404 0.957299 0.466108 0.834269
132 1 6.97239 8.58111 2.48568 0.368603 -0.849688 1.63522
133 1 4.70698 2.59089 3.00405 -0.547531 1.29615 0.0822164
134 1 0.375222 8.79528 9.03931 0.396285 -0.828185 0.0115274
135 1 8.37686 6.66406 4.63543 -1.15588 0.00580502 0.2197
136 1 7.07088 2.63936 7.20567 0.539665 0.228239 0.658754
137 1 2.10962 4.72505 6.23123 0.811901 -0.225916 0.313028
138 1 5.82648 7.76072 5.54513 0.352016 -0.277812 -0.349696
139 1 4.86709 2.5512 4.73986 0.982176 1.56815 -0.375856
140 1 9.44298 4.21059 9.14474 0.923231 0.535864 0.385855
141 1 2.92526 7.27189 4.20009 -0.134121 0.258778 0.481523
142 1 5.90912 0.173092 6.24091 -0.135384 -0.175976 -0.431454
143 1 5.38968 1.71058 0.26073 -0.275417 -0.0934439 -0.466625
144 1 4.44673 0.929038 4.69127 0.58855 -1.37601 -0.642975
145 1 0.917198 2.51478 8.93355 0.358516 0.697275 0.2545
146 1 1.13337 2.44987 2.36483 -0.918776 -0.210521 -0.401853
147 1 8.06953 2.31182 7.22709 -0.345384 0.9868 -0.463467
148 1 0.392425 6.81216 3.80966 -0.844149 -0.294213 0.344326
149 1 3.86832 0.966996 2.04261 0.441548 -0.358229 0.609515
150 1 0.514474 7.43479 4.97904 1.95807 0.0354995 -1.02461
151 1 7.64132 7.70541 6.11643 1.1177 0.705407 0.441395
152 1 5.86534 0.747106 4.14903 -0.662669 -0.971121 -0.203058
153 1 1.42006 6.86661 0.309211 0.995598 -0.258151 0.0598013
154 1 3.78575 5.22624 0.0464987 0.143734 -0.130165 -0.241601
155 1 0.135614 0.0960075 4.39604 -0.203246 1.61144 1.766
156 1 5.94654 2.4751 7.41464 0.241539 0.144566 0.787418
157 1 6.73067 5.80648 0.0705868 -0.443687 -0.117136 -0.356189
158 1 2.59457 8.59446 7.53306 -0.158312 0.414364 -0.552264
159 1 1.7911 6.19305 7.61683 -0.270199 0.83773 -0.604594
160 1 6.08018 6.42749 6.85931 -0.22944 0.0424549 0.51492
161 1 2.5511 3.24129 7.56567 1.05803 0.699616 -0.0319211
162 1 0.537648 3.09501 2.92044 -0.435328 -0.135405 0.140076
163 1 6.25969 2.21166 6.24082 -2.17514 0.448668 -0.694463
164 1 2.9142 0.371323 7.38525 0.279201 -0.643701 -0.364592
165 1 0.0876269 5.66415 5.64538 -1.17721 0.294547 0.269579
166 1 6.86685 6.73569 7.50436 0.355266 -0.312838 -1.13454
167 1 3.60505 9.04372 0.282058 0.293462 1.29307 0.0784646
168 1 7.50891 5.30116 1.83047 -0.257125 -0.802803 -0.233494
169 1 1.44721 4.65139 0.475635 -0.571301 1.22742 -0.463682
170 1 7.18223 2.79331 3.19314 -0.385954 -0.27772 -0.747613
171 1 6.89242 9.2678 6.55773 -0.675879 0.452626 -0.671419
172 1 3.23058 7.10219 8.85141 -0.119793 -0.428531 -0.534483
173 1 3.11212 5.35712 1.0069 -0.192064 0.316079 0.261312
174 1 5.16864 3.716 8.8271 -0.217676 0.37148 0.211621
175 1 8.31366 3.78823 0.576428 -0.0479484 0.476397 1.20332
176 1 2.89075 1.67339 3.01903 -0.54681 -1.52826 1.32303
177 1 4.28675 6.15149 1.81966 -0.74932 0.26718 -0.643477
178 1 7.24474 1.7958 2.75952 -0.571819 -0.13274 -1.32429
179 1 6.34014 3.38534 3.70911 -0.759198 0.28969 0.352139
180 1 1.5091 1.16886 8.05692 0.682992 0.611989 -0.481173
181 1 8.51108 5.01089 1.91897 -1.45811 0.544674 -0.0875374
182 1 2.64515 8.61912 3.52671 -0.117494 -0.075294 -0.85356
183 1 4.91708 4.5146 1.08147 -0.573328 0.322118 0.299255
184 1 5.95881 6.49229 7.93914 0.189153 -0.676511 -0.263171
185 1 1.07621 7.52118 6.18599 -0.18534 0.307834 -0.155132
186 1 0.215768 2.60373 2.00397 0.64921 -0.831992 -0.584037
187 1 2.23946 1.55372 4.19249 1.65604 0.344195 -1.28685
188 1 0.703123 6.11439 0.143586 -0.123098 -0.335442 -0.436629
189 1 4.11647 5.27716 5.57489 0.484882 0.307579 0.240194
190 1 3.57421 3.49637 1.91322 0.146433 -0.704506 0.644457
191 1 4.9367 4.66367 5.62607 0.252675 -0.682811 -0.775647
192 1 3.7102 0.327432 6.61766 0.0284845 0.691689 0.683842
193 1 4.98581 1.92718 1.44485 0.0891795 0.815565 1.83023
194 1 1.55273 8.54063 3.74666 -0.218274 0.436026 -0.00731606
195 1 5.52071 8.27981 3.81143 0.41857 0.811617 -0.573233
196 1 0.788073 0.62516 2.39289 -0.123938 1.21529 0.137523
197 1 5.2598 2.95977 1.91892 -0.20159 -0.302297 -1.2643
198 1 6.65812 0.733583 9.07497 0.125783 0.630284 0.257035
199 1 3.91062 0.579159 5.58474 0.586208 -1.4535 0.259822
200 1 0.460909 9.37236 8.03847 0.326512 0.189843 -0.888794
201 1 4.51263 1.76262 3.72653 -0.463858 0.258367 -0.469988
202 1 3.32138 5.87944 3.47456 0.700793 -0.230525 -0.551824
203 1 4.29522 2.30503 6.47625 0.0572781 0.215308 0.078918
204 1 5.32042 6.77601 0.0770911 -0.968747 0.750854 0.674377
205 1 3.93549 1.32277 6.26003 0.771285 0.738431 -0.19936
206 1 5.4933 9.3351 7.3459 0.927397 0.442406 -0.607876
207 1 6.12939 4.92864 3.50279 -0.394907 0.184645 -0.581959
208 1 0.936748 5.73283 2.10828 1.14738 0.223571 1.24676
209 1 6.33552 0.535158 7.18597 -0.628924 0.381823 -0.0115607
210 1 1.39791 4.10673 8.8545 0.337591 -0.471333 1.09729
211 1 6.64628 0.0490797 0.460235 -1.28381 -0.0795817 -0.63549
212 1 5.10031 6.04366 2.44894 0.358962 -1.14994 0.259017
213 1 2.93925 6.17812 4.43175 0.754611 -0.734877 -0.887109
214 1 7.72526 2.67392 2.17999 1.32769 0.000461753 -0.323677
215 1 6.79848 6.72936 3.27418 -0.518379 -0.143134 -0.155119
216 1 7.94369 3.1055 6.5657 1.29285 -0.0909003 0.651436
217 1 2.15728 9.13713 6.64447 -0.34933 -0.162449 -0.447955
218 1 2.19017 2.45511 2.16222 -0.207271 -0.502098 0.402929
219 1 8.107 4.76428 0.992266 -0.38666 0.799005 0.460472
220 1 7.52977 0.459253 8.53505 0.0497163 0.827229 0.467086
221 1 5.48466 8.12438 7.77417 -0.342152 -0.856695 1.10683
222 1 4.52494 5.36883 0.711361 1.45769 0.525319 -0.463453
223 1 3.04129 0.452289 0.711616 1.04096 0.192027 0.436685
224 1 6.82818 4.1872 2.97519 -0.112682 1.85636 0.892481
225 1 1.64121 3.19098 8.47056 0.697249 -0.343894 -0.182492
226 1 3.18138 2.09688 7.77288 0.247481 -0.0757514 0.494801
227 1 7.61052 5.74601 5.94608 -1.11091 -0.978463 0.930983
228 1 6.96551 9.0567 8.91422 0.191998 0.17663 0.000759228
229 1 8.8979 1.82872 6.62854 -0.772402 -0.00901984 1.09904
230 1 7.11628 1.07963 0.521864 0.122629 -0.583853 -0.537684
231 1 8.66853 4.04252 5.1414 0.233294 -0.66554 0.470203
232 1 6.87613 4.51603 8.05114 0.311017 -0.635835 1.43744
233 1 9.33742 9.36203 2.39249 -0.224081 1.39436 1.11624
234 1 5.39784 7.93776 2.83487 1.20315 -0.7194 -0.422599
235 1 5.84321 7.83609 1.17599 0.1512 -1.87267 0.633599
236 1 9.0726 3.49581 3.41398 0.249264 -0.282731 -0.220052
237 1 8.02415 1.39886 5.47874 0.0163071 0.705893 -1.11651
238 1 7.37219 0.792221 7.19606 -0.833478 0.0982229 0.132059
239 1 4.5686 4.39132 6.6285 1.54248 -0.11973 -0.427653
240 1 1.25969 1.24555 9.07131 -0.123541 0.328198 -0.791157
241 1 2.94137 5.16939 2.70985 -0.346468 -0.668864 -0.998241
242 1 4.26971 5.10099 8.47098 0.0829416 0.734136 -0.188451
243 1 4.74816 0.764669 3.77361 -1.30257 0.805989 0.390055
244 1 7.07021 5.25866 3.7284 0.463323 1.42616 -0.782396
245 1 6.75507 4.63749 1.90187 0.374403 -0.691074 -0.387334
246 1 7.90253 2.26278 3.99384 -0.849257 0.822971 0.565328
247 1 4.73764 2.67492 9.30368 -0.135511 0.0740493 -0.573505
248 1 5.39514 8.7809 4.65278 0.152807 0.933837 -1.46217
249 1 6.57562 5.01671 5.31789 0.171767 -1.14127 -1.54264
250 1 5.20176 4.99014 2.88841 0.22525 0.232967 -0.122211
251 1 7.60942 5.083 4.84923 0.759508 -0.181883 0.233352
252 1 0.0233744 6.33851 4.87118 -0.567125 0.102888 -0.705381
253 1 2.15968 6.55233 1.10103 0.419022 1.32896 -0.220647
254 1 5.40454 2.65879 0.704181 1.45051 0.694661 0.496441
255 1 4.77286 3.57151 2.62924 1.28011 -0.547502 -0.77161
256 1 0.0280638 5.07609 1.48236 -0.561786 0.0562245 -0.321433
257 1 8.91745 8.87592 3.24155 -1.06185 0.23875 -0.211523
258 1 3.33444 6.46198 1.17121 -0.89745 0.0913601 -0.818765
259 1 5.61113 2.11208 5.37213 0.280557 -0.0574706 -0.814141
260 1 4.3138 2.61596 2.10364 0.645092 0.265231 0.292478
261 1 1.12173 8.20729 8.75387 0.649172 -0.920977 0.644448
262 1 7.18217 2.15123 8.17983 -0.892002 -0.382414 -0.51558
263 1 6.79569 3.90704 5.97629 -0.980736 1.21198 -1.67223
264 1 7.63478 0.503726 5.08094 1.83581 0.595497 0.803719
265 1 3.73281 1.89122 1.38585 -0.770549 1.04717 -0.589678
266 1 0.468843 7.09315 0.788913 -0.798885 0.351496 0.0774082
267 1 5.78587 5.23728 2.04536 -0.83582 0.99531 -0.81234
268 1 5.13747 0.97181 0.944587 0.743769 0.658505 1.13219
269 1 3.71304 4.1711 0.155459 1.24142 0.186174 0.169934
270 1 7.94119 7.83691 2.04801 -0.368626 0.408013 2.3668
271 1 1.47527 8.40748 0.991598 -0.896332 -0.166909 0.288264
272 1 1.68279 3.00967 1.47123 0.692038 0.271964 -0.0125937
273 1 8.9434 4.64083 3.17901 0.0710643 1.41357 0.335801
274 1 4.49533 3.07404 8.37206 0.472983 -0.381322 -0.900542
275 1 5.07441 0.616928 9.25507 0.475762 0.207191 1.25535
276 1 8.78608 8.47241 9.21128 1.03903 -0.0246972 -0.32879
277 1 7.00145 5.00738 0.936608 -1.8719 -0.223175 0.905805
278 1 3.69812 3.15898 5.96283 -0.238415 -0.583727 0.136908
279 1 0.752576 3.81485 0.428896 0.961568 1.35153 -1.81961
280 1 2.9616 1.42478 6.93595 0.264299 -0.941275 0.270729
281 1 3.73809 7.40488 2.47839 -0.88133 1.39752 -0.202482
282 1 1.18029 7.68124 4.18967 -0.526556 -0.638015 -0.311682
283 1 1.62301 6.37371 6.37764 0.900079 -0.614054 -0.190757
284 1 6.08615 6.75014 5.77723 -0.506436 0.706721 -0.483134
285 1 1.08194 9.29568 6.2669 -0.567538 0.298844 0.552342
286 1 0.488875 1.89639 6.21684 -0.0453828 -0.128491 -0.246297
287 1 4.39847 8.95201 6.14945 1.03651 -0.0853779 -0.420551
288 1 0.704296 6.67704 1.8916 1.40697 -0.126515 -0.051269
289 1 8.01088 1.60439 2.06423 0.101906 0.907445 0.354041
290 1 5.11284 4.543 8.0165 0.264329 0.651316 -0.294261
291 1 8.76337 3.01589 5.54495 0.91155 -0.583894 -1.44415
292 1 5.31977 2.65195 6.50914 -0.0734165 -0.736911 1.23639
293 1 7.95197 4.61808 5.71522 1.25177 0.459264 -0.896219
294 1 0.448991 2.61757 7.25641 -1.47895 0.0381898 0.836577
295 1 5.35927 3.94561 7.20713 0.299242 0.322797 0.47631
296 1 8.01408 5.82354 8.52552 -0.0996416 0.440657 0.281671
297 1 0.139314 4.11999 5.76678 0.669236 -0.42194 -0.0326623
298 1 8.58241 3.7866 6.1739 -0.769599 0.569536 0.206606
299 1 3.83616 8.79385 6.98542 0.247092 0.0587246 0.319452
300 1 2.22767 1.42757 5.39648 -0.44444 0.658804 -0.597532
301 1 5.40911 7.16266 7.23337 -0.77593 1.05157 -0.963569
302 1 8.63259 6.91669 5.58542 -1.48887 -0.664776 -0.492606
303 1 5.6284 5.6982 5.82563 -0.612185 -0.13498 -0.64218
304 1 1.28879 6.14888 8.66892 -1.0871 0.419019 0.103588
305 1 6.34312 8.62972 7.53516 -0.0707571 -0.764572 -0.0878895
306 1 0.801601 9.41589 1.57136 1.44219 0.629918 -0.166788
307 1 5.48755 2.35182 3.84706 0.0450576 0.260149 0.851751
308 1 3.47351 8.70144 8.59812 -0.0831229 -0.181726 -0.729759
309 1 0.0790953 6.33315 7.56101 -0.398445 -0.174267 -2.04523
310 1 7.67457 6.92258 3.87012 0.416245 0.428234 0.675578
311 1 0.613331 8.89051 0.658032 0.205514 -1.07691 -0.270878
312 1 3.02167 8.1399 9.39132 0.463893 0.127485 0.912912
313 1 6.25729 7.65024 3.31886 0.813602 0.961446 -1.38253
314 1 6.06642 0.988707 0.422275 -0.4489 0.0755024 0.781583
315 1 5.12033 5.56844 8.12194 1.36967 -0.442838 -0.116599
316 1 8.44508 4.60322 9.26773 -0.99059 0.516486 -0.78993
317 1 6.31275 5.94255 3.92902 -0.0376329 0.126789 0.155196
318 1 8.17678 2.12416 3.02565 -1.17511 -0.555158 -0.222944
319 1 1.68179 1.64752 1.7534 1.19426 -0.162119 0.0193568
320 1 1.33412 6.05991 3.68582 -0.0462104 0.0975956 0.799449
321 1 9.16571 4.36853 0.776352 -0.0988223 0.633327 -0.156042
322 1 5.86428 0.195379 5.18651 -0.574039 -0.452351 0.45165
323 1 9.25252 2.46217 9.15484 -0.117385 -0.478313 -0.814526
324 1 0.491149 5.32531 8.60108 1.01523 0.121027 0.63601
325 1 0.147837 7.72919 8.94947 1.12458 -1.74356 -0.592474
326 1 2.68388 2.67187 3.08298 0.0956945 -0.0339816 0.308894
327 1 1.10123 2.8271 0.560342 0.500264 0.20479 -0.155086
328 1 5.46261 3.85549 6.1884 -0.108016 1.4561 -0.554788
329 1 0.197656 7.58483 1.72432 0.311108 -0.28504 0.742505
330 1 4.58899 3.73396 1.63454 0.976267 0.295046 0.956247
331 1 0.817923 9.2811 5.26284 0.163789 1.03914 -1.53885
332 1 3.13195 2.54073 6.74632 -0.724196 -0.149846 -0.1305
333 1 0.634434 4.43071 8.26233 -1.16979 0.519541 -0.339157
334 1 2.10675 5.4731 6.88462 1.24254 0.566661 0.232288
335 1 6.9307 6.01988 1.24242 0.445095 -0.159197 0.174098
336 1 7.97391 5.7226 4.11716 1.07662 1.81179 0.179154
337 1 6.88643 0.72927 4.33243 1.38654 0.588483 0.491575
338 1 3.6542 0.382865 4.33486 -1.49137 -0.270591 -0.326973
339 1 7.96182 5.57215 0.12331 0.729454 0.39496 1.16144
340 1 3.48324 6.41075 7.07753 0.539191 -1.22337 0.114602
341 1 6.33543 6.81245 9.243 0.71849 -0.501828 1.18413
342 1 0.820303 0.818807 4.78709 0.679575 0.167169 0.202969
343 1 3.04741 6.92168 3.23145 -1.38879 -0.186868 1.31202
344 1 3.18805 4.70708 8.74744 -0.290866 -0.185567 1.27779
345 1 7.87746 6.18102 7.53024 -0.555039 0.23724 0.172826
346 1 9.04124 3.53919 1.46997 -0.517601 0.102054 0.181465
347 1 6.86633 6.30624 8.43336 -0.286875 -0.327294 0.968766
348 1 0.0706317 2.65225 3.94689 -0.843683 0.305793 0.300983
349 1 2.61774 3.4073 2.37342 -0.0378468 -0.532338 1.49886
350 1 1.2089 3.35689 6.59657 -0.196787 -1.3502 1.05396
351 1 5.59289 0.0753911 0.711873 0.930922 -0.511048 0.231617
352 1 3.3826 5.68979 8.44802 -0.232511 -0.104124 1.49803
353 1 7.31734 7.91689 4.33558 0.55694 -0.101896 0.758829
354 1 2.15823 6.87186 8.6463 -0.255152 0.0622204 0.351064
355 1 7.85164 8.96583 2.97088 0.369836 0.85393 -0.817916
356 1 6.11649 1.23308 6.17854 0.22012 -0.15275 0.505643
357 1 1.6064 4.92351 5.25524 0.191375 -0.953111 -0.166051
358 1 4.60335 2.85258 5.67871 0.151281 0.845505 -0.359444
359 1 0.335687 6.48771 8.63395 -1.42964 0.326786 0.617931
360 1 6.98742 2.7871 1.29587 -0.0723282 -0.334939 0.506095
361 1 0.0963521 0.494995 6.92573 -0.450481 -0.42043 -0.344178
362 1 2.67997 8.31327 5.45945 1.12546 0.425704 0.982329
363 1 9.19793 5.99346 1.99471 -0.183275 0.373019 0.0591999
364 1 0.161807 0.656877 5.63952 1.69938 0.936199 -1.6514
365 1 4.90201 6.58146 8.42697 0.287411 0.133432 -0.345577
366 1 2.3173 9.09988 0.887284 1.57412 0.930696 1.52936
367 1 0.219299 2.39769 5.23533 0.121564 0.0118359 -0.00628891
368 1 4.10924 7.98825 6.41266 -0.364747 0.536111 0.326579
369 1 7.02388 7.43089 2.43674 0.415606 -0.504061 0.293538
370 1 1.20465 1.51805 2.76478 -1.06855 0.275208 -0.409206
371 1 0.389654 0.300851 3.36203 1.44784 0.513008 -0.208317
372 1 4.07522 3.49498 4.88389 -0.811949 2.52422 0.88913
373 1 5.3448 0.949936 6.94435 -0.18474 -0.0665899 -0.0983194
374 1 7.81924 8.70604 1.40396 0.114207 -0.356479 0.737746
375 1 2.72109 7.974 8.33575 0.252284 -0.212819 0.759038
376 1 5.55738 3.60867 1.18291 -0.436432 0.550165 0.611119
377 1 8.59591 8.21113 5.84001 -0.920308 -0.516999 -0.0993298
378 1 2.58195 5.79982 1.81982 0.533151 0.3999 -0.162888
379 1 8.13144 8.72143 3.86497 -0.473919 -1.20886 0.0932432
380 1 8.82105 4.77742 8.35899 0.672064 0.755931 0.161928
381 1 2.83563 1.97936 8.78009 -0.19755 0.421279 0.934395
382 1 4.73565 0.646007 6.23921 -0.745282 0.0885983 -0.640989
383 1 2.69426 0.478994 1.70538 -0.550798 -1.21495 0.842423
384 1 2.03903 6.66645 4.11388 -0.705845 -0.278431 1.18191
385 1 4.25492 7.0553 9.26697 0.0219998 -0.694542 -0.716669
386 1 2.24539 7.57461 6.10618 -0.0672279 0.791649 0.373563
387 1 9.19149 1.77126 1.33186 -0.2353 -0.214996 1.51795
388 1 2.68371 3.54481 1.36912 0.312097 -0.977153 0.717884
389 1 5.09873 1.97821 7.31873 0.332588 0.694721 -0.584144
390 1 1.55451 5.00777 4.15133 -2.06553 1.10166 -0.136473
391 1 6.75417 8.43415 3.72655 -0.703146 -0.308645 -0.675031
392 1 2.09688 5.40702 0.741381 -0.171685 0.40922 1.2481
393 1 2.74468 0.723414 4.89703 1.04996 0.535997 0.308843
394 1 3.17271 5.82291 5.43744 -0.591965 0.588881 -0.146948
395 1 6.3771 2.08853 0.416037 -0.448761 -0.690718 -0.421953
396 1 2.84413 2.96867 8.70792 0.542753 0.203658 -1.42246
397 1 6.1389 5.95012 2.8893 0.223641 -0.720183 0.426183
398 1 7.7249 6.49095 0.713744 0.559078 0.395251 -1.28816
399 1 7.30099 3.66076 3.77422 0.204635 0.988602 -1.16804
400 1 9.23611 4.82851 4.98632 -0.394025 -1.1264 0.316908
401 1 5.99955 6.19602 0.743027 0.0517194 0.591168 -0.874719
402 1 7.8431 4.01501 4.62642 -0.890819 -0.179033 2.37919
403 1 9.2665 2.31333 2.9927 0.341283 0.0322992 -0.0393995
404 1 1.69729 0.597878 1.2975 0.679727 0.368702 -0.270319
405 1 3.03485 5.71953 6.54375 -0.89658 -1.46212 -0.702054
406 1 5.97108 2.32152 1.6487 -0.249477 -0.462778 0.637837
407 1 4.56281 8.11222 2.20301 0.395316 0.135719 -0.380561
408 1 0.793385 2.14931 1.34547 1.01983 -0.672914 -0.924239
409 1 8.03941 7.58891 5.15871 -0.385691 -0.806001 -0.401482
410 1 6.24994 3.26696 0.448229 0.567066 0.617511 0.305279
411 1 4.11514 4.34666 2.30912 1.19156 -1.12014 0.425354
412 1 3.68889 5.42317 4.56765 0.465529 -0.733645 1.14177
413 1 1.90987 8.16148 6.95243 -1.23544 -0.397235 0.23661
414 1 6.68351 7.64614 0.537628 -0.178548 1.15723 1.20466
415 1 8.74963 8.88402 0.810721 1.97903 -1.1513 -0.0206093
416 1 7.65286 6.90495 1.65915 -0.709203 1.17864 -0.579068
417 1 9.09865 1.18537 0.389993 -0.452086 -1.09839 0.459891
418 1 6.73494 2.75214 8.96168 0.582177 -0.155852 1.27934
419 1 1.60387 3.90931 4.33831 -0.151758 0.0760066 0.0140755
420 1 6.33165 5.44024 8.23479 -0.885845 -0.331287 1.69622
421 1 -0.0119462 7.34921 7.88637 -0.108606 1.59914 -0.0393111
422 1 6.29727 1.31548 5.05106 0.990501 1.17115 0.27599
423 1 6.86062 5.26078 2.77097 0.89099 0.407454 -0.371964
424 1 3.85297 3.26832 2.94688 -0.0694067 -0.901988 0.965232
425 1 8.83751 4.14844 2.31723 -0.268527 0.724786 -0.568919
426 1 8.90162 2.90216 6.75688 0.221282 -0.213523 0.102366
427 1 6.71603 1.66767 1.30808 -0.121857 1.12411 -0.705488
428 1 2.06503 7.56254 3.5182 0.951754 1.93079 -1.09863
429 1 4.19923 1.89601 7.89083 0.622075 0.111511 0.626676
430 1 6.23501 9.15601 4.14262 0.3491 -0.0767648 -0.685571
431 1 0.221508 5.14227 7.60186 0.231905 -0.495292 -1.50568
432 1 0.351654 6.13549 2.92069 0.721536 -0.504544 1.83426
433 1 7.92837 4.08973 2.92091 0.470479 0.620163 1.0319
434 1 0.65357 1.89314 4.48106 -0.276629 -0.361775 0.557809
435 1 6.39805 8.6166 5.02424 0.277296 0.741154 0.46031
436 1 1.73271 7.70237 7.9712 -0.579489 -0.20629 -0.67643
437 1 2.22864 4.44749 2.63937 0.161321 0.399788 1.06277
438 1 1.73441 6.49798 1.99562 0.0212926 0.545919 -0.412637
439 1 0.783351 3.50831 7.67196 -0.322982 0.362068 -0.315508
440 1 2.47877 1.31887 1.01628 0.45277 -0.125553 0.608651
441 1 5.46317 2.0346 8.23502 0.511054 0.256085 0.0353664
442 1 3.10237 8.1616 6.67986 0.644067 -0.157654 0.58193
443 1 1.42887 3.99461 1.29519 0.0925873 0.81062 -0.0567566
444 1 7.76814 4.11381 6.63629 -0.208479 -5.40746e-05 -0.135306
445 1 1.36885 8.67735 7.81064 0.256361 0.139476 -0.206099
446 1 8.02099 1.42889 8.07439 0.68859 -0.850318 0.6475
447 1 8.20788 2.88612 0.0412453 -0.379522 -0.10753 0.0750659
448 1 1.06343 7.83991 3.17223 -0.247562 -0.180766 1.36379
449 1 5.66489 0.0730153 1.83964 -0.30805 1.2217 0.592669
450 1 2.73302 9.25511 9.29878 -0.298689 -1.42304 -0.0757818
451 1 9.23204 3.94476 7.84766 -0.209643 -1.28448 -0.563206
452 1 0.0511709 7.22139 2.78933 0.385346 -0.0438373 1.33816
453 1 4.44949 1.86173 0.609485 -0.644042 -0.924254 -0.242523
454 1 1.05148 7.78788 0.291861 0.45784 -0.120082 0.977708
455 1 4.16177 7.34631 4.73702 -0.743954 -1.25795 0.181145
456 1 1.9664 3.52844 5.93955 -0.096512 -0.125163 0.214591
457 1 6.78985 3.46641 4.82147 -0.206526 0.406463 0.853638
458 1 1.69113 6.70217 5.37549 0.461419 0.231145 0.614406
459 1 7.12111 1.57697 5.84799 -0.587184 -0.619695 0.331374
460 1 3.27817 4.41005 4.8004 -0.982129 -0.154685 -0.673118
461 1 1.94988 1.76473 6.37099 0.581669 -0.475266 -1.22292
462 1 6.63264 7.0363 1.44547 -0.904929 -0.127376 -0.557205
463 1 2.0214 0.723758 0.28333 0.675118 -0.741571 0.675609
464 1 9.00498 9.27051 8.50214 0.279179 0.18725 -0.760637
465 1 9.32087 8.19059 6.73205 0.198289 0.605633 0.421576
466 1 1.92808 0.144906 7.8208 -0.257299 -1.4329 0.304346
467 1 6.45506 1.68289 8.83172 0.757658 -0.196791 -0.829173
468 1 7.25022 6.72661 5.65424 -0.233719 -0.602076 -0.602083
469 1 1.26422 1.19487 3.90642 0.674381 -0.251148 -0.00862265
470 1 0.690349 8.35453 5.79719 0.484821 0.196775 0.00130689
471 1 9.40587 0.353511 0.924623 0.454592 -0.410733 -0.174385
472 1 9.01883 1.65587 5.57847 0.323812 0.746823 -0.824889
473 1 6.61216 3.24029 8.03278 0.00349298 -1.08372 -0.683104
474 1 1.43936 7.86878 5.2141 -0.872127 -0.934664 0.334053
475 1 8.7374 1.29471 2.80752 0.749451 -0.676694 0.159411
476 1 1.96929 2.70168 6.79604 0.812294 -0.75254 0.462968
477 1 2.25254 0.259841 4.04935 0.860764 0.0204976 -0.558635
478 1 3.49093 6.24811 0.00309418 0.211066 -1.46653 -0.384364
479 1 0.206593 3.78199 6.81035 -1.09842 -0.28802 1.71339
480 1 2.08731 7.75306 9.23237 -0.586058 0.630886 -0.440497
481 1 4.39777 2.78681 1.05891 0.771319 -0.55216 0.340215
482 1 5.06903 3.37742 3.80472 0.499297 -0.144242 -0.104252
483 1 1.85158 5.83817 4.73039 0.121412 -0.181333 -0.427221
484 1 1.94195 2.23705 0.958191 0.00147962 -0.716347 0.188402
485 1 0.375577 8.37185 8.00583 0.30046 0.784011 -0.412689
486 1 7.60567 7.72292 0.957708 -0.513884 0.245326 0.204737
487 1 7.95203 6.64456 6.43844 -0.13948 1.55528 -0.350222
488 1 9.10608 6.58142 6.42351 0.454504 -0.0780611 0.6112
489 1 0.288677 1.55205 7.18441 -1.17508 1.12963 -0.298743
490 1 4.56656 8.39912 3.277 0.470398 0.661802 0.399694
491 1 3.49694 8.44982 2.97016 -0.863188 -0.838946 0.539823
492 1 3.2473 2.54164 2.2184 -0.875448 -0.109248 0.224507
493 1 0.306471 2.96996 6.11731 -0.948678 0.286458 0.597287
494 1 5.31095 1.5043 4.46634 -0.177962 0.200318 1.06349
495 1 2.52055 9.38129 5.58228 0.439721 0.0822023 0.133456
496 1 3.33722 2.18573 5.76674 -0.0522251 0.478262 -0.879811
497 1 1.12233 4.30473 7.02547 -0.4877 -0.0405862 -0.405952
498 1 2.10141 2.72923 4.05354 0.128764 -0.403775 -1.1228
499 1 4.49043 7.63671 8.34871 -0.200366 -0.567479 0.42214
500 1 6.86288 1.10199 8.07381 -0.234623 0.023008 -0.574603
501 1 7.95142 4.68085 3.86939 0.77862 -0.480387 0.936462
502 1 1.28692 1.61708 7.24275 -0.046524 0.415928 -0.619451
503 1 6.02005 1.41207 7.66561 -0.489135 -0.112956 -1.06168
504 1 7.69758 7.26964 7.14868 -1.60617 0.136276 -0.418215
505 1 4.86093 5.50885 4.83075 0.494577 -0.0714245 -0.998903
506 1 7.90226 7.02967 2.78414 -0.55016 -0.0480173 -0.998193
507 1 1.8255 0.763442 2.26646 -0.512424 0.209125 0.279845
508 1 4.63712 0.276115 1.69219 -0.520936 -0.0659371 0.466201
509 1 5.70046 9.21219 9.08099 0.807737 0.315373 -0.921694
510 1 8.44435 5.89619 1.23765 0.540995 0.00577893 -1.33147
511 1 0.296275 1.32109 3.27383 0.314972 -0.125145 -0.0163909
512 1 8.58331 2.54955 1.58664 -0.329942 -0.948295 1.21539
513 1 8.77676 3.09828 2.51209 0.89955 1.54886 -0.536001
514 1 8.59559 5.44456 7.52984 1.8222 1.0249 0.261202