ITEM: TIMESTEP
77700000
ITEM: NUMBER OF ATOMS
1000
ITEM: BOX BOUNDS pp pp pp
0.0000000000000000e+00 9.4000000000000004e+00
0.0000000000000000e+00 9.4000000000000004e+00
0.0000000000000000e+00 9.4000000000000004e+00
ITEM: ATOMS id type x y z vx vy vz
1 1 5.33673 6.41727 2.02861 -0.263703 0.113085 0.595016
2 1 2.94181 4.42785 0.280185 0.207907 0.97207 -0.358555
3 1 2.27255 2.01011 4.82614 -0.0982788 1.1566 -0.728714
4 1 2.00761 4.99539 0.0345532 -0.913115 0.159838 0.205129
5 1 0.0148051 0.831645 3.25763 -0.445407 -1.53741 0.617974
6 1 4.70763 6.8684 5.08 -0.773033 -0.382386 0.0911094
7 1 6.58187 5.54573 6.26375 1.0813 0.540829 -0.975668
8 1 0.405964 3.15321 6.60431 0.231876 1.24939 0.193593
9 1 8.03305 4.95839 5.86768 0.250658 -0.269176 1.20737
10 1 1.10827 4.58074 0.467881 0.0790421 -0.389561 0.673905
11 1 5.3145 0.517737 4.28982 -0.144766 -0.291437 1.03858
12 1 7.16194 1.83843 8.86398 -0.530188 0.714859 0.3507
13 1 8.81644 8.91199 6.64007 -0.0669722 -1.73623 -0.504794
14 1 4.13287 3.63381 7.51349 -0.339249 -0.60397 -1.00599
15 1 1.04227 8.4773 9.20714 0.375484 -0.814093 0.993929
16 1 9.38377 0.0795319 8.39719 0.476071 -0.30059 0.462493
17 1 7.15574 2.54567 2.18026 0.815499 0.997311 -0.743635
18 1 4.77001 8.56958 5.632 -0.865095 -0.680833 -0.164407
19 1 4.52569 7.17038 1.03557 8.47679e-05 -0.967874 -0.266219
20 1 7.82061 2.70744 0.0367956 -0.116867 -0.277551 -0.620863
21 1 8.09357 4.04112 8.50999 -0.112032 -0.804041 -0.437693
22 1 8.40309 0.742488 1.61217 -1.1831 -0.335204 1.05958
23 1 7.4705 0.84599 0.0168226 -0.00836534 -0.259343 -1.07118
24 1 7.90236 5.34353 7.88622 -1.22734 0.144449 -0.420988
25 1 6.14855 0.164191 3.26865 0.373607 0.253259 -0.401206
26 1 4.97303 1.15605 4.92717 -0.29303 0.785823 -1.37101
27 1 2.67633 1.09396 6.69181 1.12785 0.149131 -0.469165
28 1 5.13487 1.32918 2.17249 -1.75837 -1.11576 1.00361
29 1 9.07055 3.92475 1.06144 -0.507933 0.0571675 0.440981
30 1 9.39066 3.82278 3.74838 -0.121214 1.08364 -0.263599
31 1 1.38715 1.34283 0.876859 -0.777912 0.505158 -0.162479
32 1 4.57372 4.80578 6.15844 -0.286705 -0.658386 1.00228
33 1 5.34409 0.955295 9.14892 -0.131771 -0.298784 0.895121
34 1 5.94722 0.201852 2.04198 -0.695479 1.104 0.316562
35 1 2.43167 4.50474 4.56074 -1.05141 0.534026 0.492056
36 1 3.33036 0.740205 3.19171 -1.4104 -0.982214 -0.556072
37 1 6.61386 4.35224 0.061874 -0.254933 -0.0481773 -0.705616
38 1 0.73234 0.55713 1.02978 -0.363979 0.133296 -1.12955
39 1 6.91184 9.19137 2.58491 -0.729234 0.949527 0.15314
40 1 1.8856 9.36036 7.70451 -0.275903 -0.296673 -1.95508
41 1 5.32117 1.00112 6.85415 -0.27235 -0.731127 0.522518
42 1 1.62991 9.02798 3.8775 -0.128635 -0.285134 -1.21733
43 1 4.88268 0.202907 7.3979 -0.104366 0.161789 1.35064
44 1 3.09356 0.371416 5.97605 1.37372 0.0831231 0.922797
45 1 1.5236 9.34939 5.62489 0.131294 -0.580872 -0.140739
46 1 0.885463 5.43226 1.83094 -0.689903 0.521739 -0.984877
47 1 0.355922 9.1618 1.56574 -0.29155 1.02675 -0.202716
48 1 5.13805 8.91955 4.71765 0.0967094 0.147094 0.439286
49 1 1.87146 3.6579 5.95128 0.230729 -0.300781 -1.14
50 1 7.93131 2.51232 3.68608 0.106107 -0.567607 0.137105
51 1 7.83297 5.57885 3.14486 0.172697 0.737234 0.773366
52 1 4.72367 8.1964 3.02781 -0.697048 -0.320401 0.698703
53 1 3.06571 8.87387 6.57785 0.101407 0.322992 0.146664
54 1 8.12454 0.465857 6.60415 -0.333366 -0.242451 0.51016
55 1 0.853086 5.53043 3.77611 1.00247 0.350693 0.806838
56 1 1.83502 6.60782 4.78987 -0.607717 0.219647 0.791902
57 1 3.22207 5.41369 5.91467 -0.0746803 1.29404 0.883646
58 1 5.32691 5.66896 2.76456 0.13542 -0.230854 -0.267332
59 1 6.76222 8.9825 7.16604 0.0296928 -0.380111 -0.886295
60 1 1.28185 0.656207 4.10776 -1.52372 0.146646 -1.15389
61 1 2.89617 7.36947 2.23071 0.706324 0.570629 0.86259
62 1 7.414 1.63834 1.59573 -0.831658 -0.341893 1.83206
63 1 8.24366 3.48639 3.62123 -0.422727 -1.38844 0.159018
64 1 9.15313 8.74238 0.770722 -0.252466 -0.849325 0.552712
65 1 8.72347 1.73567 3.44655 -0.553989 -0.197611 0.392263
66 1 3.46781 3.51339 8.33124 -0.263711 0.286052 0.028134
67 1 7.99191 8.4121 9.14578 -0.274418 -1.19858 -0.358326
68 1 4.76584 6.13786 1.01374 -0.0596823 -1.31633 0.55922
69 1 6.35278 8.01306 1.37665 -0.74637 -0.683052 -0.825032
70 1 7.06264 4.35953 2.62346 -0.168911 1.63816 0.120845
71 1 8.00689 0.976091 7.61389 -1.26295 -0.644134 0.451054
72 1 4.78795 3.02509 1.62225 0.0235942 -0.778664 -0.458569
73 1 2.85704 6.24007 3.65994 0.244973 -1.03695 -0.0327235
74 1 4.2155 0.924215 1.88441 0.845852 -0.332049 0.289153
75 1 5.77842 2.94891 0.716935 0.132514 -0.828163 -0.145697
76 1 8.13845 7.0679 1.45967 -0.658545 -1.08165 0.510486
77 1 8.71426 3.27814 4.57801 0.0719455 0.182576 0.387163
78 1 1.89572 7.94538 1.37253 0.950941 1.14169 -0.665425
79 1 6.17956 9.4066 8.01923 -0.538588 0.76879 0.146311
80 1 0.715525 0.803872 8.44426 -0.423661 0.559568 0.0871696
81 1 3.73585 6.60949 7.52349 0.653074 0.173415 0.499409
82 1 5.20907 0.536509 2.8136 -1.02579 0.253499 -0.239953
83 1 3.15971 5.30906 4.64758 0.0474321 0.184375 -0.261522
84 1 1.07275 4.28814 5.15873 0.377255 1.03315 -0.800955
85 1 3.62495 2.45295 8.43763 -0.680378 0.921123 -0.774295
86 1 2.48508 3.71937 7.81664 -0.879963 0.931236 0.395195
87 1 3.32981 3.07418 3.33027 0.854596 0.524771 0.748092
88 1 0.11422 1.19958 1.60824 -0.437984 0.513745 -0.640918
89 1 6.13401 4.07273 2.16653 -0.909802 -0.127188 -1.20654
90 1 6.49816 5.98251 2.71831 0.145711 -0.0915552 1.3022
91 1 0.0392568 6.64241 2.64869 -0.570005 0.359808 -1.63765
92 1 7.98358 0.344034 8.43374 -0.326154 0.819602 -0.327544
93 1 4.18621 0.653269 6.75448 0.790078 -0.696544 -0.430246
94 1 1.34906 5.91768 5.51267 -1.06564 0.0973284 -0.22391
95 1 8.0865 7.70063 4.29951 -0.279196 -0.317692 0.255043
96 1 6.97078 6.50336 6.64018 -0.516402 0.388862 -0.121245
97 1 2.21546 5.99928 1.71725 -1.33742 -0.530387 1.32814
98 1 5.72668 9.0861 1.01655 0.435088 0.699071 0.248146
99 1 6.73077 8.39899 6.26404 0.520524 1.28619 -0.266208
100 1 6.96193 8.73127 9.36674 0.438608 -0.243046 -1.19167
101 1 5.65389 4.37637 8.77797 -0.504715 -0.20336 -1.53435
102 1 2.03069 3.81024 1.8965 1.53942 0.583208 0.703691
103 1 4.60823 7.54974 6.68579 0.617332 0.440296 0.375222
104 1 4.39975 6.66503 4.10522 -0.360698 -0.195708 -0.445071
105 1 0.953555 9.13161 4.68736 0.0134635 0.83069 1.39516
106 1 9.00557 2.47968 6.2049 1.27801 1.59304 -1.0488
107 1 5.28998 6.26171 3.5942 -0.609542 0.00989125 0.571631
108 1 7.54748 8.27852 5.43288 -0.0690619 0.669912 -0.563119
109 1 8.56045 0.814422 9.31472 -0.604839 -0.42052 -0.529776
110 1 8.40939 4.96523 9.10655 -0.20004 0.107041 0.828663
111 1 7.69453 8.94619 6.60692 1.0919 1.16195 0.870286
112 1 6.62106 2.22563 1.18124 0.623714 1.14037 0.348844
113 1 2.9239 3.81315 1.34398 -1.75674 -0.0994819 -0.540024
114 1 4.62367 4.16317 2.71047 0.585694 0.50379 -0.577524
115 1 6.01285 0.214754 5.05742 1.03123 -0.0607795 -0.76197
116 1 6.0882 1.82879 8.89611 0.825778 0.187798 -0.426759
117 1 7.85176 9.039 7.60788 -0.540194 -0.207708 -1.05478
118 1 7.5831 3.18775 8.45589 -1.03806 -0.429521 0.593862
119 1 4.65833 1.83037 6.76903 -0.164103 -0.0719386 -0.156376
120 1 2.25119 8.58406 7.10336 -0.67654 -0.950833 0.669112
121 1 4.02172 9.17325 6.06907 -0.373287 0.930788 0.00995954
122 1 2.68972 8.78695 4.17741 -0.661693 1.13502 -0.717009
123 1 3.30583 4.44196 7.87708 0.042135 0.297036 1.26802
124 1 2.07851 0.788865 5.8099 -0.254262 -0.418593 0.193396
125 1 6.14656 4.94535 5.55509 0.487083 0.63215 -0.0134444
126 1 5.6006 3.72905 3.42802 -0.483403 0.724317 -0.280645
127 1 4.59564 0.250187 5.30915 0.01311 -0.016154 0.336181
128 1 7.03028 5.59351 7.34646 0.0708953 0.253955 -0.580747
129 1 0.987169 9.09555 8.33417 -0.0430819 0.064018 -1.96088
130 1 1.8205 1.40076 2.57754 -0.834043 1.18517 0.15823
131 1 8.62596 3.06066 0.597423 0.277309 1.1758 -0.36451
132 1 8.50947 8.29191 2.36143 -0.00975045 0.640075 -0.848628
133 1 5.41539 1.61243 3.07039 0.959501 0.693377 1.06457
134 1 8.43548 5.93057 8.71594 0.0492408 0.510512 0.918927
135 1 8.76107 6.05645 4.42968 -0.186312 0.576379 0.688377
136 1 7.06066 0.443027 6.55093 1.43963 -0.11826 -0.10992
137 1 2.24927 5.81878 6.18902 -0.846507 -0.871078 -0.344665
138 1 3.80979 8.3096 9.07162 0.128484 -0.448084 -0.463271
139 1 0.795118 0.221781 7.49958 -1.08857 0.707871 -0.628373
140 1 9.03569 5.37408 1.31234 0.4664 -0.451192 -0.2168
141 1 3.11505 9.15533 2.60288 0.885729 -0.456513 0.0600436
142 1 4.88559 7.9847 8.3876 0.418183 -0.272602 -1.06264
143 1 4.5852 4.20385 0.761512 0.309415 0.155506 0.350792
144 1 1.41789 1.81683 3.50507 -1.1893 0.0802488 0.769446
145 1 7.39327 4.81035 8.74872 0.23827 0.176864 0.895159
146 1 4.36042 0.522424 0.824208 -1.44295 0.408483 1.32208
147 1 6.06976 5.15487 7.13163 0.323745 0.379914 -1.03759
148 1 1.95243 7.77909 5.56014 0.939211 -0.0985982 0.416624
149 1 3.64387 9.33234 5.12168 0.79778 0.752269 -0.454821
150 1 0.32358 7.36242 3.48267 0.321868 0.0479026 -1.18209
151 1 7.55324 9.3537 5.69686 -1.0445 0.673392 -1.00742
152 1 6.00834 8.18727 7.06425 0.0617966 -0.849563 -0.775398
153 1 3.87537 5.63076 8.81513 0.810807 0.86754 -0.785725
154 1 4.29122 6.4684 1.90479 -0.180155 -0.134894 0.176146
155 1 8.02838 7.31162 5.32291 -0.182928 -0.73412 0.709153
156 1 6.3938 7.78058 4.41982 -0.189428 0.402541 -0.621211
157 1 6.98133 3.89707 6.96565 -0.944893 -0.573061 -0.358309
158 1 3.17305 6.25011 9.39642 -0.414188 0.807197 -0.778694
159 1 2.04113 7.67933 6.67186 1.13524 1.021 0.933541
160 1 0.322851 4.97679 6.50018 0.709571 0.155669 -0.593313
161 1 0.579386 2.31651 5.9026 0.0480604 -0.552053 0.436242
162 1 0.486355 5.66178 0.776422 -0.343009 0.172391 0.744175
163 1 8.59396 0.0804431 5.73296 -0.0906413 0.971775 0.0546797
164 1 1.59145 0.78246 7.10656 -0.0620034 -0.651132 0.627317
165 1 3.94786 4.85892 2.10762 -0.621413 -0.591048 -0.237354
166 1 6.2776 5.13242 0.880701 0.20245 -0.407299 0.656023
167 1 2.58473 7.26194 3.23321 -0.400052 -0.0829837 0.877789
168 1 7.29769 4.32794 0.848532 0.1271 -1.24517 -0.532234
169 1 1.19582 5.68817 0.021193 0.729807 0.179678 -0.588065
170 1 8.99676 2.75712 3.61655 -0.0618855 0.585258 -1.30624
171 1 5.16666 6.7567 0.344319 0.719521 0.19651 -0.010231
172 1 1.03638 4.84904 7.25677 -0.549732 0.493578 -0.955467
173 1 3.51392 4.67398 1.19311 2.32213 -1.75294 0.241178
174 1 4.85677 6.54143 8.78632 1.74878 0.75519 0.254794
175 1 6.46812 5.37018 9.03635 1.06876 -0.318815 0.382499
176 1 4.83939 1.14371 5.97973 -0.318328 0.489607 -0.885917
177 1 5.19774 7.94798 0.977651 0.401721 -0.0370265 -0.46623
178 1 6.40951 3.11376 1.72567 0.359833 0.0562313 -0.173456
179 1 6.1005 3.63444 4.29446 -0.365001 0.580093 0.494158
180 1 1.40717 7.44318 3.38081 0.440529 -0.162458 -0.474534
181 1 7.96816 5.83251 1.10179 -0.124876 -0.666456 0.00717702
182 1 1.38553 1.62178 4.53129 0.0150648 1.50561 0.0366426
183 1 2.29362 3.30146 8.8556 -1.30909 0.261423 -1.02348
184 1 6.45988 6.86738 7.48274 -0.161133 -0.596589 -0.36901
185 1 0.542681 9.12863 6.46913 0.298435 -1.01099 -0.00396138
186 1 1.1824 4.2941 2.1281 0.404596 -0.164132 0.125672
187 1 0.763871 2.45572 4.14183 -1.12204 0.733971 1.1033
188 1 1.94412 7.82737 2.5485 1.2419 1.75952 -0.309155
189 1 4.0675 7.63717 3.6525 0.0820623 -0.879432 -0.717195
190 1 5.85504 6.80704 2.80239 1.29563 -1.13666 0.988223
191 1 3.61393 4.36841 6.14891 -1.09041 0.844864 -0.230276
192 1 0.847868 1.01526 0.0890877 -0.368111 0.170629 -0.579758
193 1 3.54223 9.11042 0.655553 1.04562 -0.289059 -0.192348
194 1 8.64066 7.84702 3.33548 -0.319993 -0.864424 0.574274
195 1 6.8798 0.713541 1.9466 -0.874481 0.354804 -0.977036
196 1 0.154282 8.7152 2.57409 0.290518 1.5234 1.16725
197 1 5.87418 5.55025 1.84436 -0.247043 0.877708 0.311275
198 1 8.2154 1.43129 8.5294 0.960657 -0.433634 0.491607
199 1 7.60092 1.06821 5.96801 -1.43739 -0.0788752 0.486437
200 1 2.65193 0.180754 0.144562 -0.32657 0.756725 0.292607
201 1 6.0757 2.59985 4.29838 -1.22508 -1.20997 -0.315773
202 1 1.92069 6.62213 3.75742 -0.197353 0.901153 0.0266534
203 1 5.8051 9.33318 7.02823 0.642887 -0.538371 -0.13113
204 1 6.53133 2.49656 0.153859 -0.302436 -1.48335 0.67029
205 1 6.0484 0.552028 6.15944 1.15102 0.430663 0.303291
206 1 2.16872 0.101737 6.56313 -0.0854413 -0.587584 0.39722
207 1 6.55207 1.34771 3.56828 1.36514 -0.445435 0.758078
208 1 0.409537 5.66862 2.8763 -1.40344 0.0607471 0.272169
209 1 6.49455 7.42241 6.48637 -0.0937936 0.171921 -0.481914
210 1 1.52164 2.59923 6.24737 -0.970958 0.799813 1.3654
211 1 7.46975 8.49358 0.837101 0.25297 1.55428 0.493277
212 1 6.20775 6.72314 3.73094 -1.21783 0.120215 -0.973035
213 1 0.975713 6.84402 4.19201 -0.0217383 -0.105267 0.479993
214 1 6.9711 1.59711 2.64687 0.19909 0.120847 0.5597
215 1 5.36043 5.97506 5.46357 1.53831 0.470829 -1.42043
216 1 7.27523 6.60836 5.58935 -1.43079 1.10342 -0.295092
217 1 1.01944 1.64136 6.61545 0.669422 1.07368 -0.312241
218 1 3.92945 2.53858 4.13333 0.206772 -0.330767 0.573409
219 1 7.31945 5.32024 0.470559 0.272818 -0.279578 -0.221773
220 1 0.78918 2.15177 0.327759 -0.0969915 0.323509 -0.598821
221 1 7.03433 8.72499 8.22575 1.67066 -0.53419 -0.545759
222 1 4.67005 5.56635 1.86816 -0.0899292 0.907259 0.0269188
223 1 2.86519 1.82726 7.9452 0.405509 0.29727 -1.73091
224 1 7.22502 5.36253 5.3764 -0.210798 0.527686 0.552304
225 1 0.652201 4.21949 8.08503 -1.16905 0.16776 0.882335
226 1 3.85679 0.946168 4.4758 -1.07242 -0.338618 -0.313187
227 1 8.37431 5.21481 4.8463 0.0421693 0.22175 1.19173
228 1 9.34328 0.507628 6.57984 0.197734 1.9425 1.29867
229 1 1.4757 2.63106 8.99754 0.00841702 -1.17545 -0.00252577
230 1 4.57967 1.9841 8.36559 -0.199669 -0.626826 -0.455569
231 1 5.93778 6.44885 6.45513 -0.393405 0.65098 0.528721
232 1 2.51287 3.45901 0.452681 -0.441982 -1.25821 0.50371
233 1 7.64494 7.89623 2.75109 -0.662902 0.698729 1.20202
234 1 6.19256 7.03535 0.261238 1.27572 -0.595356 -1.0531
235 1 6.30466 5.9609 7.99367 0.320616 -1.06586 -1.25499
236 1 6.70071 3.69608 5.96003 -0.514511 -0.540552 0.09347
237 1 7.14061 2.01197 4.15364 0.960672 -1.82001 -1.12374
238 1 7.97163 3.4223 7.45661 -0.703609 -1.18256 -0.655185
239 1 5.58626 7.96128 6.10024 1.17586 -0.494162 -0.817449
240 1 0.875846 1.77449 8.67857 1.25087 0.0917938 0.317885
241 1 2.94092 4.32315 2.20448 0.71485 0.745343 -0.0619889
242 1 5.5868 4.15031 0.402361 0.781521 0.481125 -0.169809
243 1 9.41247 7.6914 2.50323 1.33734 1.59902 1.03546
244 1 5.78817 3.90526 5.26994 -0.563438 -0.126902 0.83607
245 1 5.69592 2.76482 3.23947 -1.10248 -1.11572 -0.288197
246 1 8.01357 2.1062 2.67472 0.0125491 0.397298 -0.311482
247 1 5.40159 3.38069 2.42041 0.0353243 0.164839 -0.136998
248 1 4.90068 8.6297 6.73941 -0.614163 0.601556 -0.893735
249 1 5.22447 5.26839 4.22539 1.10755 -0.1895 0.233351
250 1 4.34336 5.89756 4.83467 -0.786706 -1.40419 -0.65483
251 1 5.61659 2.44295 8.00277 1.32463 1.53761 1.94462
252 1 9.01407 5.30596 3.58806 -0.277734 -1.22351 0.21267
253 1 2.60235 8.40945 2.00893 -0.309482 1.14462 -0.470345
254 1 5.95316 1.14185 1.62048 -0.752628 1.63653 0.316623
255 1 6.93942 5.0523 3.56418 -0.513443 0.472058 0.114508
256 1 9.12562 4.07446 8.84497 0.752934 -0.198545 -1.84898
257 1 7.70528 9.28484 3.9377 0.745811 0.300905 -0.8369
258 1 2.08996 8.93665 2.91879 -2.36078 -0.44185 -0.222496
259 1 5.51672 5.36909 6.29689 -0.127281 -0.61012 0.358441
260 1 3.58851 3.68505 0.656959 0.328041 0.183609 0.638152
261 1 0.304171 7.53945 8.99139 0.521658 -0.0450746 -0.0715072
262 1 7.53796 0.722166 1.14403 -0.789485 0.734772 -0.0742098
263 1 7.95132 6.70386 4.4822 0.452347 -0.601057 0.865193
264 1 7.78238 4.9385 6.93822 -0.181493 0.417545 -0.725486
265 1 4.9155 2.40277 2.51929 -0.442636 -0.402406 -0.502855
266 1 9.17024 6.72338 8.30534 -0.0733849 0.155663 0.220235
267 1 5.43974 2.18276 1.54891 -1.44114 0.401474 -1.62566
268 1 6.3782 0.845602 9.3295 -0.192138 1.11122 -0.304287
269 1 1.77525 6.7765 0.845612 -0.0313674 0.567808 -0.37345
270 1 0.92562 8.45146 5.50176 0.801635 -0.0611383 0.0200059
271 1 2.91612 6.18615 0.922692 -0.0477184 -0.697662 1.40346
272 1 1.41663 4.25557 8.86019 0.469544 -0.707212 0.650865
273 1 6.75485 4.97717 1.77995 0.634806 0.439524 -0.33914
274 1 4.13964 3.67897 9.15529 0.341708 -0.365089 -1.60848
275 1 5.56083 8.58167 1.85328 -0.1003 0.42897 -0.0621361
276 1 7.4975 8.52568 1.90893 -1.10781 0.181388 0.528929
277 1 5.12317 9.19475 3.52851 -0.0445936 -1.03594 -0.576935
278 1 2.43717 2.89373 5.62669 -0.817683 0.196855 1.22187
279 1 0.367611 4.67912 1.28075 -0.768356 -1.01826 0.523927
280 1 3.7113 1.52426 6.45098 0.055171 1.64775 0.23673
281 1 6.6124 8.17317 2.39792 0.323219 -0.0970829 -0.792068
282 1 1.0793 0.824943 3.01961 0.371059 -0.139562 0.938089
283 1 0.199256 7.64233 5.67653 0.211298 -0.0145155 0.158122
284 1 7.54368 5.73389 4.17073 -0.219687 0.859629 -0.0664598
285 1 8.02426 0.728667 5.06676 0.597909 0.954389 0.145753
286 1 2.28741 1.79699 5.97238 0.604492 -1.02364 -0.784438
287 1 4.32892 8.14545 7.51312 -1.5124 -1.86141 0.482874
288 1 0.879395 7.45102 1.38102 -0.242715 -0.0779799 -1.1492
289 1 5.8756 1.7754 0.523576 -0.418617 0.393682 0.152519
290 1 3.73251 5.55751 7.52709 -0.0980342 0.200281 0.145263
291 1 6.5236 4.94777 8.1169 0.346992 -1.86267 -0.828274
292 1 4.13861 4.59562 7.1887 0.163207 -1.48987 -0.088233
293 1 9.08251 3.43763 2.75483 -0.509108 -1.19203 0.315096
294 1 0.425959 3.20765 7.66223 0.145233 0.72508 -0.381349
295 1 6.1084 2.36177 5.45674 -0.0945661 0.49613 -0.0748037
296 1 7.27186 6.82317 0.914292 -1.01759 0.178445 0.613271
297 1 8.16043 6.08132 5.4329 1.21109 0.65842 0.040637
298 1 2.11176 5.09684 6.89668 0.617095 -0.29133 0.523776
299 1 2.29721 0.421183 3.92338 -0.760805 -0.327514 0.427134
300 1 0.703844 2.12441 1.48985 0.629306 -0.854963 -0.309241
301 1 4.54705 8.89419 8.73583 0.334955 -0.519935 0.644799
302 1 6.48538 0.645347 4.20729 0.0494058 0.812986 0.609059
303 1 3.96249 1.83312 5.05597 1.68163 0.484088 -0.982203
304 1 0.605245 5.95826 7.79605 -0.285044 -0.817862 0.190624
305 1 3.47252 0.96349 7.47569 -0.0796861 0.77826 -0.192313
306 1 1.12676 8.43452 3.16024 0.622851 0.505601 0.93672
307 1 5.84019 8.96235 6.00681 -0.113388 -0.137466 -0.595757
308 1 2.69473 8.51351 8.12231 -0.0477338 0.353509 -0.0494796
309 1 7.91887 6.1219 7.18455 -0.014336 0.777618 1.7305
310 1 8.62527 6.22196 3.06153 0.813387 -0.046125 0.116617
311 1 8.882 7.97283 0.0295011 0.852799 -0.994318 -1.26644
312 1 5.7496 6.1184 0.98201 -0.727911 -0.722359 0.00822286
313 1 7.20169 6.43662 3.56025 -0.169342 0.224081 1.20619
314 1 7.24662 3.6642 1.80386 0.390952 0.455045 0.486308
315 1 3.15471 3.9498 6.97463 -2.22396 -1.89569 -0.314562
316 1 0.0147005 5.59758 8.53465 -0.496416 0.0428726 0.462513
317 1 8.44156 6.17295 1.94226 0.721334 -0.097477 -0.369657
318 1 9.005 4.44025 3.0485 0.349741 0.023028 0.754095
319 1 3.43539 1.5231 2.51765 0.855303 0.906062 -0.175893
320 1 5.13064 6.87043 6.03407 -0.248789 -0.944019 1.09595
321 1 0.376609 3.85912 0.241805 -0.683055 0.984494 0.84333
322 1 2.5264 9.38481 5.19849 -1.28273 0.897966 0.71963
323 1 2.15569 2.62607 3.21578 1.21806 -0.998338 0.146914
324 1 1.8847 5.86938 8.58365 1.39319 0.0893077 -0.892204
325 1 7.84165 7.5916 0.380131 0.0393885 -0.0983562 -0.337695
326 1 3.6524 1.65692 3.60984 0.959024 0.164797 -0.31751
327 1 3.30891 2.21895 1.55076 0.368808 -0.985713 -1.40765
328 1 7.58299 3.6897 4.56738 -0.727431 -0.541532 -0.90427
329 1 9.02951 0.316902 0.871697 0.298344 0.576966 -0.44599
330 1 3.27837 2.94391 9.31961 -0.365436 0.630422 1.13415
331 1 2.15211 0.960046 4.83717 0.190171 0.299065 -1.07647
332 1 2.90689 1.36603 4.26818 0.783729 -0.026589 1.20972
333 1 1.34022 3.02576 1.7248 -0.0664075 1.0619 -1.07913
334 1 2.74169 6.75166 6.11508 0.89192 -0.847381 0.932431
335 1 0.673063 6.68627 0.686935 -0.843783 -0.601279 1.33985
336 1 6.00032 5.60317 3.62664 1.24574 -1.64649 -0.118356
337 1 8.32832 0.650084 3.15792 0.153854 -0.0180567 -0.367241
338 1 6.26875 1.94047 7.25408 -0.368957 -0.887294 -0.0935749
339 1 5.83567 6.15557 9.00085 -0.950891 -0.391446 -0.817093
340 1 2.9371 7.83294 6.01496 0.78439 0.185115 0.00207652
341 1 6.8114 7.85123 7.81569 -0.951417 0.379253 0.122538
342 1 0.0825329 0.938223 7.5425 -0.864904 1.11994 -0.180906
343 1 8.02891 7.01631 3.36941 0.13781 -0.804955 -1.55122
344 1 1.41064 3.15203 7.05159 0.727467 -0.357302 0.737668
345 1 6.73824 7.48668 5.37058 1.14387 -0.355697 -0.178869
346 1 0.435186 3.03751 1.07705 1.00101 0.654199 0.0705243
347 1 7.23756 6.30947 8.11688 0.00364669 1.14009 0.152936
348 1 6.53279 1.40698 6.33315 0.648652 0.463307 0.287974
349 1 4.00821 2.50035 0.769385 1.62645 -0.345759 -0.524888
350 1 1.29941 2.54667 5.0989 -0.819339 0.134212 -0.507968
351 1 6.03216 9.20095 0.00348628 -0.27075 -1.1731 -0.536583
352 1 4.57257 6.50548 6.94346 -0.353816 -1.86278 0.246247
353 1 8.68613 4.49844 4.2109 0.565809 0.325089 -0.528955
354 1 1.88901 6.72038 7.01894 0.10357 -1.37874 -0.876439
355 1 1.04757 7.21477 2.42872 0.76291 0.214132 1.01887
356 1 7.25518 2.51268 7.71665 -0.877293 -0.543235 0.970625
357 1 0.0129368 5.1358 4.59905 0.213957 0.151852 1.02753
358 1 4.92824 2.84954 6.38161 0.112882 0.967846 0.289444
359 1 2.21114 5.99755 0.238486 -0.682368 0.0312151 -0.0387714
360 1 4.47889 1.51619 0.0191393 0.0544178 0.855301 0.100801
361 1 9.06298 1.13842 4.94877 0.109592 0.631261 0.108557
362 1 1.79976 1.72314 -0.0404483 -0.566945 0.0243528 -0.781018
363 1 9.18557 4.81236 0.399739 0.129177 0.119467 0.904163
364 1 8.79959 1.26441 2.45733 -0.858597 -0.124369 -0.322984
365 1 4.43756 5.20628 0.321432 -0.867293 -0.369122 -1.46199
366 1 5.05936 0.420552 1.58021 0.0982117 1.17245 -0.385977
367 1 1.99659 4.03395 6.89484 -0.711488 -1.29476 -0.821132
368 1 2.80275 5.11161 3.62084 -0.711913 0.330294 0.228307
369 1 0.0229136 8.1619 1.56897 -0.337879 -0.949245 0.277619
370 1 1.91529 8.43977 0.356123 -1.19991 -0.648914 -0.10821
371 1 0.745237 9.37707 3.43267 -0.882825 0.805572 -0.411166
372 1 4.71698 4.0494 5.57455 0.294109 0.487606 0.712007
373 1 6.69819 4.00217 8.44852 -0.143254 1.25752 0.331049
374 1 8.80044 0.0842797 2.34965 -0.028502 -1.58506 -0.667914
375 1 3.65077 7.36772 1.57037 1.4251 0.233971 0.0479736
376 1 3.5803 4.50728 8.8567 -0.690035 0.236231 0.41737
377 1 3.80337 6.64747 8.644 0.774575 -0.0426585 -1.17577
378 1 4.43125 7.26845 2.50808 0.177805 0.826597 -0.4641
379 1 7.72181 4.58801 1.7826 1.14721 1.20324 0.115713
380 1 0.208737 2.87417 5.06428 -0.787357 0.16339 0.540145
381 1 3.32309 2.96433 5.00174 -0.624399 -0.621692 0.0736626
382 1 3.73638 8.31075 5.32783 -0.221638 0.398897 -0.0738284
383 1 1.39955 6.66926 9.12905 1.70274 0.412815 -0.426982
384 1 5.46762 8.21754 3.91098 0.530188 -0.511124 -1.12786
385 1 5.17917 5.03486 1.05269 0.291329 0.149528 -1.26329
386 1 8.92209 7.13509 4.06195 0.43337 0.0357683 -1.16566
387 1 0.265756 3.74882 1.98385 0.0905135 -1.25619 -0.535244
388 1 5.21137 0.261888 8.3778 -0.783297 0.488784 -0.0979288
389 1 6.3155 0.836634 7.24845 0.0256623 -0.148937 0.188402
390 1 3.67418 6.60508 5.50919 -0.786319 -2.1984 0.701691
391 1 9.26092 8.89276 4.69407 0.792166 1.08047 -1.19781
392 1 4.3481 6.0061 2.94143 0.424637 -0.563547 0.519636
393 1 7.21122 8.44565 4.32384 -0.566522 -0.0990038 -1.04422
394 1 4.48833 3.10784 3.25776 0.891287 0.3172 0.676241
395 1 6.09781 1.02459 2.65909 1.09624 -0.340549 -0.63242
396 1 3.1449 0.596964 1.00483 0.0872984 0.839288 -0.10581
397 1 6.04762 4.5453 3.86323 -0.624038 0.690784 0.763007
398 1 8.73053 4.87837 8.15182 0.301971 -0.482386 0.752131
399 1 7.20931 0.567464 3.22694 0.768398 0.683753 0.692973
400 1 0.687598 4.23466 3.03548 0.121749 -0.132626 0.745094
401 1 5.61549 5.19228 0.179962 1.20148 0.30967 -1.57879
402 1 1.67615 4.75794 3.71012 0.59 -0.0823138 -0.533294
403 1 1.41893 3.36549 2.71505 -0.818285 0.148182 0.389832
404 1 3.83313 0.0400348 1.61834 -0.367147 0.606708 0.0990364
405 1 1.88985 3.57571 4.83007 -0.655977 -0.405044 0.529884
406 1 4.88218 1.43402 1.07037 0.863381 0.993071 -1.83773
407 1 6.65579 9.00185 1.5418 0.462449 0.14975 0.155921
408 1 2.72521 1.26795 0.446942 -0.262864 0.951347 0.0302137
409 1 0.0439191 4.12357 4.81385 0.227631 0.602095 0.561139
410 1 7.00225 3.31114 0.753596 -0.757429 -1.1545 -1.17897
411 1 6.44007 3.29569 2.78238 -0.232716 0.31517 -0.219887
412 1 2.27509 5.7925 4.35178 0.187159 0.695137 -0.116806
413 1 1.90643 9.04944 8.7432 -0.849378 -0.259182 0.271199
414 1 5.65961 0.640869 0.655936 0.967557 0.849471 -0.0713522
415 1 6.99003 0.283232 8.71718 -0.379558 -0.961541 0.967059
416 1 0.38226 9.24836 0.1092 -0.594953 -0.28995 1.28461
417 1 8.08298 2.98831 2.07416 0.249204 1.1225 -1.27815
418 1 5.654 1.95134 6.46647 -0.0201878 -0.508965 0.382564
419 1 1.39109 2.35816 2.59396 1.33026 -0.218912 0.268961
420 1 0.0978807 3.98588 6.06733 -0.725092 0.669883 0.986857
421 1 1.88675 7.97273 8.7071 0.430821 -0.382703 -0.255727
422 1 7.44433 0.840184 4.27103 0.348225 -0.428424 1.65019
423 1 6.71451 3.14959 5.07541 -1.13556 -0.732902 0.203072
424 1 3.25736 5.67427 2.83449 0.438718 0.8003 -0.464388
425 1 8.74762 3.36041 5.61778 1.22975 -0.210647 1.036
426 1 1.11168 2.51797 7.96742 0.495777 -0.31438 -0.886323
427 1 7.48096 3.26027 3.0374 1.22276 0.929069 1.02585
428 1 2.98535 8.08425 0.834597 -0.0206972 -1.22583 0.392914
429 1 5.46071 1.33942 8.14839 0.306109 -0.106625 -0.146414
430 1 8.92005 2.86585 1.57485 -0.661004 -1.0813 -1.51974
431 1 8.64781 5.62626 6.52506 -1.04328 -0.118152 0.739723
432 1 1.98844 7.52211 4.40377 -0.226955 -0.44039 0.674859
433 1 8.20339 2.54438 7.0556 2.14453 -0.113168 -0.249498
434 1 6.91844 3.95698 3.65787 0.499813 0.365026 -0.434446
435 1 7.59953 5.7472 6.31399 -0.612159 -0.523093 -0.392147
436 1 0.0640398 6.82438 7.28466 0.662401 0.613116 -0.0618257
437 1 3.20631 6.36113 1.88559 0.630951 -0.30755 -0.766186
438 1 2.95782 5.34015 1.88327 -0.849651 0.999523 -0.937534
439 1 4.46422 0.462709 9.07535 -0.320102 1.05472 0.396618
440 1 3.5928 8.3667 1.61949 0.057911 0.0469463 0.784602
441 1 5.43788 2.7249 9.07513 -0.245483 0.577286 -0.0980198
442 1 2.49015 6.78101 8.78485 0.0747129 -1.2397 1.10172
443 1 2.0474 4.31247 0.949182 0.527994 0.333279 0.324767
444 1 5.52549 6.04052 7.35299 0.76726 -0.632631 -1.03447
445 1 0.477138 6.30468 9.0844 -0.626397 -0.4724 -0.498644
446 1 8.02924 2.30956 8.32815 -0.333765 0.187182 0.0575592
447 1 0.227815 4.8034 2.30835 -1.17657 -1.01266 0.493965
448 1 1.01915 8.13147 4.18086 -0.247193 -0.139753 0.430589
449 1 6.61051 8.63166 5.24019 0.326025 -0.224142 0.308358
450 1 1.86889 1.57568 8.34801 0.932022 0.405796 -0.379741
451 1 7.4709 4.34713 7.74483 -0.382731 -0.136894 -0.540831
452 1 8.86406 6.45891 1.00744 0.503463 -0.416174 -0.491927
453 1 2.46416 0.900692 7.73303 0.364804 -0.0936959 -0.577467
454 1 4.20577 6.37009 0.184133 -1.04932 0.494694 0.521519
455 1 1.09023 7.649 6.19871 0.916364 0.0288621 1.44007
456 1 0.561047 6.67275 5.35823 -0.0625073 -1.34883 0.457015
457 1 7.07076 4.65866 6.16818 0.0633528 -0.0653004 -0.168939
458 1 3.85471 8.20599 6.41139 0.972011 -0.267195 0.424791
459 1 7.10641 2.50216 5.78241 2.01389 -0.346823 0.315486
460 1 2.8253 2.50151 4.04117 0.0973789 -0.897573 -0.287963
461 1 8.73215 2.8565 7.82594 -0.418353 -1.36645 0.121036
462 1 5.63322 7.13233 1.31594 -1.00655 0.607767 -0.343179
463 1 1.5795 0.113902 0.302512 0.268294 0.457765 0.406048
464 1 8.49673 8.00436 1.0597 1.40167 -0.165085 0.140967
465 1 8.87629 7.47157 6.64549 -1.14777 0.115558 0.0231848
466 1 3.04287 7.77432 7.03754 -0.259804 -0.282687 0.247889
467 1 4.74839 2.58207 7.49339 1.5623 0.290388 0.649335
468 1 7.41448 7.46768 6.15113 0.379065 -0.321461 0.440984
469 1 6.58979 5.14247 4.55537 0.466068 0.715625 -0.960396
470 1 7.71091 3.42776 5.60199 -0.443406 -0.680109 0.470306
471 1 7.80727 1.09392 2.38961 -0.0164423 -0.817362 -0.40282
472 1 0.0793547 2.45365 8.403 -0.0834828 -0.219238 1.20663
473 1 4.38857 3.70569 6.49428 0.655878 -0.138606 -0.682505
474 1 3.87906 9.02234 7.1705 -0.387762 0.47749 -0.545986
475 1 0.856899 8.41679 0.950173 -0.165043 -0.110447 0.589259
476 1 8.83331 3.8785 7.84951 -0.559424 -0.769077 0.172798
477 1 8.50448 8.68927 3.9551 0.2437 0.360328 0.211208
478 1 4.91383 8.15764 0.0246191 1.57868 0.563443 0.193356
479 1 0.515742 2.31915 7.19803 0.205268 -0.192941 -1.2448
480 1 1.17792 7.59787 0.359462 -0.358118 0.813856 -0.385273
481 1 4.78826 2.19145 3.64973 0.475182 -0.0730581 0.494339
482 1 4.96615 2.33123 0.639127 -0.3941 -0.483364 0.293132
483 1 3.08555 4.96543 6.95438 0.0937119 -1.20823 -0.111987
484 1 2.30067 0.513679 2.85416 1.26492 0.999348 1.10539
485 1 7.17636 7.81883 8.87965 0.486185 -0.71665 -0.871984
486 1 6.18151 8.39643 8.70001 0.425829 0.854725 2.86561
487 1 5.87265 6.95628 5.37253 -0.842667 0.250595 0.592854
488 1 8.43943 7.05093 7.65135 0.947697 -0.00311305 -0.683824
489 1 9.28029 1.23351 0.440457 -0.25391 -0.066015 -0.07772
490 1 4.7245 8.97145 2.28657 -0.266848 0.486755 0.659017
491 1 6.12957 7.72282 3.25746 -0.610015 -0.306528 1.1577
492 1 3.28412 2.25282 5.85015 -0.0009805 0.189696 0.307633
493 1 8.9699 2.40856 2.59656 -0.306676 -0.878986 -1.00356
494 1 5.25386 3.06418 5.2906 -0.675715 -0.478148 -0.225052
495 1 4.67107 1.14109 3.71539 -0.474474 -0.0264029 0.493837
496 1 4.24115 2.82921 5.51299 -1.31952 0.711344 -0.615233
497 1 2.26008 2.67087 7.87424 0.0456622 0.782909 0.293811
498 1 1.27401 0.847591 1.89155 0.431807 0.909418 -1.00279
499 1 3.52043 7.1366 0.596124 0.0893223 -2.44016 -0.029515
500 1 5.76677 3.47979 8.19962 0.387637 0.550145 -0.276988
501 1 5.71665 6.27216 4.51303 0.0115207 1.06532 0.393077
502 1 0.133248 8.76623 7.55951 1.40572 -0.0766454 -0.488366
503 1 5.38089 8.74056 7.87075 0.26882 0.58634 0.0884585
504 1 7.46572 7.06099 7.3266 -0.0260993 0.224702 -0.870051
505 1 4.01919 4.96873 5.26397 -0.346226 -0.245999 -1.77305
506 1 9.22443 8.6118 5.78822 0.220993 -0.210766 -0.0415922
507 1 9.19353 2.152 0.889828 -0.265448 0.945478 0.460941
508 1 6.58238 1.14136 0.866964 -0.758093 -1.09464 -0.00192008
509 1 3.68121 8.73855 8.13272 -1.25567 -1.72556 0.107831
510 1 0.19288 7.79722 4.65537 0.0896654 -0.859059 0.240491
511 1 8.49915 0.519432 4.1454 -0.508226 -0.333355 0.387761
512 1 5.05564 4.93364 5.21966 -0.498796 0.290316 -0.512932
513 1 8.92657 6.94995 9.33561 0.828123 -0.17735 0.348216
514 1 0.906306 6.6635 6.52428 -1.06597 0.428362 -1.31883