LAMMPS data file

1000 atoms

2 atom types

0 9.4 xlo xhi
0 9.4 ylo yhi
0 9.4 zlo zhi

Masses

1 1.0
2 1.0

Atoms

1 1 2.26177 2.01558 0.0424446 1.95617e-01 1.29979 -1.17318 
2 1 8.93775 2.19609 8.55968 -0.905996 0.0649236 0.246998 
3 1 4.14552 4.85006 3.29621 0.7256 -0.833113 -0.490475 
4 1 5.51758 6.90887 8.15682 -0.789073 -0.172543 0.415414 
5 1 2.38545 9.18422 4.602 -0.143345 0.306932 0.121406 
6 1 6.20808 0.586756 7.79744 1.14621 0.321748 0.748889 
7 1 1.9891 8.20533 8.52363 0.783803 -1.2151 -0.120036 
8 1 4.02622 2.79635 6.79762 -0.312783 0.196939 -0.789934 
9 1 3.18908 2.79247 4.50852 -0.244802 -0.827792 1.1347 
10 1 8.03957 0.42309 8.63077 -0.553566 1.22465 0.308814 
11 1 0.840738 2.98885 9.04082 0.200495 0.936181 -0.107639 
12 1 7.68215 1.17127 2.77503 0.179306 0.458125 0.287058 
13 1 7.62661 1.62169 5.22698 -0.426361 1.04898 0.413214 
14 1 3.36894 4.86351 9.27178 -0.369263 -1.55 -0.503808 
15 1 8.48528 2.95312 1.19859 -0.307642 -1.39108 -0.861673 
16 1 1.97613 0.874878 6.4567 -0.213904 0.062421 0.245575 
17 1 9.20214 3.65575 6.81571 1.04411 -1.01053 -0.178016 
18 1 7.75511 7.84421 8.69061 -0.45131 -0.642039 -0.0227376 
19 1 3.69982 0.741646 7.99324 -0.300791 0.00208102 -0.565065 
20 1 4.7479 2.60535 7.43648 0.67143 0.881256 -0.426932 
21 1 0.316622 3.10864 2.76059 -0.036051 -0.677401 0.305308 
22 1 3.60672 4.74433 5.70147 0.0453443 -0.878239 0.232974 
23 1 5.67145 1.92024 8.72894 -0.0670367 -0.399171 0.31186 
24 1 2.96425 6.34296 5.90778 0.731197 1.35004 -0.818016 
25 1 6.17054 1.97938 7.70515 -0.749387 0.0610692 -0.3786 
26 1 0.661434 0.441475 5.44633 0.143286 1.17331 0.288644 
27 1 6.82891 9.16653 9.0092 -1.20476 0.191874 0.256976 
28 1 3.67326 4.02107 6.34428 0.668765 0.270986 -0.92123 
29 1 1.11278 4.34217 7.65867 -1.08765 0.254144 0.263783 
30 1 9.21183 2.33841 2.48217 -0.172205 -0.193658 0.545885 
31 1 8.85652 3.03353 4.43379 0.0274398 -0.29357 0.383326 
32 1 4.14728 1.61606 5.25035 -1.31743 -1.07006 -0.216315 
33 1 1.72606 2.97221 8.48449 -0.873661 -0.194783 -0.744323 
34 1 6.2366 7.60562 1.29973 1.13563 0.239885 1.45726 
35 1 7.63468 0.494291 6.2041 0.501339 -0.602387 -1.2603 
36 1 7.98393 6.92467 8.71172 -0.998059 -0.338714 0.965651 
37 1 5.77185 2.72803 2.28361 -1.41701 0.484752 0.720133 
38 1 2.2142 8.97818 2.54273 1.07537 -0.611544 0.178896 
39 1 2.57211 7.25862 5.91713 -0.804961 0.123783 -1.45919 
40 1 2.17283 1.24753 0.610441 0.704594 -0.0723098 -0.44441 
41 1 5.29371 0.569062 7.35412 0.578341 1.30869 0.116311 
42 1 0.915716 8.32386 6.76072 0.659211 0.523097 -0.00396538 
43 1 3.16274 0.804743 2.28473 -0.267501 0.186139 0.74102 
44 1 5.73179 2.43617 4.79078 1.2712 -0.921916 0.670881 
45 1 4.35052 1.04903 6.03763 0.624809 -0.153435 -0.80212 
46 1 1.32927 8.68964 2.66793 -0.795326 0.513696 -0.610975 
47 1 3.41414 6.0628 6.74839 1.45881 0.085751 -0.103605 
48 1 7.8533 3.45417 2.83903 0.41541 0.290781 -0.769314 
49 1 4.21845 4.03373 5.52721 -1.55902 0.280106 0.339994 
50 1 0.431706 0.274716 3.06564 0.182841 -0.492679 -0.622333 
51 1 5.37235 5.15955 4.67844 0.0598218 0.13783 0.98327 
52 1 5.36181 2.34986 1.12355 0.0577584 -0.510091 -1.07489 
53 1 6.29808 2.85106 5.43146 1.03998 -0.797861 0.0298868 
54 1 9.02182 7.3356 6.72649 -0.141011 0.0559832 0.833371 
55 1 1.62761 2.55005 6.85437 -0.544464 0.459967 0.243861 
56 1 2.83514 3.47732 6.17145 0.750307 0.301925 0.644012 
57 1 0.525766 0.537393 7.03995 -0.318012 0.93268 0.0461159 
58 1 0.338879 7.85267 8.24372 -0.287743 0.390828 0.951488 
59 1 0.149806 0.404011 6.19572 1.02139 -0.217379 -1.10398 
60 1 8.81888 6.6166 8.22103 0.416184 -0.0744253 -0.581626 
61 1 5.21276 5.19142 1.9914 1.12814 -0.368727 -0.673697 
62 1 1.25192 1.10458 1.92896 0.254936 -0.588561 -0.874245 
63 1 4.28856 4.74399 7.94431 -0.494336 0.513564 -1.40099 
64 1 4.18418 5.72243 8.16756 1.30952 0.840372 0.287974 
65 1 3.3074 2.88848 9.14215 -0.0478519 -0.813454 -0.140153 
66 1 5.43231 5.3452 9.17238 -0.827229 0.712486 -0.308813 
67 1 4.68694 7.93682 2.67959 1.68003 -0.268701 -0.0197456 
68 1 2.5257 6.51228 7.88297 -0.580847 -0.586758 -0.702486 
69 1 4.35694 2.80226 9.24073 -0.651067 -0.733601 0.0826168 
70 1 0.870577 2.83635 3.48758 -1.1083 0.559669 -1.06128 
71 1 6.41457 6.59564 8.52869 0.396353 -0.0107838 0.30005 
72 1 4.85939 7.30173 0.911468 -1.48544 -0.0482146 0.0827119 
73 1 3.26371 5.36571 1.94237 0.781808 0.148621 -0.461463 
74 1 4.80615 7.71222 8.05419 -0.690482 -0.782363 -1.01065 
75 1 1.46828 9.0466 4.30914 0.815027 0.934191 0.0633358 
76 1 5.21194 1.86648 4.24443 -0.842284 0.562584 -0.862759 
77 1 3.74511 3.86784 7.29143 -0.483196 0.207005 -0.562384 
78 1 9.22239 7.2757 7.66205 -0.614783 0.225662 0.412861 
79 1 5.68486 5.33885 2.96382 -0.683023 -0.444229 -0.98775 
80 1 8.46129 4.30849 4.6763 0.229735 -0.734306 -0.989803 
81 1 3.09589 1.44423 2.99404 -0.581743 -1.42862 0.0939504 
82 1 6.39532 9.39263 1.75493 -0.385204 -0.36863 1.2831 
83 1 2.85525 8.38973 4.94233 0.866491 -0.595882 0.0816319 
84 1 7.89427 6.19951 7.22483 0.103317 0.95884 0.418837 
85 1 2.76173 4.65331 2.5496 0.166796 -0.11158 -0.0662952 
86 1 4.75884 4.06861 0.758341 -1.06486 -0.466979 -0.607531 
87 1 7.87922 4.16419 3.91664 -1.132 -0.109519 0.568679 
88 1 1.92448 7.97089 6.02449 0.813086 0.282061 0.455688 
89 1 1.08678 4.27561 8.85427 0.412538 -0.0131429 0.651011 
90 1 5.26769 9.11768 4.80175 0.512994 -0.0248741 0.809928 
91 1 8.57007 5.27454 6.99157 -0.0324591 0.247634 0.258163 
92 1 1.02504 9.34463 8.15002 -0.262531 -0.57927 -0.0482123 
93 1 2.27069 9.08409 0.187924 0.826463 0.0143896 0.698056 
94 1 5.72889 7.63651 7.61675 0.20983 1.27726 -0.772581 
95 1 5.41025 6.74033 4.36971 1.04333 0.866978 0.9285 
96 1 3.34233 8.31101 7.76907 -1.0219 -1.22437 0.128413 
97 1 4.26188 3.45955 1.25357 1.11826 0.270494 -0.170471 
98 1 8.20162 8.73967 0.942323 0.877781 0.804425 0.160682 
99 1 1.05642 1.17887 6.54411 -0.286165 0.0479697 -0.934425 
100 1 4.45089 1.93702 6.7214 0.292647 0.134843 -0.562815 
101 1 5.74271 7.00845 0.677674 0.449455 -1.81236 0.0402399 
102 1 6.07202 8.41137 7.13162 0.323438 0.450131 0.918359 
103 1 2.65876 0.854457 3.5433 0.771159 0.200962 1.1708 
104 1 1.38149 9.20232 0.658682 1.08053 0.0589759 0.359188 
105 1 5.78185 0.467405 6.54137 1.03558 0.340678 0.231594 
106 1 5.40148 2.62093 5.68426 0.908673 1.2559 0.0162144 
107 1 8.59721 7.61804 8.28287 -0.959671 -0.092313 0.390774 
108 1 7.95317 0.251118 7.05673 -0.0172939 -0.240577 -1.66899 
109 1 3.24604 3.46717 3.85797 1.42079 -1.58493 -0.421803 
110 1 1.85174 8.5072 6.97705 -1.20767 -0.217769 -0.170354 
111 1 0.939044 0.715005 0.523952 0.279664 0.913794 -0.215682 
112 1 4.05436 3.03205 3.01203 -0.299982 -0.811532 0.0428792 
113 1 0.32018 6.68373 7.0967 0.772675 -0.284647 -0.183596 
114 1 4.30496 6.37064 2.87619 -0.0899609 -0.87238 1.03791 
115 1 5.02519 1.27285 4.99188 -0.603722 -0.568173 0.766994 
116 1 1.58204 8.41073 0.0176771 0.362692 0.214607 -0.389715 
117 1 4.84793 6.62614 6.59647 -0.0667484 -0.25626 2.08646 
118 1 5.87434 9.10394 8.6485 -1.17461 0.350623 -0.409867 
119 1 7.47143 8.96495 0.322229 0.042741 -0.302752 1.01677 
120 1 5.86487 9.06295 2.52043 -0.0801053 -0.235167 0.510369 
121 1 5.1445 8.32595 7.34597 -0.691812 -0.427497 1.73495 
122 1 0.51298 2.02301 1.25347 -0.236948 0.570123 -0.66123 
123 1 0.647963 1.23757 4.92589 -0.328244 -0.903128 -0.486603 
124 1 2.7656 5.57788 0.156634 0.343341 -0.551646 0.348412 
125 1 8.87751 2.64178 5.35309 -0.217235 0.222593 0.550422 
126 1 2.35878 4.83289 6.90067 0.926515 -0.174393 0.665704 
127 1 3.6065 7.75031 3.81981 -0.340224 0.104704 0.808015 
128 1 4.87778 1.98456 8.16413 0.0116859 1.264 -1.21335 
129 1 3.83861 5.65598 0.421532 -1.35426 -0.775432 -0.479733 
130 1 1.93234 6.10728 7.20007 0.0274591 0.433892 -1.12387 
131 1 0.483784 1.47009 5.84983 -1.40011 0.608268 -0.783609 
132 1 6.53439 4.38546 2.07723 -0.0350578 0.530078 1.53259 
133 1 6.87852 7.4258 0.582638 -1.01082 -0.771311 -0.281828 
134 1 5.13037 1.07151 8.87143 -1.40006 0.0139915 0.514907 
135 1 5.60396 2.65639 8.15035 -0.0391542 0.433345 0.328093 
136 1 2.95547 7.79992 8.47984 0.307383 0.0643814 0.142253 
137 1 3.16965 4.6675 7.51706 0.433172 0.873154 1.22286 
138 1 4.43531 3.82222 7.9908 1.38975 -0.595438 -0.290933 
139 1 1.2581 7.35913 5.09308 0.133325 1.16244 -2.19645 
140 1 1.39431 4.64321 4.7897 0.732997 0.43519 0.478283 
141 1 1.50214 2.56649 0.172689 0.369465 -0.0271692 -0.484763 
142 1 3.46476 2.06976 6.91946 0.768267 0.924379 -1.2402 
143 1 2.51807 5.72072 6.54385 -0.0137206 0.0572545 0.310383 
144 1 7.21114 9.1371 6.62698 0.956977 0.649458 -1.30777 
145 1 3.93779 7.03886 6.87521 0.118702 -0.462631 -0.886542 
146 1 0.519559 9.06217 2.2814 -0.198018 -1.11725 -0.970133 
147 1 2.78328 0.0397995 7.82901 -0.126737 -0.545191 -0.197008 
148 1 8.58212 2.92799 8.02924 0.54188 0.642458 0.712994 
149 1 2.2278 6.5986 0.206164 -0.715371 0.365937 0.45075 
150 1 3.66957 8.51203 5.39667 0.466347 -0.178855 0.318175 
151 1 1.40055 0.981687 5.65891 0.725795 0.235029 -1.17803 
152 1 5.69043 1.42383 0.956748 -1.1223 0.269959 -0.0221574 
153 1 9.12994 5.02036 7.80872 -0.811496 -0.920097 -0.757015 
154 1 5.42063 9.01275 6.74919 0.0241262 1.95033 -1.14124 
155 1 3.72612 8.47026 8.6108 0.550501 -0.00625429 0.745307 
156 1 4.45981 2.53836 1.38221 -0.620233 0.677887 -0.353426 
157 1 7.51134 1.12251 6.90535 -0.54578 -0.00690929 -0.753318 
158 1 1.19035 9.19098 7.1658 -0.572556 -1.18423 -0.56284 
159 1 6.5885 8.34714 5.57787 -0.520137 -0.255357 0.131138 
160 1 6.49696 2.02842 9.27152 -0.571339 -0.221042 -0.800492 
161 1 8.27109 3.56725 1.97414 -1.08997 -0.809103 0.718647 
162 1 7.99345 3.06806 8.87965 -0.320957 0.749476 -0.631798 
163 1 8.00049 2.24537 8.33673 -1.01345 -0.448042 0.319581 
164 1 2.93639 7.39428 7.59433 0.280952 1.40475 0.629611 
165 1 1.30628 1.52681 0.952922 -0.210248 0.357324 -0.0366603 
166 1 7.76337 5.87038 5.73423 1.83811 -0.422294 0.403419 
167 1 9.02888 8.63269 0.420598 -0.247252 -1.83678 -0.581254 
168 1 6.06015 2.92495 1.40202 -1.2282 -0.761378 -1.76369 
169 1 3.71837 5.39801 5.03827 -0.097215 -0.0773204 -1.03602 
170 1 8.1905 8.48103 8.13052 -0.913005 -0.494629 -0.47861 
171 1 8.03129 3.44851 4.55582 0.0100283 0.551366 -0.965008 
172 1 6.04634 9.08989 0.188299 1.03163 -0.281457 -0.222744 
173 1 6.45502 4.68885 3.00453 0.363697 0.0507374 0.123294 
174 1 2.03934 1.53519 3.43009 0.0172896 -0.100881 0.0614007 
175 1 3.68531 0.298621 0.119235 -0.44127 -0.777113 -0.655384 
176 1 1.35834 9.23846 5.26422 0.29301 -0.178439 0.584612 
177 1 2.42832 1.2048 4.39459 -0.884654 0.109154 -0.323586 
178 1 4.91865 8.29317 6.34873 -0.043163 0.718337 -0.282527 
179 1 4.76813 6.11294 8.82136 0.793217 -0.501084 -1.21599 
180 1 4.39081 7.86344 7.02222 0.0208372 0.54887 0.122523 
181 1 0.148819 3.01286 1.06815 0.131886 0.65179 -0.994892 
182 1 6.33768 2.2308 3.00088 0.910984 -0.564281 -0.145822 
183 1 4.40204 9.28586 1.84812 -0.445191 -0.337286 0.881987 
184 1 4.70881 2.92401 8.32743 -0.270411 -2.07737 0.894083 
185 1 1.33884 2.68845 5.97511 -0.0248576 1.26269 0.155477 
186 1 7.10536 5.38311 5.16504 0.391385 0.452065 0.921521 
187 1 4.9564 2.92065 3.4377 -0.0448197 -0.643705 0.171609 
188 1 9.20965 6.51354 6.28511 1.08376 -0.131537 0.76122 
189 1 3.15398 3.06589 7.13857 0.310064 0.488297 0.644583 
190 1 8.89772 4.25789 3.80666 -0.947821 1.61386 -0.33947 
191 1 5.7143 3.60822 8.61418 -1.56168 0.460232 1.57151 
192 1 7.30909 6.35961 6.49219 1.09214 0.287256 0.374774 
193 1 4.47381 8.96224 5.87887 -0.168644 0.0724339 -0.549206 
194 1 2.93256 0.520064 4.90134 0.112466 0.585608 -0.252145 
195 1 8.39447 0.826798 0.342202 1.19293 0.387737 0.317592 
196 1 5.5367 8.57432 4.00492 1.22108 0.525236 -0.866544 
197 1 2.35273 4.62745 3.49905 1.26922 0.195623 0.492872 
198 1 2.85557 5.30917 5.76799 -0.684635 -0.0792821 -0.0339985 
199 1 1.39131 7.16637 6.01714 -0.0160488 0.598589 -0.0914488 
200 1 4.59912 0.502054 3.4496 -0.29561 -0.0586583 -0.241495 
201 1 4.48891 7.39881 6.18528 0.581731 1.07892 -1.18472 
202 1 1.73325 3.72333 4.76296 -1.03243 -1.55708 0.236328 
203 1 2.11597 5.8789 5.69619 -0.676556 0.433654 -0.43629 
204 1 5.31338 3.51067 5.97826 -0.876991 -0.412272 0.655791 
205 1 9.08935 8.46402 7.88353 0.528874 0.765598 -0.537577 
206 1 6.63018 1.74666 3.92056 -0.63586 -0.475632 -0.557653 
207 1 5.9684 1.2794 0.0144151 -0.612767 1.04429 0.505691 
208 1 7.40581 3.89467 6.09661 -0.0175279 -0.0366665 -0.20212 
209 1 6.32823 1.08576 1.6531 -0.0443413 0.093545 -0.769096 
210 1 0.687008 5.23208 6.85388 0.341805 -0.123812 -0.304523 
211 1 3.94585 1.29427 2.64255 -0.46631 0.838167 0.34178 
212 1 4.17154 8.35693 1.99066 0.927926 -0.377234 -0.14177 
213 1 3.41797 0.870374 5.87592 0.945215 0.237767 0.225399 
214 1 9.1662 3.71198 7.79572 0.692204 0.979802 -0.322228 
215 1 1.51906 7.62861 6.8279 0.123477 0.173253 1.57256 
216 1 3.90247 2.42987 8.45766 -0.939856 0.0391018 -0.169203 
217 1 6.69185 2.53161 2.10379 -0.333249 -0.955488 0.108888 
218 1 3.0302 2.38077 0.530592 -0.832405 -0.260211 1.55761 
219 1 4.85518 6.62702 0.212031 -0.0844297 -0.0200123 0.105053 
220 1 7.4277 2.29137 9.09424 -1.40015 -0.719011 -1.18808 
221 1 2.4983 0.966099 5.66544 -0.288463 0.169901 -0.52617 
222 1 4.88818 3.83681 3.72387 0.740872 1.13 0.34879 
223 1 6.47917 6.63413 0.137391 -0.35234 0.797609 -0.101851 
224 1 7.15417 8.16559 9.34454 -1.31989 -0.629723 -0.0495982 
225 1 2.67932 2.07125 4.79366 0.940131 0.281896 0.374754 
226 1 5.02782 6.16656 7.80532 -0.253859 -0.232043 0.499939 
227 1 3.66338 1.30643 1.62207 -0.238187 -0.424099 0.581629 
228 1 7.21243 7.03264 8.12534 -0.215972 -0.442745 0.762425 
229 1 2.95126 8.57803 3.04394 0.358371 -0.237641 -0.342628 
230 1 2.53808 8.20954 9.27408 -0.362447 0.602141 0.0507325 
231 1 1.51257 5.64699 6.47309 0.168025 -0.073657 0.251023 
232 1 5.58705 6.75701 7.20837 0.274434 -0.82898 -1.10036 
233 1 7.64452 7.88507 6.76339 -0.205481 0.618014 -0.172054 
234 1 1.62355 3.54357 9.23353 0.630643 0.562709 -0.218094 
235 1 7.42707 4.75907 4.50267 0.0224502 0.488161 -0.0372713 
236 1 2.71543 5.54359 7.44977 0.773819 0.588192 -0.317436 
237 1 7.81666 2.99993 6.49461 0.391887 1.53117 -0.194506 
238 1 4.24041 7.4285 0.172054 -0.380132 0.0531605 -0.758184 
239 1 2.85219 5.8253 5.0018 0.319514 0.0410711 0.531864 
240 1 3.73681 0.0495934 5.54958 0.335117 -0.367955 -0.83847 
241 1 6.56074 3.52737 3.68997 0.50072 -1.70728 0.278633 
242 1 4.37951 3.37812 6.18084 -0.726455 0.218544 -1.40917 
243 1 5.44325 8.41923 9.34998 -0.106857 0.83004 0.744815 
244 1 6.61586 3.56473 0.864268 0.885733 0.748012 0.532924 
245 1 7.6197 2.03868 2.29223 -0.151205 -0.995182 -0.171422 
246 1 8.09704 7.02845 6.73572 0.744803 0.639439 -0.88485 
247 1 7.55494 1.20054 1.80529 -0.184225 -0.440155 -0.104983 
248 1 -0.00409207 5.77853 7.23286 -1.08563 -0.656013 -0.472215 
249 1 1.08672 5.93124 8.33931 -0.354556 0.266832 -0.95575 
250 1 3.68278 9.15109 3.36068 -0.102814 1.37582 -0.00392647 
251 1 2.25339 9.04859 3.57792 0.844061 0.820892 0.208574 
252 1 5.40906 4.24809 4.42178 -0.797931 -0.222959 -0.41545 
253 1 0.647572 6.08167 6.4282 -0.0957505 0.948251 1.17163 
254 1 5.99666 1.45334 4.58752 0.9484 1.00473 0.209696 
255 1 9.15973 0.610481 1.56025 0.0150288 -0.343078 -0.335499 
256 1 8.38459 5.22063 6.05571 -0.983401 0.0148969 -0.823511 
257 1 3.46561 8.77243 1.50315 -0.121306 0.607912 -0.979476 
258 1 5.419 0.891852 4.06854 -0.0922338 1.17711 -0.00512817 
259 1 4.43064 4.93718 6.03545 -0.131898 -0.724952 -0.206935 
260 1 4.23836 8.84728 6.84079 -0.455314 -0.325655 -0.26479 
261 1 7.77187 2.73819 0.523741 -0.760031 -0.925225 -0.280263 
262 1 4.42288 2.13143 2.98096 0.742487 0.615998 -0.207781 
263 1 6.00137 2.98241 6.3476 0.52861 -1.05793 0.83751 
264 1 7.15716 3.82001 4.43458 0.29427 0.0708248 0.127542 
265 1 7.72558 4.08428 5.20061 0.167618 -0.307765 0.178773 
266 1 8.42445 3.4436 3.63138 1.08209 -0.211352 1.02131 
267 1 2.92513 0.137653 2.92794 -2.34242 -2.10157 -0.297042 
268 1 5.27363 2.83609 9.10324 -1.1313 0.549888 -0.843352 
269 1 2.69513 6.27187 8.83563 0.155756 -1.10539 -0.21154 
270 1 9.11803 1.1786 6.5018 0.712589 -0.708102 -0.294193 
271 1 2.00308 2.20199 0.960491 -0.585465 0.40699 -0.528319 
272 1 4.99167 2.74251 6.52716 0.648226 -0.264341 -0.599119 
273 1 1.06086 5.59459 4.72379 -1.11801 0.295494 0.282118 
274 1 5.15294 8.59751 8.27566 -0.165451 -0.770817 -1.01887 
275 1 3.27875 6.88232 8.39581 0.696042 -0.888151 0.633637 
276 1 1.4107 7.68251 4.17637 -0.0484619 -0.248181 -0.42669 
277 1 7.51552 4.83492 5.84297 0.852913 -0.320866 -0.391255 
278 1 2.38784 2.85663 7.77228 0.251011 -0.701784 -0.983707 
279 1 1.66269 0.624076 1.15057 -0.116083 -0.906196 1.0763 
280 1 6.17975 2.81257 8.90339 0.0584728 -0.294188 -0.450272 
281 1 6.32815 8.24063 2.55669 -0.225287 -1.1808 -0.070297 
282 1 4.5533 8.96465 3.03495 1.70832 0.195576 -1.05913 
283 1 9.18098 0.955824 5.47094 0.538091 0.410887 -0.720302 
284 1 3.47046 0.00308102 8.56964 -0.0269248 0.917445 -1.3859 
285 1 4.32676 5.85412 1.24221 -0.583114 0.302575 -0.103038 
286 1 1.13449 0.266302 6.3079 0.435101 -0.487056 -1.2197 
287 1 3.58091 6.04122 4.3514 0.357541 -1.32878 0.0939272 
288 1 1.34112 2.08203 1.7356 0.845318 -1.43366 0.913401 
289 1 5.8709 3.09365 3.14448 -0.165797 0.960606 0.360636 
290 1 2.39758 7.89884 3.51142 -0.578264 -0.571142 0.979467 
291 1 2.80655 0.314132 6.35649 -0.313063 0.0502674 0.0595565 
292 1 1.90901 3.37048 5.63035 -1.71839 0.0326878 0.407601 
293 1 4.06894 0.365869 2.6244 -2.01657 0.295286 -0.38228 
294 1 1.9491 7.44986 9.12141 0.990255 -1.07929 1.30028 
295 1 4.2794 2.46646 5.85808 -1.10105 -0.568266 -0.425064 
296 1 5.89812 4.23668 7.76804 0.751296 0.391872 -1.42077 
297 1 5.66693 6.08481 0.333546 -0.514525 -0.151388 1.22268 
298 1 3.5855 7.02351 4.51045 -0.482744 -0.163931 -0.576226 
299 1 7.32634 8.23264 0.906898 0.0431506 1.89122 0.581431 
300 1 7.03228 2.94013 2.9078 0.042617 0.381134 -0.508284 
301 1 0.810331 2.6043 7.35385 0.313209 -0.126673 0.413095 
302 1 5.93081 0.0316559 4.16767 -0.337029 1.10544 -0.48643 
303 1 4.03257 6.5189 6.09619 -0.372798 -0.807945 -0.359901 
304 1 7.26558 2.46927 5.48555 0.429648 0.282961 -0.202107 
305 1 3.32969 0.886341 8.89419 0.394001 -0.40396 0.434197 
306 1 0.527456 6.83632 5.73241 -1.25045 0.210713 -0.654159 
307 1 5.50216 8.01711 0.857782 0.816306 -0.969606 0.0858371 
308 1 5.85833 1.51146 2.539 0.908768 -0.372737 -0.212488 
309 1 3.28886 5.07885 6.63349 -0.00698838 -1.13019 1.90634 
310 1 3.01044 0.112199 3.94811 -0.274127 0.293808 -0.264338 
311 1 4.24366 0.849854 0.96597 0.280526 -0.353239 0.203385 
312 1 9.08382 2.3033 1.55243 0.471397 -0.221416 0.0797114 
313 1 6.72797 3.45795 1.81935 0.21152 -0.136521 -0.215497 
314 1 4.79362 3.66315 8.90475 -0.608505 -0.151373 1.09759 
315 1 4.68694 5.37718 7.37499 -0.415989 0.159118 -1.47313 
316 1 2.84329 9.3614 1.93658 -1.38449 0.729875 -0.749921 
317 1 1.36511 1.47072 9.38261 -0.0155959 -0.425431 -0.982088 
318 1 8.78983 6.52992 7.21732 -0.645719 0.471299 -1.04539 
319 1 1.45684 0.700058 7.2484 1.11909 1.05871 -0.893899 
320 1 8.22377 0.23462 2.8521 -0.848325 0.364316 1.12916 
321 1 4.09909 2.69676 4.7599 0.220249 0.858751 0.290181 
322 1 0.262987 8.84405 8.54214 0.399763 0.183473 -0.154031 
323 1 3.8723 8.27564 3.01343 0.742908 -0.61621 0.42717 
324 1 5.85582 4.65572 1.47941 0.263004 -0.695991 -0.0649143 
325 1 6.46752 3.7072 2.73385 0.43821 -0.636576 -0.148304 
326 1 0.687423 8.56338 7.68216 -0.974418 0.257806 0.415536 
327 1 3.42931 6.60549 7.51505 -0.162551 0.269183 0.743207 
328 1 3.70908 4.65333 2.47665 0.110207 -0.627496 0.224955 
329 1 0.55847 2.68604 1.90699 -0.402216 -0.231704 0.276419 
330 1 3.8203 1.76697 0.815259 -1.77938 0.691324 -0.433649 
331 1 3.17257 3.15146 8.21408 -0.12301 0.389279 -1.36126 
332 1 1.73792 2.00284 8.65278 0.60456 0.741832 0.689426 
333 1 5.64274 4.48074 2.49236 -0.0888347 -0.0502232 0.703044 
334 1 3.42464 7.88497 6.92132 0.485325 0.375536 -1.34842 
335 1 5.12848 3.1695 1.60783 -1.33822 0.957191 -0.940446 
336 1 9.15283 7.41863 5.79449 -0.603719 -0.213418 -0.267097 
337 1 5.65378 6.01517 8.50311 0.413835 -0.110343 0.501916 
338 1 7.04556 1.20974 4.57965 0.483883 0.546165 -0.377456 
339 1 6.69701 7.80291 7.53078 0.649108 -0.275848 -0.0311981 
340 1 2.38265 7.08785 2.90032 -0.70766 0.341393 0.889924 
341 1 9.32324 9.06231 1.51468 -1.12119 -0.23111 -0.496943 
342 1 4.1905 6.66583 8.14721 0.242282 -0.3727 0.783598 
343 1 2.44493 3.83292 2.95814 0.289552 0.368941 -1.30673 
344 1 5.09322 1.1992 6.66405 0.480019 0.515131 0.422304 
345 1 0.550755 9.35513 3.97389 0.228112 -0.446156 0.231773 
346 1 0.909923 3.5333 8.25157 -0.462582 -0.375065 -0.0733363 
347 1 3.71817 5.06724 1.16535 0.133305 1.08758 0.999322 
348 1 4.72193 1.92267 9.0649 -0.790237 0.306413 0.144021 
349 1 4.61444 2.1871 0.532919 0.637464 -1.26805 -0.0546013 
350 1 5.09037 7.2802 3.3062 -0.0136732 -0.668838 0.00416353 
351 1 6.17981 5.2339 0.436534 -0.186723 0.729104 -1.00991 
352 1 3.24936 5.92888 8.10593 -0.300892 0.296284 0.78241 
353 1 1.05469 2.25348 4.37923 -0.0459119 0.457548 -0.272249 
354 1 1.76695 0.501196 0.104985 0.565106 0.645666 -0.684128 
355 1 8.05823 4.48254 6.56172 -0.57005 -0.199124 0.255295 
356 1 0.0941592 5.86 8.18132 -0.489323 1.36976 0.399857 
357 1 6.6151 8.47147 1.55965 0.0694967 -0.823715 0.385986 
358 1 5.1908 7.53323 0.0771181 -2.32592 -0.912195 -0.562923 
359 1 3.13791 1.77224 8.60128 0.890226 -0.286784 0.251707 
360 1 5.95242 4.64306 5.25162 -1.29946 0.388675 -0.818257 
361 1 1.14425 1.82236 3.48292 0.577872 0.562539 -1.06437 
362 1 5.67018 3.4001 4.03847 0.518324 1.48205 -0.272823 
363 1 6.41931 7.54569 8.4009 0.209168 1.1237 0.137661 
364 1 2.68894 0.727929 1.37506 1.78165 0.762395 -0.502746 
365 1 1.98698 5.75858 8.07428 0.17389 0.0305659 -1.1691 
366 1 6.8796 5.59508 6.06049 -0.704164 0.328198 0.300849 
367 1 0.695846 3.82917 3.35742 -0.536197 0.284945 -0.127016 
368 1 3.14378 7.83774 1.33966 -0.302558 0.284051 0.561118 
369 1 6.82144 2.29414 8.36284 0.468799 0.764542 0.988469 
370 1 5.1393 2.05606 2.01787 0.957753 0.406972 0.138983 
371 1 0.531996 9.00143 4.88709 0.175311 0.181922 -0.824576 
372 1 2.03107 4.00728 6.32712 0.795361 1.12729 0.754428 
373 1 5.53484 0.474871 0.155593 -0.546068 -0.49007 -0.376751 
374 1 5.85959 5.84694 4.22606 0.636723 1.04932 0.734028 
375 1 6.47928 6.4495 5.82519 1.46743 -0.4023 -0.537934 
376 1 4.28857 0.590931 8.74363 1.56582 0.920422 0.414582 
377 1 1.47125 4.98821 8.33276 -0.354358 0.76514 -0.837977 
378 1 5.70205 8.26336 1.79949 -0.248173 0.726819 -0.10265 
379 1 8.68349 4.35415 7.26897 0.301528 -0.667452 -0.664664 
380 1 8.17916 9.0227 4.62542 -0.113519 0.879711 0.196924 
381 1 2.24134 1.17203 8.97655 1.13552 -0.117969 0.225021 
382 1 6.67218 4.45347 3.9056 -0.852611 -0.753558 -0.046186 
383 1 5.47105 4.65018 0.609308 -0.923654 -0.371293 -1.45498 
384 1 7.62605 0.302936 2.12624 -1.06192 -0.0747906 0.511952 
385 1 5.10937 9.09935 0.575314 -0.237499 0.447706 1.14474 
386 1 8.42489 0.87484 2.18575 0.0853112 0.120254 -0.300847 
387 1 1.08591 0.465175 4.58957 -0.658008 0.507487 1.37151 
388 1 6.73336 9.17265 0.845992 -0.0292144 0.368595 1.29695 
389 1 7.90286 3.18592 5.54327 0.145619 0.0970827 0.0699286 
390 1 3.73401 5.10851 4.12932 0.688003 0.390713 0.262758 
391 1 4.36531 9.13646 8.38457 -0.02232 0.269086 -0.527203 
392 1 8.14646 2.29235 5.88839 0.888981 0.483718 0.346424 
393 1 4.07708 7.72261 1.2222 -0.0737905 0.289597 -1.22927 
394 1 0.823988 3.42728 5.76253 0.109702 -0.33355 -0.290688 
395 1 6.99725 8.6668 7.40807 0.2237 0.915844 -0.977106 
396 1 2.5871 2.75455 3.73235 -0.479066 0.414135 0.746374 
397 1 5.88437 2.96631 0.459575 -0.511301 0.61059 0.131661 
398 1 7.71444 6.18326 8.14941 1.08147 -0.0866564 0.203803 
399 1 2.57466 2.20383 2.90026 0.384162 0.30065 0.311907 
400 1 7.95309 9.39438 3.7485 -0.581104 0.364623 -0.64974 
401 1 5.74382 1.76727 5.46155 0.420529 -0.213535 0.51379 
402 1 8.73451 2.08931 4.34473 0.23792 -0.91146 0.494939 
403 1 0.589903 5.15167 8.73923 -1.59975 -0.0799378 1.15024 
404 1 6.02322 7.78896 3.41533 1.32479 -0.485657 -0.971027 
405 1 1.84106 8.89382 7.85679 0.237871 -0.71411 1.39405 
406 1 4.18908 1.96239 2.05517 0.0637452 0.548253 -0.895206 
407 1 5.37441 1.12026 1.78822 -0.607674 0.153781 0.0158248 
408 1 3.36074 3.39961 1.47498 -0.228484 -0.0892824 -0.315647 
409 1 1.77023 2.51266 3.33754 -0.28963 -0.338458 0.96864 
410 1 0.467647 2.97418 6.57224 -1.12092 0.814953 -0.0419668 
411 1 5.67538 0.572039 4.95427 -1.01969 0.122105 0.980189 
412 1 6.90692 -0.000440816 3.94768 -0.131744 0.493077 0.476463 
413 1 3.44237 7.95377 9.33769 -0.144401 0.446533 -0.629402 
414 1 8.70738 3.57081 5.23226 -0.908158 -0.487301 1.12712 
415 1 2.38398 2.95828 0.112718 0.869963 0.279987 0.667565 
416 1 6.94931 1.81887 1.43945 1.93722 0.4064 -0.264864 
417 1 1.25242 6.23239 5.70274 0.967625 -0.389916 -0.27462 
418 1 5.3972 0.0152451 1.71435 -0.279226 0.980375 -0.125392 
419 1 7.29919 2.87039 4.59502 -0.483913 -0.583122 1.73157 
420 1 1.95476 1.53322 5.13241 0.805076 0.435323 -1.02 
421 1 5.83423 7.84898 4.9612 0.668557 -1.45572 0.277628 
422 1 4.17768 3.20277 3.94363 -0.489345 -0.0581068 -0.0720236 
423 1 9.14984 3.19014 1.93581 0.407873 0.873485 0.552263 
424 1 8.25235 0.806453 5.20903 -0.344649 -0.405242 -0.693096 
425 1 2.87588 1.84071 3.83547 -0.754544 0.86746 -1.09185 
426 1 9.07746 1.46798 1.05493 -1.13223 0.314205 -1.38584 
427 1 6.66333 5.50451 6.98394 -0.369689 -0.452913 1.57503 
428 1 3.38078 8.91089 6.28026 -0.0452693 0.530048 1.55084 
429 1 3.39981 7.29804 0.610071 -0.309507 0.305369 -0.210522 
430 1 2.81403 7.62523 4.36867 -0.745093 -1.05559 1.10642 
431 1 8.72581 1.92562 7.65995 -0.416611 0.414418 1.0189 
432 1 5.58761 1.25304 8.04248 0.286931 -0.478416 0.314402 
433 1 3.25919 0.51024 7.15905 0.253142 -0.913829 -0.583603 
434 1 5.10771 6.365 1.08898 1.59841 -0.424234 1.67945 
435 1 1.66782 1.92153 2.60583 0.452533 -1.54375 0.399209 
436 1 8.37781 1.71368 1.74465 -0.555074 -0.422185 -0.501031 
437 1 8.549 5.79232 7.8021 -0.254762 0.262208 -0.604933 
438 1 6.14708 7.53546 9.37614 -0.379853 -0.598595 0.474205 
439 1 4.64922 8.14957 3.62216 -0.940854 -0.289265 -0.43412 
440 1 2.75159 5.64797 2.70436 0.746495 -0.14331 -0.44427 
441 1 7.23388 1.9516 3.18368 0.796932 -0.342425 1.13299 
442 1 5.60834 5.15688 7.53129 0.471505 -0.968309 -1.13612 
443 1 3.50694 5.02728 8.349 -1.39182 -0.382371 -0.829081 
444 1 8.39098 6.0755 6.45562 -0.398401 -0.0130788 -0.769905 
445 1 4.60381 0.417985 0.212817 -0.428818 1.50678 -0.68923 
446 1 5.99031 5.12339 8.4014 -0.825078 -0.46223 0.305363 
447 1 3.36597 6.01491 1.17832 -0.460075 -0.751961 0.0673527 
448 1 6.35131 9.31776 7.07296 -1.30409 -0.561409 -1.07298 
449 1 0.523414 1.08536 1.30667 -0.0457717 -0.358241 1.01521 
450 1 1.79035 3.96898 8.26267 -0.401317 0.11916 -0.209346 
451 1 5.70035 9.14411 7.69935 -0.316121 0.0860058 0.132462 
452 1 5.70116 6.84494 6.24609 0.651265 -0.534636 1.32659 
453 1 4.82961 7.01477 2.42976 -0.915761 -0.389442 -0.187639 
454 1 4.44881 7.32599 4.08241 1.33026 0.873232 -0.266154 
455 1 6.19618 3.79021 5.6257 -0.0324374 0.51683 -0.615419 
456 1 7.21884 4.07919 3.18798 0.822443 0.300362 0.360774 
457 1 5.57824 7.61694 2.50157 -0.864755 -0.455928 -1.18584 
458 1 1.57858 7.72857 2.91967 -0.309697 0.683708 1.25343 
459 1 1.2122 7.41954 8.42839 -0.337246 -0.478941 -0.510793 
460 1 8.22986 1.79204 0.721533 -0.378613 -0.64896 -0.419925 
461 1 1.81026 5.2806 4.14777 0.244768 -1.04987 -0.796266 
462 1 3.27169 8.16129 2.21672 0.659903 -0.692263 -0.123431 
463 1 2.27782 9.28328 1.12737 -0.742228 -0.927877 0.47564 
464 1 0.0505295 4.15062 5.54608 -0.588395 -0.421641 0.293145 
465 1 7.91699 8.6664 7.20729 -0.897019 -0.888764 -0.58649 
466 1 6.27147 8.77241 3.40682 0.536736 0.0955553 -0.475724 
467 1 6.60156 1.24532 0.746007 -1.87918 -0.0477234 0.399911 
468 1 9.12033 9.02116 4.34223 -0.135124 -1.18551 -0.301706 
469 1 0.943143 2.50329 8.28143 0.281084 -0.779877 0.575178 
470 1 0.867229 2.08626 6.51344 -0.476401 -0.698687 0.768631 
471 1 1.71846 9.15389 8.79311 -0.818351 1.1295 0.546622 
472 1 4.84759 6.71214 5.60506 -0.292513 0.416938 -0.522887 
473 1 0.217757 2.08211 7.88378 -0.0911506 0.0756222 -0.86632 
474 1 6.55081 0.489563 0.164658 -0.210053 0.234223 -0.95342 
475 1 3.20671 1.41184 7.53061 -0.204853 -0.234999 -0.655292 
476 1 9.39465 1.22565 7.44058 0.515378 0.308441 -0.554433 
477 1 8.84026 0.640055 7.97701 0.254496 0.815298 1.21915 
478 1 0.98224 0.797168 3.71018 0.0433638 -0.994731 0.0059159 
479 1 0.521722 6.71546 8.0559 1.29353 0.793494 -0.0504867 
480 1 5.3516 6.0193 5.97661 0.683935 -0.928562 0.0845127 
481 1 3.86414 6.19916 2.02514 0.470884 0.142549 0.418436 
482 1 4.81712 8.28923 4.57753 0.523569 0.0401037 1.70808 
483 1 5.06885 4.17946 1.66968 0.163287 0.515396 0.128633 
484 1 7.60692 3.44014 1.2138 0.169043 -0.459174 -0.108839 
485 1 0.246855 4.45669 7.22425 0.312535 0.222574 1.07869 
486 1 1.97206 2.12036 4.18717 -1.48252 -0.888411 1.06661 
487 1 0.535281 4.85093 5.06715 0.647802 0.0547434 0.577184 
488 1 6.39846 3.0481 4.51521 1.25021 1.0947 -0.530514 
489 1 1.23539 0.240557 2.46002 -0.0437887 1.29701 -1.57256 
490 1 0.741491 8.41539 4.1445 -0.964844 -0.70528 0.175336 
491 1 5.26437 6.26157 2.95408 1.12815 1.00225 -0.22701 
492 1 2.46487 7.58921 0.587432 0.921748 -0.358868 -0.290625 
493 1 8.09495 7.01607 7.7081 0.582662 -0.487067 0.0253101 
494 1 5.57483 3.38724 5.00885 -1.58006 -1.14853 0.482727 
495 1 2.06941 1.41614 1.59431 0.265884 -0.497784 -1.46238 
496 1 2.99819 1.76854 2.09503 -0.0422249 -0.678032 0.428039 
497 1 7.23748 7.09425 7.16745 0.525565 0.00460309 -0.379743 
498 1 6.03066 0.611165 8.73566 -0.150572 0.315232 -0.200517 
499 1 4.4141 2.2618 3.94708 -0.224776 -0.313575 0.130312 
500 1 4.11467 3.64573 0.205649 0.740528 -0.576891 -0.468438 
501 1 7.64693 5.44307 6.62976 0.142958 0.173676 -0.559671 
502 1 9.35063 3.30709 3.639 -0.182341 -1.09161 -0.286825 
503 1 2.50363 7.82152 6.76097 -0.385918 -0.83929 0.540302 
504 1 3.94094 8.616 4.0927 0.995278 -0.699367 0.214101 
505 1 7.41568 3.56852 0.20877 0.385133 0.863011 -1.36784 
506 1 2.24689 4.24726 5.38142 0.141665 -0.359096 -1.12703 
507 1 5.42776 9.36611 5.79084 -0.727686 -0.523361 -1.0971 