#bin. KALJ data file T=0.5

1000 atoms
2 atom types

0 9.4 xlo xhi
0 9.4 ylo yhi
0 9.4 zlo zhi

Masses

1 1.0
2 1.0

Atoms

1 1 6.48172 8.95636 0.198146
2 1 0.840201 2.32032 1.10767
3 1 4.64636 7.92138 7.04285
4 1 0.48461 1.55576 0.291592
5 1 0.781698 6.22493 5.10757
6 1 4.08932 3.24121 1.44793
7 1 7.65224 5.38104 6.76544
8 1 9.13984 1.77289 8.62921
9 1 9.06928 8.40352 3.41891
10 1 3.29517 6.22893 0.662334
11 1 0.314644 4.99695 1.67619
12 1 7.00793 6.31799 4.61546
13 1 3.687 7.47345 9.06026
14 1 5.32321 7.17927 2.81321
15 1 2.37222 2.43812 2.73028
16 1 5.80862 6.28903 1.33012
17 1 3.87259 2.68906 6.76302
18 1 7.89958 5.29125 3.92815
19 1 7.34904 6.05372 3.66773
20 1 8.74639 2.62179 7.69356
21 1 8.12852 7.65706 0.908435
22 1 0.177261 5.55699 9.29466
23 1 5.92199 7.45108 3.9572
24 1 2.99166 3.6763 0.198651
25 1 1.39177 4.06541 8.59078
26 1 5.25513 5.51202 7.17635
27 1 7.58507 8.23757 3.13633
28 1 8.08546 2.93148 7.2153
29 1 1.18344 7.17713 1.55214
30 1 1.14144 6.31336 0.770312
31 1 0.268828 8.14418 7.40605
32 1 8.74207 6.41572 1.35975
33 1 8.37108 9.08674 2.49179
34 1 3.99707 3.1492 8.33741
35 1 3.48602 2.41713 8.50521
36 1 5.06775 3.47166 3.60311
37 1 7.22329 8.76231 4.36365
38 1 7.5899 2.57699 8.82809
39 1 7.11366 2.85817 0.165446
40 1 8.73188 8.48972 1.72394
41 1 8.565 8.89802 5.31336
42 1 5.91267 5.47477 4.4194
43 1 2.63395 3.16482 2.21226
44 1 6.66914 4.54486 4.46063
45 1 4.27543 3.3933 3.13672
46 1 6.73623 4.21511 1.81834
47 1 5.47388 1.95685 6.19733
48 1 3.61455 9.26812 2.05536
49 1 5.63035 1.48206 3.08487
50 1 0.404809 0.79237 2.3183
51 1 2.55072 0.178821 0.376975
52 1 0.45386 4.41792 9.39552
53 1 2.49332 2.89519 5.41187
54 1 6.094 7.61025 2.66725
55 1 4.78599 3.08926 2.39133
56 1 7.35193 4.53172 1.20861
57 1 6.79843 5.36902 4.21074
58 1 1.46249 4.16579 4.56834
59 1 5.26387 1.80453 2.20164
60 1 9.3045 1.61423 7.20945
61 1 9.02443 5.96676 5.15469
62 1 3.29318 0.386211 9.07263
63 1 5.34562 5.86695 0.580636
64 1 2.79616 3.46004 7.41503
65 1 9.31531 7.95872 6.38845
66 1 1.949 3.27744 7.15986
67 1 8.51251 2.48132 3.036
68 1 3.60889 3.25344 3.79551
69 1 5.72652 2.97975 6.5333
70 1 7.24603 4.20781 0.35835
71 1 1.81513 7.68516 2.49821
72 1 2.20216 7.69765 8.10744
73 1 0.548087 6.9393 8.59959
74 1 2.4082 1.98772 1.23658
75 1 5.23714 4.16721 0.936435
76 1 4.67327 1.12956 4.75946
77 1 0.100319 4.38127 7.17439
78 1 6.63332 9.09602 5.96466
79 1 5.89399 1.5126 8.56669
80 1 2.44056 8.89028 7.64575
81 1 6.44985 2.54596 7.98725
82 1 3.67393 6.37119 5.8243
83 1 4.3856 0.889151 0.349434
84 1 3.56756 5.19386 2.80593
85 1 8.54715 7.46268 5.21964
86 1 8.29499 7.39431 6.45027
87 1 1.70909 3.4543 0.300627
88 1 4.55607 5.53124 2.6448
89 1 1.64765 5.49662 8.5955
90 1 3.71816 4.55104 6.83139
91 1 0.181051 6.26839 5.89457
92 1 4.00813 8.74199 2.9739
93 1 5.49461 0.979231 8.01169
94 1 5.19896 7.61714 7.75949
95 1 2.00737 7.52896 9.23321
96 1 1.76082 2.60688 4.79901
97 1 7.9994 3.93478 7.04946
98 1 1.8027 0.792479 6.46989
99 1 3.27957 2.89766 1.36536
100 1 7.97108 1.0444 4.80607
101 1 4.78932 2.04449 5.52441
102 1 3.16023 7.87041 4.64788
103 1 7.8645 6.17486 0.298728
104 1 7.35124 2.88561 4.59265
105 1 6.5522 9.0244 8.12365
106 1 7.69339 1.09775 8.11922
107 1 5.76724 6.94533 6.84254
108 1 7.06057 1.37508 4.29578
109 1 3.08139 5.81762 8.1691
110 1 5.72879 9.31382 8.15061
111 1 2.52044 5.96949 8.85703
112 1 6.09597 7.32434 5.54515
113 1 1.45469 0.801204 8.37915
114 1 5.51079 3.17662 0.868813
115 1 5.65099 1.15141 6.92436
116 1 7.40038 5.95133 8.50634
117 1 1.60366 8.70627 3.06612
118 1 9.22132 6.63333 7.86649
119 1 6.65814 2.93964 2.44215
120 1 1.59533 1.6681 2.69441
121 1 4.73788 8.23157 0.2228
122 1 1.10636 1.56316 3.47785
123 1 4.7721 8.91229 7.02855
124 1 1.85954 5.25915 2.7821
125 1 0.559502 7.84557 8.29344
126 1 4.06061 5.27817 5.00186
127 1 0.427789 2.302 7.83987
128 1 3.29932 8.23285 7.80361
129 1 4.49518 2.90816 4.99519
130 1 2.33783 1.95022 4.29965
131 1 1.14873 9.40914 3.4366
132 1 8.90741 6.09763 7.20513
133 1 0.307581 0.700875 0.737644
134 1 1.18036 7.91512 7.18836
135 1 1.92906 1.58585 6.97361
136 1 2.86341 8.42445 3.94022
137 1 3.12653 4.63706 0.0584729
138 1 6.36282 7.08929 9.24737
139 1 3.05211 0.0567941 7.80209
140 1 8.28866 9.0793 3.62019
141 1 7.4935 0.128464 1.92127
142 1 2.72866 1.0086 0.905435
143 1 5.1773 7.77682 4.58304
144 1 7.11545 5.13568 7.75177
145 1 8.24967 8.0463 3.60707
146 1 9.05029 2.32899 1.36268
147 1 8.28682 3.28484 8.24432
148 1 8.38404 1.46326 6.18591
149 1 2.94415 6.83809 4.55536
150 1 6.42776 8.28689 4.13513
151 1 4.53191 2.68452 0.825282
152 1 4.21793 1.35897 7.11545
153 1 5.36034 5.61178 3.64416
154 1 3.52784 6.17897 2.85659
155 1 7.34449 8.78841 8.75737
156 1 7.79665 4.38778 3.4456
157 1 6.22107 8.13202 7.63109
158 1 4.6062 2.59244 3.52757
159 1 5.25741 5.2696 6.33993
160 1 2.7871 7.45105 7.3808
161 1 3.49375 1.22389 0.200571
162 1 1.60295 2.57986 1.85939
163 1 3.36274 3.65625 2.70008
164 1 8.33369 0.217876 9.22497
165 1 9.08968 3.63816 4.67601
166 1 6.46898 3.55398 0.151206
167 1 2.13632 9.07986 3.98009
168 1 2.37191 4.57861 4.16763
169 1 6.50915 4.65556 0.693098
170 1 4.13943 4.28222 1.34706
171 1 1.53612 6.8886 4.03377
172 1 5.94853 0.775151 9.13906
173 1 3.92907 9.13533 8.26341
174 1 5.24128 1.2799 0.12533
175 1 1.57928 3.02767 2.90213
176 1 0.631684 1.33232 5.77551
177 1 4.28344 2.53395 8.95115
178 1 0.00682598 7.49232 9.33439
179 1 2.66103 7.07576 0.08464
180 1 2.84554 5.81247 1.862
181 1 5.92172 6.64315 3.24681
182 1 2.0155 0.12332 5.83109
183 1 4.09791 6.40876 7.30559
184 1 4.8785 4.12013 8.71916
185 1 7.85208 6.62058 8.90268
186 1 8.51372 1.46531 7.78319
187 1 1.21315 8.63305 3.91334
188 1 0.306507 3.36815 5.47427
189 1 1.13426 8.42636 2.06847
190 1 2.62521 8.77327 0.0676576
191 1 2.87621 4.18359 6.79409
192 1 7.27411 0.266911 3.56168
193 1 1.2613 4.43055 0.62298
194 1 0.197928 8.65263 4.49802
195 1 6.27327 2.49004 5.76872
196 1 5.70887 9.3602 2.28275
197 1 4.06613 6.43684 0.135281
198 1 4.42335 4.33156 4.95989
199 1 7.89639 5.39644 9.15834
200 1 5.508 4.73294 7.07451
201 1 2.40362 6.43872 3.84505
202 1 8.84852 8.56148 7.88853
203 1 5.12645 2.76418 5.90152
204 1 7.94787 1.94168 0.133596
205 1 5.59575 4.00575 6.12788
206 1 0.493693 4.16227 1.02623
207 1 1.81034 5.11373 7.19526
208 1 4.91641 7.25541 6.57381
209 1 2.96278 3.86963 4.94139
210 1 6.82532 1.09216 9.03297
211 1 5.27685 0.138473 1.33089
212 1 8.63452 4.33855 7.60998
213 1 6.81558 6.89084 3.00653
214 1 3.73969 7.10683 4.5232
215 1 4.91571 3.67052 5.56885
216 1 5.64308 8.09103 1.82609
217 1 5.64429 0.598941 3.80032
218 1 3.80025 5.28898 7.62667
219 1 3.84892 4.08829 0.414512
220 1 1.16222 0.541541 1.06235
221 1 4.45442 6.21579 6.45164
222 1 3.21765 8.64247 2.62888
223 1 6.62006 7.03489 1.00176
224 1 1.02769 3.85093 5.78395
225 1 8.25293 6.43925 3.49247
226 1 8.40007 3.64846 1.17256
227 1 3.55342 2.9969 5.31729
228 1 5.25047 6.71125 8.19114
229 1 6.39186 1.0317 3.59906
230 1 2.81486 2.86175 0.61213
231 1 8.90403 5.42327 1.37589
232 1 3.98 0.552576 7.54955
233 1 4.8332 7.28959 0.353515
234 1 0.388451 6.47644 6.95006
235 1 3.4965 0.231535 2.9231
236 1 8.2683 4.51247 5.12685
237 1 9.23108 4.93106 6.54764
238 1 7.53877 0.272971 8.52888
239 1 0.0869341 4.20851 4.06223
240 1 4.16486 3.81684 2.40509
241 1 6.43292 9.19815 4.19266
242 1 1.36568 4.98794 6.03225
243 1 6.02651 0.422632 0.71274
244 1 3.74906 8.28465 8.49299
245 1 2.96629 4.72915 7.83988
246 1 4.73315 8.72891 8.8327
247 1 9.24311 2.74061 8.61395
248 1 8.46175 2.20201 2.16548
249 1 6.07548 2.26209 7.11754
250 1 7.33319 3.47448 0.846593
251 1 7.17161 3.70495 4.01574
252 1 2.23852 6.6591 7.81674
253 1 7.72094 7.83731 8.6142
254 1 8.43704 8.29542 8.91934
255 1 3.18341 2.33507 6.05853
256 1 4.41518 7.31473 8.05635
257 1 8.96496 4.92959 2.22657
258 1 1.8386 2.60675 0.723516
259 1 2.36119 2.5166 6.26474
260 1 4.31438 1.65773 4.15891
261 1 4.27542 0.703348 8.91457
262 1 1.42695 9.1055 7.27965
263 1 3.16204 7.3589 8.19662
264 1 8.0487 0.352862 3.12825
265 1 2.90026 2.91771 4.54899
266 1 4.57334 6.89305 8.95388
267 1 5.01688 4.88028 3.1328
268 1 1.08272 3.20715 4.32549
269 1 6.22654 0.542481 7.28115
270 1 8.40236 8.34738 6.54927
271 1 5.03111 6.67908 1.05768
272 1 7.84386 3.05468 3.70818
273 1 7.88793 6.57472 2.0634
274 1 4.14801 0.572235 4.11058
275 1 6.60676 5.34407 5.33937
276 1 8.21512 4.2195 8.64006
277 1 9.13174 2.67228 4.67436
278 1 3.6397 4.66458 5.52817
279 1 -0.0212932 9.18448 2.48211
280 1 4.63101 0.409455 6.9384
281 1 6.02802 7.16709 1.72744
282 1 4.57262 3.66344 0.77098
283 1 9.15894 3.90764 8.66697
284 1 5.3244 6.28944 6.64541
285 1 3.76955 7.60117 7.24801
286 1 1.69856 2.51425 3.82382
287 1 7.21244 7.32502 0.149085
288 1 3.77685 0.419285 6.17608
289 1 7.7061 3.83329 5.86514
290 1 2.26298 5.32005 7.93546
291 1 3.23116 5.60295 9.40262
292 1 4.64717 1.6734 7.83177
293 1 0.824227 4.80386 4.26071
294 1 1.38768 1.69778 0.514272
295 1 7.46665 3.77219 8.03852
296 1 5.23804 0.196342 4.59489
297 1 3.37273 1.89666 2.65373
298 1 5.97023 5.55244 2.23103
299 1 7.24984 9.21545 7.06692
300 1 8.17726 4.78733 1.63743
301 1 8.52176 0.0466461 7.12241
302 1 5.91536 8.58435 6.44086
303 1 0.375962 2.52692 0.371073
304 1 6.51275 8.89942 2.17476
305 1 3.37812 6.84562 3.68667
306 1 8.20001 9.06761 0.526401
307 1 1.99851 0.244188 3.23211
308 1 2.8606 0.30792 4.65129
309 1 2.84525 4.98691 5.31675
310 1 6.50562 7.42132 6.9212
311 1 0.044277 3.75121 6.50262
312 1 1.88499 7.22645 5.46806
313 1 9.10157 0.769199 4.58684
314 1 1.61366 4.55613 2.44714
315 1 6.86118 5.28302 9.24329
316 1 6.23498 3.79633 0.898409
317 1 2.1797 8.58374 0.984157
318 1 2.26365 3.56708 9.02402
319 1 1.99948 3.39915 4.46151
320 1 8.04856 1.08512 9.14894
321 1 0.707677 8.66418 6.54217
322 1 1.11533 7.05635 2.54065
323 1 7.36693 4.37733 6.55809
324 1 7.04145 0.320452 4.80015
325 1 4.92982 7.69403 8.73181
326 1 2.79306 3.03953 8.38947
327 1 6.35978 3.66686 4.4442
328 1 1.22065 9.3219 6.18334
329 1 1.30359 6.3017 1.85692
330 1 4.14453 8.74609 0.768284
331 1 0.79251 2.34737 6.85729
332 1 5.50794 5.72162 8.41287
333 1 7.00894 6.21944 1.13057
334 1 4.36946 1.92772 6.3607
335 1 4.95951 5.7979 1.71728
336 1 5.54788 6.46425 5.51497
337 1 5.80831 3.07363 3.95762
338 1 9.0698 6.96931 6.47718
339 1 2.40474 8.21912 3.08393
340 1 7.44921 5.93909 7.57206
341 1 3.4417 4.77063 8.55664
342 1 1.15085 0.769116 2.85398
343 1 8.95061 4.79425 0.0010921
344 1 0.593065 4.3165 5.0154
345 1 2.81436 7.48341 2.55079
346 1 2.09828 8.25267 4.54983
347 1 0.450748 5.86676 7.57608
348 1 3.10736 2.15478 5.0523
349 1 6.81556 4.32047 3.49385
350 1 6.0198 4.48334 4.99988
351 1 3.88212 2.28137 1.62503
352 1 1.05855 7.61817 4.03035
353 1 2.73259 0.906035 7.47139
354 1 5.92381 3.56594 5.2485
355 1 5.73649 3.86135 7.68044
356 1 6.60728 3.47752 7.58295
357 1 3.68573 5.10535 0.645816
358 1 5.99792 5.84712 9.16603
359 1 4.74769 8.00312 3.45231
360 1 7.88248 0.175387 4.46753
361 1 2.47087 2.42809 7.5895
362 1 4.23885 7.41656 1.89176
363 1 7.54423 7.30799 2.68298
364 1 5.1717 0.495757 8.87944
365 1 2.65367 6.71312 5.43704
366 1 7.09912 5.79745 2.17153
367 1 8.98635 6.09275 3.92466
368 1 6.39665 5.79125 3.26906
369 1 8.64099 6.84447 2.47054
370 1 9.31269 5.18054 4.44674
371 1 6.58831 3.9467 2.61018
372 1 9.17934 1.17407 5.50212
373 1 1.12503 5.23037 1.17249
374 1 3.82094 8.41158 1.8745
375 1 6.43832 2.88911 8.82135
376 1 7.78992 4.65023 4.41188
377 1 9.18364 3.87178 3.14848
378 1 7.26686 3.58592 9.0037
379 1 0.0352407 6.05584 8.57018
380 1 3.74088 8.88071 5.87338
381 1 8.04015 3.72285 0.294344
382 1 4.5416 6.53218 2.76194
383 1 3.73921 2.4488 4.56834
384 1 5.60344 4.88292 0.43944
385 1 7.49057 2.03526 4.93206
386 1 0.549357 6.55755 0.171498
387 1 4.12907 1.45201 0.951779
388 1 4.75736 6.97564 4.64
389 1 4.90416 8.99776 2.67455
390 1 3.00559 4.89635 6.16825
391 1 4.74467 1.25819 2.87495
392 1 6.45122 4.49322 5.77839
393 1 7.1431 2.96152 1.60548
394 1 2.5037 4.13296 1.98874
395 1 7.75051 1.81449 6.97808
396 1 7.06374 1.94023 5.76547
397 1 1.03357 3.41123 6.61842
398 1 4.87242 9.303 8.22844
399 1 6.64882 1.48524 6.83705
400 1 2.64812 7.67892 5.25698
401 1 3.21794 6.56583 8.91561
402 1 3.87621 0.812936 1.4193
403 1 7.99032 4.74082 0.438409
404 1 0.780326 8.83573 5.1779
405 1 8.55099 3.64752 5.55611
406 1 0.189915 1.99487 5.1296
407 1 2.15282 4.43037 5.95229
408 1 0.49198 8.20235 0.759925
409 1 1.56502 4.06899 3.39931
410 1 2.85362 8.96387 6.16088
411 1 3.29976 1.10564 4.17102
412 1 1.17307 3.15236 5.17455
413 1 7.66991 6.12081 2.80013
414 1 2.39683 8.32981 5.80286
415 1 6.8806 2.21806 0.870931
416 1 1.16114 2.95575 7.47314
417 1 7.88315 8.07013 5.67412
418 1 6.1523 3.87865 6.86223
419 1 0.627295 9.28069 0.2826
420 1 6.86459 6.58298 7.34941
421 1 2.09997 3.93623 5.15672
422 1 5.7402 7.11089 0.685932
423 1 4.78155 2.97199 6.83782
424 1 8.59528 4.03217 6.34452
425 1 3.9331 5.5239 6.81544
426 1 6.51862 6.57165 3.86226
427 1 9.00154 1.29053 1.07786
428 1 2.94348 8.46313 6.88914
429 1 7.82283 5.85584 1.49553
430 1 8.04411 6.39253 6.46032
431 1 1.42599 1.53554 5.29157
432 1 2.22107 0.105015 1.20901
433 1 3.58601 4.29476 4.11347
434 1 7.57355 6.87029 3.77686
435 1 1.13002 8.66535 7.94606
436 1 1.98251 0.601977 5.12637
437 1 6.78823 2.87194 3.51121
438 1 7.7899 2.97683 5.463
439 1 0.90651 2.20287 2.79723
440 1 1.49285 3.5028 1.21932
441 1 6.97027 8.36898 6.9585
442 1 3.2422 6.45907 7.49264
443 1 1.79677 3.5753 2.13449
444 1 3.539 7.67706 0.889001
445 1 4.83403 3.14514 0.0631573
446 1 1.58975 8.15302 0.361189
447 1 8.83423 5.84208 6.33346
448 1 9.19643 5.18286 7.79674
449 1 6.35726 0.920937 1.64295
450 1 3.19904 2.11247 7.11379
451 1 8.98044 4.41883 1.22342
452 1 8.58069 0.503191 6.21824
453 1 8.91481 4.78288 3.54316
454 1 3.51846 1.43346 6.51608
455 1 7.72578 1.06682 2.37383
456 1 3.85355 5.35947 3.79964
457 1 5.57077 8.74794 0.513143
458 1 3.64078 2.97572 2.17312
459 1 5.22474 6.5755 2.01371
460 1 0.948633 5.66963 6.84526
461 1 6.66397 3.55826 6.13811
462 1 0.846691 2.36291 5.69606
463 1 0.0595328 6.0186 0.729949
464 1 6.51286 2.89059 4.85406
465 1 4.22425 5.4388 9.3751
466 1 0.992703 5.35065 0.265699
467 1 9.34571 1.39057 1.88451
468 1 0.782013 3.19414 8.35507
469 1 1.61629 1.94233 6.14248
470 1 1.66335 2.93328 5.99399
471 1 5.00467 9.26255 3.73422
472 1 3.97073 8.92827 7.36973
473 1 8.32502 5.44314 3.16789
474 1 4.77654 5.81145 5.31869
475 1 1.98708 7.06942 3.22215
476 1 4.39765 9.22126 4.65464
477 1 5.41173 1.58279 5.03422
478 1 6.86378 5.25463 6.19007
479 1 4.3705 4.76641 2.10082
480 1 5.28696 9.18506 5.32102
481 1 5.97789 3.75151 8.52756
482 1 5.29461 4.92047 4.79291
483 1 8.33998 3.16931 6.39208
484 1 0.538973 8.04697 3.52193
485 1 0.25501 3.30315 9.23182
486 1 1.7871 9.04064 4.88887
487 1 5.14256 3.85472 6.87934
488 1 4.95519 4.18689 7.8047
489 1 7.47541 9.02935 2.72028
490 1 1.97426 6.66663 8.80136
491 1 5.96248 8.27116 5.59825
492 1 2.89231 5.57856 7.35002
493 1 1.38763 4.30691 6.68553
494 1 6.67898 2.63697 6.55868
495 1 7.92134 6.69213 1.05588
496 1 1.55294 4.92665 3.79371
497 1 6.74385 7.84549 3.32317
498 1 4.64505 8.07206 2.43813
499 1 5.04354 2.47485 4.30448
500 1 1.57467 6.1601 2.75965
501 1 4.77044 0.922733 3.67044
502 1 4.25634 3.60242 7.4774
503 1 5.05632 8.34967 6.25755
504 1 4.24347 6.70254 3.96298
505 1 8.92153 8.10946 4.33192
506 1 1.44558 4.82559 5.17419
507 1 7.06149 6.75036 6.40638
508 1 3.93438 6.58653 8.19914
509 1 7.05377 1.95473 0.0133279
510 1 8.30328 9.0465 8.43968
511 1 3.24641 2.74656 3.034
512 1 0.685577 8.04607 5.90006
513 1 2.22024 8.62394 2.30074
514 1 5.34113 0.666942 5.54159
515 1 3.7113 2.31488 3.70402
516 1 6.37508 5.95095 0.67458
517 1 6.10022 2.2013 4.18405
518 1 9.38326 2.25088 2.16542
519 1 3.738 1.91286 7.76518
520 1 5.78846 5.34957 5.5553
521 1 1.29338 7.95766 4.92127
522 1 8.1618 0.373714 7.83661
523 1 1.15814 6.13537 9.0171
524 1 2.38734 6.05508 2.5293
525 1 0.661331 0.227454 1.67482
526 1 4.3314 0.175253 3.19941
527 1 7.17087 7.71459 1.04015
528 1 1.03072 2.00226 4.62376
529 1 5.01734 6.58658 3.54859
530 1 9.25248 1.26884 6.36674
531 1 0.977194 0.888945 0.0974377
532 1 0.668639 0.814891 3.91764
533 1 8.62235 0.869877 2.4539
534 1 2.792 7.03641 1.06427
535 1 3.51668 0.892009 2.2206
536 1 0.547439 5.30607 5.14781
537 1 4.94939 9.30035 0.184778
538 1 8.60819 5.42785 0.485578
539 1 5.70626 7.91193 9.25614
540 1 4.98848 3.09652 8.30103
541 1 0.0224043 8.98094 7.16949
542 1 9.32871 2.14853 6.16037
543 1 7.79106 2.72056 0.767096
544 1 1.4943 7.57859 6.27527
545 1 6.61876 5.7789 8.26511
546 1 2.04027 1.46881 8.08958
547 1 1.63881 2.26596 7.91734
548 1 2.72996 5.58763 0.897375
549 1 7.61078 0.398404 6.42947
550 1 8.72126 1.66203 4.97977
551 1 1.76798 9.28487 8.1421
552 1 4.23723 2.90641 5.82994
553 1 7.69021 7.84661 6.86654
554 1 0.351684 0.941142 8.20234
555 1 2.81941 3.57225 3.85917
556 1 2.17036 5.52186 3.55092
557 1 8.74063 1.98476 0.597286
558 1 0.563239 6.36102 4.05032
559 1 6.38918 5.98198 6.70698
560 1 4.60891 4.80634 4.07505
561 1 8.42086 4.39504 2.79103
562 1 6.95787 6.2007 9.28324
563 1 0.835704 2.04914 8.81952
564 1 4.54222 5.8387 7.93511
565 1 0.703006 6.25108 2.68807
566 1 9.18353 8.11503 5.27956
567 1 7.12704 0.655958 7.27439
568 1 8.86619 2.76703 5.66879
569 1 9.03029 7.54795 0.953441
570 1 4.49456 3.92161 4.12101
571 1 7.0544 8.06632 2.36355
572 1 0.554887 7.78377 1.67454
573 1 5.96093 9.01202 1.46699
574 1 8.99994 3.81278 0.335169
575 1 0.352891 8.35513 2.53714
576 1 6.00064 3.46927 1.76866
577 1 5.99997 0.985879 4.76995
578 1 7.36658 8.90873 1.04353
579 1 4.94843 8.49515 1.19848
580 1 5.89036 9.29509 3.32741
581 1 0.731283 1.14041 6.69602
582 1 6.53822 8.59629 5.08844
583 1 7.86314 8.70026 1.7865
584 1 0.753336 3.26557 0.616624
585 1 8.23929 2.77328 4.67469
586 1 8.07755 1.44123 3.06377
587 1 7.34921 2.85359 8.06194
588 1 9.1678 0.444653 1.55147
589 1 5.20572 1.64062 3.98226
590 1 4.20491 4.50161 3.2475
591 1 5.36457 2.63556 1.72872
592 1 8.68481 3.89626 2.11042
593 1 9.3841 9.29441 8.8128
594 1 4.31748 7.60658 4.16563
595 1 2.19785 6.34757 1.29393
596 1 6.09755 0.777947 2.68594
597 1 0.477933 4.79433 2.46402
598 1 6.41731 1.96102 3.34562
599 1 7.96011 0.885236 5.68727
600 1 3.21139 1.96353 0.823204
601 1 2.97517 4.4008 0.930701
602 1 1.02057 5.44136 2.15951
603 1 3.94689 8.30133 6.64661
604 1 0.190204 5.08647 0.726056
605 1 1.76855 2.5049 6.9373
606 1 2.6372 8.91862 5.13736
607 1 2.46282 0.972557 9.1339
608 1 1.15498 5.68476 4.49803
609 1 6.16394 8.46333 8.6859
610 1 5.52357 2.54977 4.98352
611 1 7.83868 4.75499 7.36256
612 1 7.76794 7.00884 5.79396
613 1 9.20328 3.21451 2.17718
614 1 0.299959 6.82527 1.10075
615 1 7.33961 3.49599 3.09211
616 1 2.87192 9.21495 3.43505
617 1 2.86972 8.70223 1.72035
618 1 0.392194 7.66316 4.5412
619 1 2.15003 5.29911 4.64838
620 1 2.00856 8.15566 7.42016
621 1 0.74458 0.22885 6.90593
622 1 5.3357 4.18507 4.33931
623 1 7.26313 5.22431 3.21545
624 1 5.71778 3.01641 9.26764
625 1 2.49697 1.59443 2.39075
626 1 4.78902 0.883457 1.28935
627 1 0.634404 4.51361 6.14504
628 1 1.27634 5.83848 5.7042
629 1 5.22683 4.87789 2.24339
630 1 2.17799 3.65177 6.37716
631 1 0.0187457 6.62513 1.9823
632 1 1.32062 4.77702 9.02032
633 1 8.68882 9.14501 4.42307
634 1 8.02908 2.17432 5.66946
635 1 4.51102 8.38144 5.45078
636 1 6.35184 6.16233 5.58089
637 1 1.12523 0.289315 5.40757
638 1 9.3746 2.64841 3.05684
639 1 8.39953 3.77795 3.63114
640 1 5.63164 4.69711 8.74121
641 1 8.88897 0.879063 8.68378
642 1 7.21411 6.81868 8.31015
643 1 3.28107 5.10197 4.54204
644 1 8.95439 7.47788 1.88273
645 1 1.90734 6.41636 6.1965
646 1 8.82821 6.82706 0.339633
647 1 4.80102 4.53961 6.09922
648 1 2.8274 6.70404 2.14396
649 1 1.88165 5.61522 1.88005
650 1 3.92565 1.20331 3.49995
651 1 6.34388 4.71563 6.86265
652 1 0.608422 2.57776 3.75887
653 1 8.85912 0.379831 0.704705
654 1 2.62716 7.85045 0.426953
655 1 4.66261 0.373371 2.13829
656 1 2.75503 5.8277 4.31757
657 1 7.35771 1.32904 6.32823
658 1 2.92807 5.20695 3.66538
659 1 5.10074 1.93156 7.01092
660 1 2.94654 2.55664 9.18178
661 1 6.10057 6.73602 4.74663
662 1 7.84923 5.09401 2.43879
663 1 3.58855 0.0576045 5.11338
664 1 8.54661 7.94483 7.31188
665 1 2.33271 7.82773 6.56814
666 1 5.06197 7.49077 1.48951
667 1 5.24307 0.456946 2.94566
668 1 5.07352 5.02916 7.93793
669 1 5.66395 2.49751 8.52026
670 1 0.848086 5.61043 3.26338
671 1 4.99798 1.75269 8.68414
672 1 8.48504 2.29666 6.53954
673 1 6.21488 3.49894 3.30125
674 1 5.36696 6.14487 4.62317
675 1 7.41236 7.69146 3.90254
676 1 8.57473 7.56855 8.2579
677 1 5.07744 9.35877 6.306
678 1 7.40563 1.03701 1.32733
679 1 6.78948 4.99917 2.45741
680 1 0.403037 5.36302 5.98435
681 1 3.40145 2.81871 7.67026
682 1 1.41449 8.03582 1.28136
683 1 8.83651 5.07751 5.53047
684 1 6.38244 4.40302 9.25225
685 1 1.99784 2.49506 9.31895
686 1 1.10599 7.99386 2.93371
687 1 7.52823 8.69164 6.30404
688 1 9.09402 8.95333 0.22931
689 1 0.789173 3.30243 1.77248
690 1 8.55389 5.29191 7.22867
691 1 6.89145 7.17317 2.07913
692 1 8.28537 0.0465608 1.43604
693 1 2.94276 0.710378 6.62847
694 1 5.96812 0.305485 6.23635
695 1 7.58668 2.18498 3.33148
696 1 7.74412 2.6948 2.5486
697 1 6.7176 0.504552 6.54964
698 1 0.060905 8.94124 1.286
699 1 5.76886 8.38005 3.61526
700 1 8.839 7.07528 7.31646
701 1 1.9253 0.817704 0.419733
702 1 4.75218 6.08703 9.16972
703 1 8.62875 6.18816 9.11083
704 1 6.97638 1.95628 2.50511
705 1 6.17549 1.91625 9.37816
706 1 0.9407 4.10513 7.4896
707 1 4.3936 1.39173 2.12145
708 1 1.95156 6.50709 4.75311
709 1 7.36271 5.37454 4.88613
710 1 4.19574 5.9268 1.17391
711 1 6.59438 5.18028 1.51425
712 1 6.83358 1.0437 0.491171
713 1 3.10476 7.89832 6.02724
714 1 7.65467 6.83533 7.13761
715 1 6.94925 1.89104 8.53321
716 1 7.65473 4.9127 5.7049
717 1 1.87075 6.03013 0.142662
718 1 1.65147 1.68593 1.49188
719 1 2.69846 5.23522 2.66043
720 1 8.92397 9.05081 6.40698
721 1 0.831059 4.64062 3.37418
722 1 9.19764 6.7669 4.76617
723 1 8.90272 4.88073 8.55777
724 1 2.70395 0.374187 2.38612
725 1 1.3169 6.28205 8.08631
726 1 1.96015 4.93245 0.982347
727 1 8.14554 0.974977 6.9659
728 1 6.75431 0.224516 8.90933
729 1 0.269308 0.523016 6.0935
730 1 6.889 6.85389 5.40038
731 1 7.38764 0.0830726 5.54872
732 1 4.25247 6.44922 1.96085
733 1 3.24621 4.3893 3.26292
734 1 1.44518 9.39759 0.480417
735 1 0.0114728 1.51883 4.26716
736 1 1.89162 8.65673 6.46024
737 1 3.71599 3.14149 0.123403
738 1 4.92793 6.76276 7.37004
739 1 2.61484 1.57978 6.41021
740 1 2.40676 3.71823 3.09487
741 1 4.51001 6.74531 5.61286
742 1 7.06497 1.14773 5.26855
743 1 8.39096 0.319698 5.15922
744 1 1.69061 0.0153085 2.18157
745 1 3.5802 0.409482 0.570255
746 1 8.90904 2.20604 3.88291
747 1 7.70738 3.78988 2.04395
748 1 7.69424 7.69332 1.76961
749 1 3.71364 8.27205 0.160358
750 1 5.58066 1.07931 1.11949
751 1 1.0432 8.85124 1.1851
752 1 7.22587 1.96857 1.56017
753 1 2.31843 7.71863 1.61308
754 1 1.24977 1.0313 1.95085
755 1 3.60587 7.54468 2.92835
756 1 5.98395 4.44604 1.41802
757 1 4.43148 0.126044 0.886511
758 1 2.4286 6.63959 6.9479
759 1 8.39676 5.8028 2.12309
760 1 6.09698 9.27997 5.02744
761 1 4.32029 3.75879 6.55118
762 1 5.34721 5.92592 2.79808
763 1 0.914762 0.106659 8.74627
764 1 6.12245 6.59689 8.50412
765 1 8.96311 6.98192 8.71473
766 1 2.19821 5.78321 5.41729
767 1 6.22464 7.0775 7.70966
768 1 5.07689 7.48937 5.54233
769 1 0.78708 4.96563 7.49576
770 1 8.39702 7.04195 4.14394
771 1 3.02854 0.373638 1.45029
772 1 8.64825 4.35445 4.26668
773 1 3.92537 1.54203 8.60298
774 1 1.0524 6.64661 6.23642
775 1 0.235407 3.28561 7.61913
776 1 3.3968 7.17077 5.51776
777 1 8.10873 2.00085 4.06393
778 1 7.38971 4.32558 2.73566
779 1 3.95874 3.82456 5.53626
780 1 2.76524 7.55847 3.88096
781 1 1.8336 0.733901 7.4995
782 1 7.32606 5.97611 5.94143
783 1 6.24204 2.35099 1.87859
784 1 0.0405191 5.71908 2.31604
785 1 4.61502 1.09073 6.13355
786 1 8.28099 1.00389 1.58494
787 1 2.81339 5.94158 6.34947
788 1 1.85228 7.77601 3.65494
789 1 8.65855 0.566675 3.8929
790 1 1.48348 1.29937 4.31187
791 1 4.12293 6.98514 0.973318
792 1 8.88722 3.52612 7.23746
793 1 2.40627 0.0333777 6.94432
794 1 5.40267 0.230728 7.33692
795 1 0.690651 1.8377 1.96306
796 1 9.01415 1.32009 0.116416
797 1 0.943477 7.45761 0.552109
798 1 1.95917 6.91261 2.07508
799 1 5.47759 8.36648 7.2244
800 1 9.26599 3.06043 3.8793
801 2 9.37722 0.0386495 5.12005
802 2 6.0583 4.96236 2.83765
803 2 1.46025 6.14396 3.64351
804 2 5.49659 2.91017 7.50753
805 2 3.85943 1.70836 5.17386
806 2 2.27211 1.67839 0.355296
807 2 3.11489 1.60828 8.95818
808 2 5.17595 3.34069 4.67175
809 2 4.13004 7.65209 5.16214
810 2 2.54774 0.528305 8.33205
811 2 4.22989 7.6433 6.04838
812 2 4.46602 0.178158 5.65662
813 2 4.80185 1.99393 0.205798
814 2 9.252 5.51774 3.15857
815 2 3.20687 3.70918 1.69612
816 2 0.294189 7.35788 2.8245
817 2 0.456621 4.93794 8.62243
818 2 1.79751 3.4401 8.06205
819 2 1.47544 6.83678 0.0642995
820 2 8.72164 8.3618 0.836678
821 2 0.241633 1.53824 2.84946
822 2 1.11327 1.30807 7.64784
823 2 5.55483 1.89439 7.80081
824 2 6.19872 6.56438 2.3715
825 2 3.9683 5.77747 8.6211
826 2 3.31241 3.84775 8.23013
827 2 8.2932 5.48645 4.85205
828 2 8.92884 1.34834 3.44492
829 2 1.85132 6.00769 7.13426
830 2 3.37495 7.57725 1.78243
831 2 4.93293 2.09669 1.27427
832 2 1.26084 7.30114 7.93491
833 2 8.47143 7.89531 2.60621
834 2 6.14434 1.62973 2.29617
835 2 7.13441 7.6203 6.12441
836 2 5.59286 2.24938 0.741984
837 2 6.26293 1.56976 5.99231
838 2 3.72949 3.51025 4.58752
839 2 5.47003 2.50034 3.24845
840 2 0.179346 0.675909 9.16651
841 2 3.75424 8.57363 4.7367
842 2 0.497128 6.06571 1.50556
843 2 0.266418 4.0495 2.02005
844 2 5.43126 6.70385 9.3438
845 2 6.25699 1.68429 0.900352
846 2 8.29325 7.39234 9.30297
847 2 6.27161 1.80418 5.11742
848 2 8.13219 2.93724 1.67119
849 2 4.32777 6.05123 3.48638
850 2 0.932416 0.336526 7.79274
851 2 1.98586 4.14467 7.56356
852 2 4.9767 4.13811 2.68492
853 2 2.58943 1.30212 4.93751
854 2 3.11184 6.89081 6.44585
855 2 8.73945 2.8875 0.707867
856 2 3.24932 8.94314 0.845913
857 2 3.13095 3.30471 6.48862
858 2 2.33875 0.767237 4.12307
859 2 7.84663 1.02116 3.91389
860 2 5.82058 7.92424 0.994552
861 2 7.12214 5.36947 0.709507
862 2 7.09367 7.8496 5.18077
863 2 0.602495 3.6296 3.43129
864 2 7.56241 2.4232 6.3584
865 2 3.43741 0.047873 6.89768
866 2 3.05427 1.48002 1.68581
867 2 4.63365 8.43294 4.25652
868 2 0.292475 7.07294 5.56207
869 2 1.85406 0.235977 9.06554
870 2 0.688719 3.07618 2.70506
871 2 3.10454 1.06756 3.08762
872 2 8.54274 5.94087 8.05696
873 2 4.22762 5.43867 5.93668
874 2 5.65775 8.61199 4.65321
875 2 1.0912 7.69077 9.13032
876 2 8.03897 8.43048 4.80053
877 2 2.25048 4.44628 8.56876
878 2 6.98696 2.34276 7.30242
879 2 0.909351 9.3598 2.57753
880 2 8.32436 4.95544 6.36173
881 2 2.79397 0.396761 5.62302
882 2 5.60134 5.33439 1.34344
883 2 6.605 8.01356 0.298589
884 2 4.58374 8.93104 1.81511
885 2 6.32076 0.621446 5.5545
886 2 5.61871 4.14744 3.34943
887 2 6.42416 2.94121 0.984004
888 2 3.84395 8.36403 3.85252
889 2 4.04014 6.31064 4.80062
890 2 7.21466 7.48976 7.62648
891 2 1.45621 4.70682 7.95355
892 2 6.98129 3.72891 5.05956
893 2 6.03246 6.04071 7.53395
894 2 2.568 2.7483 3.71056
895 2 1.11877 2.79947 9.29833
896 2 8.1862 3.43316 2.81685
897 2 8.12672 0.825165 0.685641
898 2 4.12684 2.42298 2.80931
899 2 7.7343 8.14577 0.345909
900 2 3.40006 6.32535 1.5019
901 2 0.45726 4.18864 8.17033
902 2 0.0585115 0.663293 3.18931
903 2 7.25824 8.36903 7.87644
904 2 8.11576 1.9722 1.25888
905 2 2.12933 4.31772 0.447259
906 2 6.90027 4.31707 7.48712
907 2 6.74856 7.82635 8.47311
908 2 6.89026 0.303727 2.65246
909 2 4.56632 4.74706 7.19725
910 2 9.25166 0.437003 6.98148
911 2 4.63004 5.69889 4.20048
912 2 2.11027 5.34799 6.31726
913 2 2.17927 0.970131 1.77805
914 2 7.38945 4.64351 8.98898
915 2 3.25701 5.87078 5.23176
916 2 0.0322757 7.28903 3.66758
917 2 4.50946 5.01057 1.02909
918 2 4.51143 8.41183 7.79661
919 2 3.94058 4.3238 7.77296
920 2 0.519003 0.0797388 4.37
921 2 2.80107 8.11377 8.7244
922 2 1.76614 8.55199 8.85427
923 2 7.50728 0.353372 0.291703
924 2 3.9317 0.842366 5.26541
925 2 4.44537 2.58899 7.60992
926 2 8.73265 6.66666 5.73581
927 2 6.84357 7.23455 4.49516
928 2 0.850793 6.92929 3.39426
929 2 9.39308 9.24984 3.55551
930 2 3.20257 1.41477 5.7042
931 2 5.21684 5.34804 9.24876
932 2 2.49351 3.46516 1.26399
933 2 6.57781 8.38308 1.20934
934 2 2.96445 2.36777 1.95946
935 2 6.11178 4.95576 7.75172
936 2 8.98123 0.253809 8.05368
937 2 8.22621 5.9127 5.62611
938 2 7.92577 8.75817 7.36765
939 2 9.39908 6.5378 3.18261
940 2 7.1119 2.25105 4.06004
941 2 3.4491 9.14754 4.16318
942 2 1.31615 4.42895 1.60513
943 2 4.62087 0.702567 8.09853
944 2 5.54674 4.03056 0.0251651
945 2 3.49751 0.774129 8.2503
946 2 0.178728 8.90652 5.73546
947 2 6.75936 0.74767 8.15545
948 2 2.67817 5.04851 1.53894
949 2 0.624103 7.35286 6.54325
950 2 3.97536 4.01086 8.86325
951 2 5.80061 7.76688 6.48825
952 2 6.69119 8.71485 3.14646
953 2 2.27236 1.23895 3.2827
954 2 5.32189 8.39327 8.18692
955 2 4.68966 4.51307 0.250525
956 2 5.91173 4.7577 3.82804
957 2 7.20018 1.39322 3.28347
958 2 9.29038 2.79054 6.83454
959 2 8.56909 7.21876 3.22027
960 2 1.52241 0.436107 4.39238
961 2 0.345736 8.71635 8.22702
962 2 1.00014 3.9325 2.57662
963 2 7.82395 6.40363 4.97651
964 2 3.73194 5.1882 1.57879
965 2 5.76911 9.28945 9.11349
966 2 5.05416 3.82826 1.85599
967 2 2.31182 5.14944 9.35176
968 2 4.38696 4.88381 8.68402
969 2 1.90571 7.1524 0.806729
970 2 0.741692 1.06927 4.89746
971 2 0.646569 8.47897 9.16238
972 2 7.21862 3.24936 6.92017
973 2 5.60577 3.31494 2.65739
974 2 6.30993 1.44305 7.80159
975 2 2.32672 2.26953 8.41195
976 2 3.39571 4.54219 2.23739
977 2 5.76936 8.53061 2.69481
978 2 3.14353 8.97287 8.58441
979 2 1.56454 1.63121 9.04053
980 2 4.02602 9.10897 9.18368
981 2 8.52123 2.51126 8.98776
982 2 0.443124 7.24187 7.36541
983 2 1.12603 6.9638 4.81014
984 2 7.842 7.48936 4.74637
985 2 3.71804 2.21188 0.115611
986 2 1.54772 8.48522 5.53836
987 2 2.1755 7.35871 4.6063
988 2 8.17368 1.72319 8.54213
989 2 4.45502 7.1939 3.19396
990 2 2.23069 1.94486 5.49034
991 2 8.00796 5.03832 8.2012
992 2 6.69247 4.40066 8.37642
993 2 9.215 8.11401 8.60386
994 2 4.32154 7.92204 1.23967
995 2 6.23404 9.06111 7.26135
996 2 9.32188 3.32924 1.27448
997 2 5.85884 7.5309 8.37128
998 2 1.53277 6.95397 7.1596