#bin. KALJ data file T=0.5

1000 atoms
2 atom types

0 9.4 xlo xhi
0 9.4 ylo yhi
0 9.4 zlo zhi

Masses

1 1.0
2 1.0

Atoms

1 1 2.66966 2.27299 2.98575
2 1 7.97485 7.99774 3.13099
3 1 1.70313 7.05659 0.852109
4 1 0.215742 8.25794 3.87827
5 1 5.54673 5.19456 4.51271
6 1 0.109169 6.0199 3.81607
7 1 5.14582 1.24288 0.123055
8 1 0.888837 7.64846 8.44661
9 1 8.8816 7.72698 2.51434
10 1 0.872053 5.99491 7.54196
11 1 1.2175 8.55479 2.1135
12 1 8.80977 8.79469 1.35523
13 1 3.53684 6.45959 9.02126
14 1 6.75052 6.91521 1.75172
15 1 8.46937 5.4308 2.09167
16 1 4.46013 2.71968 5.12199
17 1 0.130075 2.23024 9.28515
18 1 2.52685 6.27087 4.61238
19 1 6.4564 9.26978 1.31549
20 1 2.3959 3.51408 5.55098
21 1 0.0587332 7.95784 7.89727
22 1 7.14824 8.56344 8.46534
23 1 2.98896 7.47938 5.1725
24 1 7.10921 3.41835 5.61137
25 1 6.66141 9.2696 3.65973
26 1 5.35687 1.07277 3.62413
27 1 6.47578 5.56209 0.70196
28 1 8.70165 4.41156 1.73001
29 1 5.0329 8.07265 9.30956
30 1 1.15504 9.21284 1.51039
31 1 1.63355 3.49824 0.874107
32 1 6.09813 5.09332 5.29725
33 1 2.27477 9.06827 1.25286
34 1 3.18526 2.42265 1.05961
35 1 6.74704 4.47802 3.3663
36 1 7.73083 7.02884 3.2222
37 1 0.791546 7.19154 2.57819
38 1 7.52029 7.36249 4.95183
39 1 0.24416 2.34069 3.90407
40 1 0.0241607 6.39574 4.61932
41 1 4.34256 8.69741 1.74748
42 1 5.50744 2.8239 8.49278
43 1 7.54294 9.29252 5.18946
44 1 1.81149 2.9527 7.77571
45 1 7.12897 8.37305 1.62365
46 1 7.76791 6.26016 3.72598
47 1 6.42104 4.74797 4.41915
48 1 5.2341 3.76815 8.98848
49 1 3.29246 5.58484 3.33901
50 1 4.99514 5.36731 3.73351
51 1 5.46892 4.98122 5.8349
52 1 0.551126 4.24445 6.79055
53 1 0.840776 5.27273 3.71693
54 1 5.81789 0.918834 8.08235
55 1 7.71636 2.91003 0.77583
56 1 2.98949 7.75627 2.80296
57 1 6.80371 2.57838 1.81163
58 1 5.12247 7.59058 6.10445
59 1 1.48439 5.49993 4.39038
60 1 0.186811 6.93435 7.53959
61 1 1.71881 1.70052 3.36221
62 1 2.39349 7.81587 1.35521
63 1 0.0100752 8.10846 6.10319
64 1 5.91537 5.14052 3.12369
65 1 3.23739 3.23266 6.6915
66 1 1.18223 5.42127 0.636016
67 1 2.15994 5.45772 5.2741
68 1 2.46098 8.91079 9.40636
69 1 5.52413 0.714489 0.866531
70 1 6.94679 1.96592 7.19936
71 1 1.60168 8.02089 0.974123
72 1 1.81818 4.17743 5.47441
73 1 9.37615 0.818967 3.10078
74 1 1.05713 8.99549 4.12425
75 1 4.00868 5.36873 2.5695
76 1 0.754401 4.30993 5.79472
77 1 5.40313 8.55487 1.44928
78 1 6.56171 3.82913 6.55458
79 1 8.52742 4.32261 0.804481
80 1 0.04653 0.512716 5.18121
81 1 2.31647 2.21607 1.14573
82 1 1.10179 0.569608 9.10201
83 1 6.50207 3.60078 3.50788
84 1 3.46402 5.36567 6.93384
85 1 6.00828 7.68425 3.50931
86 1 8.26898 4.69652 8.20977
87 1 5.88286 6.29789 7.08867
88 1 4.63895 4.45411 8.54119
89 1 0.772768 3.77337 4.53649
90 1 7.02924 1.00703 3.96826
91 1 8.51346 2.84526 7.52702
92 1 4.10422 2.01425 2.725
93 1 8.91016 7.35967 0.417461
94 1 4.99944 0.561971 8.26288
95 1 6.35197 7.45918 4.34159
96 1 8.21919 5.79315 6.69284
97 1 7.36775 2.07438 1.29229
98 1 2.31213 4.78064 3.84012
99 1 3.65861 7.07038 6.8085
100 1 9.36531 4.66056 8.02568
101 1 8.19067 2.48014 4.76291
102 1 5.49491 6.55361 0.647267
103 1 4.53069 6.1419 5.73818
104 1 5.26536 8.71621 8.14376
105 1 4.3899 0.650464 3.92263
106 1 2.27223 0.469825 6.77078
107 1 2.30926 7.40817 4.54168
108 1 2.45217 2.39453 6.68356
109 1 2.02077 2.53242 5.66165
110 1 4.49387 6.19787 8.51485
111 1 3.35012 9.35431 5.55867
112 1 5.75224 3.86581 3.12715
113 1 0.442751 8.20239 1.89068
114 1 0.3285 5.81702 8.3314
115 1 2.14478 8.41304 3.10366
116 1 7.30061 0.110392 2.74658
117 1 5.85411 2.09261 1.6505
118 1 5.97702 1.36475 2.24929
119 1 5.25267 4.99443 1.10934
120 1 8.95331 7.4632 6.4546
121 1 8.22616 0.776171 2.79696
122 1 1.2082 2.32161 1.18075
123 1 0.0951482 6.72409 0.281488
124 1 5.16891 2.96668 6.50097
125 1 0.0050387 6.00374 7.30935
126 1 3.03364 2.65702 4.44731
127 1 0.468633 0.144414 2.60826
128 1 8.48905 2.5984 0.142336
129 1 0.164719 8.92591 4.61175
130 1 1.66624 6.91567 2.90602
131 1 7.76836 3.49172 4.73815
132 1 1.00734 2.47833 7.74566
133 1 2.56181 6.70381 2.78662
134 1 1.4183 4.01561 6.44201
135 1 1.41154 6.73501 7.76827
136 1 3.15504 7.4891 0.84246
137 1 5.67676 1.67693 4.44049
138 1 6.28998 8.26893 4.15658
139 1 5.52775 1.22919 1.53184
140 1 3.08074 2.98544 7.66615
141 1 4.77939 3.26498 8.24508
142 1 9.32266 4.25311 0.390527
143 1 6.18547 7.19525 2.68134
144 1 4.66332 7.11673 5.292
145 1 7.20237 4.32173 7.10926
146 1 5.90599 0.108757 0.404956
147 1 7.52564 5.30538 7.41487
148 1 5.28031 8.48874 7.09788
149 1 1.97951 7.73586 5.47592
150 1 8.58685 2.457 6.66081
151 1 0.272027 3.25992 5.29731
152 1 3.38412 3.41062 5.04145
153 1 5.99091 8.79843 6.269
154 1 0.640209 2.95175 2.84207
155 1 4.92262 4.05723 0.390928
156 1 1.36511 5.27324 8.7977
157 1 3.44572 3.99173 8.96235
158 1 1.93424 2.49073 4.73841
159 1 8.97707 0.863903 0.605856
160 1 2.47275 0.274442 8.8327
161 1 5.06857 7.51227 3.51616
162 1 4.79176 9.16166 4.44442
163 1 7.64663 0.144107 8.89923
164 1 8.2996 7.026 1.11411
165 1 7.13805 4.31093 8.16422
166 1 8.8372 5.41295 8.5767
167 1 7.20888 3.6252 2.81402
168 1 4.83529 8.67526 0.718053
169 1 4.22181 0.196189 1.47726
170 1 8.55589 2.2259 3.76962
171 1 9.18209 1.62492 3.53151
172 1 0.56594 5.75078 9.24118
173 1 6.71202 8.94626 4.76616
174 1 3.53915 3.05238 9.29575
175 1 4.4609 6.29458 2.58357
176 1 5.55995 6.7598 8.99944
177 1 4.06947 7.5231 3.51381
178 1 5.55392 4.00416 8.20502
179 1 8.17936 2.12207 0.809105
180 1 4.65689 5.36282 8.3162
181 1 6.9616 7.59493 3.02226
182 1 7.39884 1.08188 7.81991
183 1 0.672801 4.47917 0.946285
184 1 5.50989 8.78482 9.36307
185 1 3.16214 0.841355 2.22306
186 1 2.36347 4.56155 7.60184
187 1 8.73473 6.52731 1.86987
188 1 2.81204 1.57616 3.83987
189 1 4.20617 7.65222 2.55496
190 1 0.570046 3.58766 0.723008
191 1 5.94941 2.36864 6.22316
192 1 4.77336 7.68878 6.93844
193 1 0.766857 4.72702 2.57798
194 1 8.89137 8.24373 4.72308
195 1 4.42474 7.83018 0.51159
196 1 2.8699 3.88004 4.29776
197 1 2.68025 5.69987 0.111834
198 1 5.08291 5.87672 6.60296
199 1 5.34001 6.06099 4.43504
200 1 6.11049 8.31825 7.7231
201 1 6.75686 0.56333 0.942071
202 1 2.52486 1.8444 8.68048
203 1 6.83359 3.20535 4.72071
204 1 8.14247 2.63404 1.63365
205 1 6.1176 0.224089 6.55784
206 1 1.59849 5.81916 1.45371
207 1 4.67616 6.76134 3.43775
208 1 5.85326 4.19122 0.891739
209 1 8.44778 9.13624 8.94912
210 1 8.11252 0.615392 1.88925
211 1 4.68948 0.980389 2.9738
212 1 3.41056 6.21618 2.46927
213 1 3.56642 5.04613 5.88755
214 1 6.37836 3.96721 8.61367
215 1 8.67267 5.38119 5.94828
216 1 8.70552 0.0183915 0.434339
217 1 1.13681 3.49306 5.41693
218 1 3.44319 6.91838 3.35982
219 1 3.87014 8.98 6.85756
220 1 5.03344 8.40566 3.41418
221 1 2.84227 1.53143 1.43202
222 1 2.45525 -0.00531075 3.73431
223 1 6.7691 7.74047 2.14228
224 1 7.5483 2.66872 6.61289
225 1 6.52517 6.98623 8.65534
226 1 8.09336 6.18985 7.48409
227 1 8.1155 2.46607 2.92648
228 1 4.21779 2.77695 3.26441
229 1 3.19068 7.08223 5.98656
230 1 6.95358 1.65389 2.07583
231 1 7.0902 4.38464 5.24214
232 1 2.13083 5.23678 0.703558
233 1 4.0804 4.9279 3.67793
234 1 1.29536 5.8464 6.64005
235 1 6.83481 5.0138 5.84728
236 1 4.74418 7.94077 1.88161
237 1 4.10894 2.32699 8.54672
238 1 5.98857 2.7062 4.50699
239 1 7.16427 8.18974 6.92118
240 1 7.20809 7.03654 9.33279
241 1 4.88983 8.45815 6.14212
242 1 1.88498 1.21381 7.66995
243 1 7.95914 2.86892 3.92674
244 1 1.20557 6.05732 8.51825
245 1 7.44035 5.14995 6.49728
246 1 1.61451 8.78526 0.571191
247 1 8.58788 7.71482 7.34796
248 1 9.1103 7.16609 5.58088
249 1 7.90225 5.75273 5.43315
250 1 2.80609 5.0483 8.62858
251 1 6.66062 7.85055 9.04527
252 1 5.03405 9.17878 2.15638
253 1 2.77489 8.92602 6.2952
254 1 1.49095 0.795117 4.00204
255 1 6.29396 6.65341 5.46142
256 1 7.33451 5.94112 6.14441
257 1 5.05905 1.94378 3.04821
258 1 4.21603 5.42199 6.39933
259 1 1.67392 1.95582 8.35135
260 1 8.36547 7.05377 7.84797
261 1 8.2086 3.93417 5.77445
262 1 5.19133 9.32256 1.30791
263 1 6.70492 3.47322 0.788759
264 1 3.18621 1.60908 4.66392
265 1 7.42177 2.15242 5.13458
266 1 8.72248 3.36102 5.24094
267 1 2.7922 3.31739 8.79945
268 1 5.36603 6.79432 2.84155
269 1 8.17555 5.40422 1.21386
270 1 1.28225 8.028 0.11439
271 1 4.18405 5.88798 3.3315
272 1 3.6146 7.30435 8.3039
273 1 0.976531 1.436 7.83678
274 1 4.74411 6.7338 4.50482
275 1 0.350249 1.91528 6.12522
276 1 7.87464 8.4235 9.00785
277 1 7.86676 8.89911 1.22989
278 1 0.676617 0.611957 1.52927
279 1 7.54256 0.223618 6.0571
280 1 8.48271 1.36688 1.22659
281 1 0.96585 7.59325 7.51945
282 1 9.24612 2.85441 6.0425
283 1 6.5316 2.18561 0.888753
284 1 3.45066 2.19365 3.63508
285 1 2.62652 0.211086 2.85367
286 1 6.25597 4.1239 7.40343
287 1 6.47457 4.12867 2.54341
288 1 4.81116 8.32895 5.24866
289 1 6.98328 4.00285 9.3367
290 1 6.68037 5.22473 7.56708
291 1 8.945 0.53269 3.90418
292 1 3.3278 8.27641 0.148709
293 1 1.25063 3.31959 7.10973
294 1 4.50107 8.36938 7.58997
295 1 8.63538 0.630109 9.17318
296 1 2.58182 0.351849 6.01707
297 1 0.732757 9.27067 6.77359
298 1 7.69382 1.42565 0.820722
299 1 6.52063 6.59779 4.41546
300 1 8.42801 4.61432 3.53613
301 1 0.137486 3.07764 2.00455
302 1 1.30231 3.68185 2.35219
303 1 0.909959 2.4302 2.18231
304 1 8.93267 1.57251 7.00683
305 1 3.88349 2.91186 4.16256
306 1 7.73765 9.10556 0.314893
307 1 1.28881 9.21697 7.72816
308 1 1.57894 1.61287 4.39504
309 1 4.59499 9.24108 5.6688
310 1 4.26338 4.33969 2.61125
311 1 4.85092 3.44861 5.6752
312 1 0.492688 5.05629 6.28818
313 1 3.44065 0.963081 1.2858
314 1 0.75502 0.685211 3.36713
315 1 2.73166 4.52414 5.29948
316 1 0.231284 9.1378 1.52198
317 1 4.6464 1.96416 6.55948
318 1 3.37046 0.367268 3.3656
319 1 0.519778 5.77563 1.32572
320 1 7.07129 6.08544 7.59689
321 1 0.407362 4.54256 4.14473
322 1 5.31568 5.76293 8.84875
323 1 1.27081 6.71569 6.92323
324 1 8.88729 3.12005 3.55763
325 1 6.72394 5.83803 5.61743
326 1 8.70716 6.36402 5.98594
327 1 2.44452 2.0348 0.151478
328 1 7.89427 4.6029 4.78023
329 1 2.65418 8.32729 4.85991
330 1 6.57212 3.34417 7.25468
331 1 7.48709 0.447085 7.14857
332 1 3.28928 1.5157 2.99239
333 1 6.86424 2.5608 8.72319
334 1 7.86629 7.11008 2.07743
335 1 6.75788 1.63866 4.76101
336 1 7.1647 6.44479 5.02137
337 1 1.27483 7.91205 2.78841
338 1 0.326127 2.00885 8.35638
339 1 2.25935 0.341808 2.01943
340 1 3.09353 2.44882 8.39695
341 1 4.61532 0.828169 0.989629
342 1 5.01391 3.28163 2.92822
343 1 9.31235 1.49284 5.4951
344 1 7.91039 3.86309 7.85515
345 1 6.78832 2.24562 2.74924
346 1 7.23218 0.77357 1.62542
347 1 5.08893 1.30016 7.76272
348 1 2.88358 0.953175 9.33311
349 1 0.254765 7.33331 3.5433
350 1 7.78283 7.81603 7.71374
351 1 5.07531 5.5724 5.19005
352 1 4.5874 1.81826 5.55902
353 1 2.59658 0.310336 5.16167
354 1 5.82045 1.88001 5.26441
355 1 7.17938 5.28129 -0.000609617
356 1 3.4168 6.39056 4.70999
357 1 4.4654 5.07955 9.19898
358 1 9.1053 1.07566 1.75949
359 1 7.61979 6.84013 5.7009
360 1 3.11818 2.21854 7.33787
361 1 5.30488 4.91708 0.0945341
362 1 7.02583 8.66516 2.49063
363 1 7.17608 0.915945 9.3859
364 1 8.3652 9.29381 6.25984
365 1 9.01671 4.21232 7.23867
366 1 8.0311 7.59377 0.0633943
367 1 5.03532 2.53549 4.29771
368 1 0.187252 0.0969361 0.668069
369 1 5.001 4.03826 1.33232
370 1 1.64101 2.05591 0.377067
371 1 9.18658 2.47913 3.05191
372 1 3.93735 1.14659 4.80063
373 1 3.87662 0.914065 0.436694
374 1 4.9498 0.0703295 6.60389
375 1 3.83221 6.90012 0.40224
376 1 8.50105 8.52591 0.255168
377 1 1.03365 6.78621 3.46269
378 1 7.77706 1.60629 2.44147
379 1 7.78898 6.17198 1.56656
380 1 1.20339 1.48881 0.82173
381 1 5.52248 0.621184 7.18988
382 1 8.78194 7.91625 1.55238
383 1 4.46513 5.64092 4.44162
384 1 3.84641 8.6323 5.93197
385 1 3.43307 8.23715 4.55423
386 1 3.03787 7.39375 7.48004
387 1 1.87534 9.03346 6.95609
388 1 7.80092 8.95953 7.85803
389 1 2.73804 4.07142 6.13823
390 1 3.61099 5.51097 8.95777
391 1 7.16727 3.301 8.2679
392 1 4.41129 1.77104 3.78302
393 1 7.19346 6.03978 2.94537
394 1 1.935 7.3495 0.0305816
395 1 7.97823 0.946574 8.59865
396 1 1.82198 6.09966 0.492261
397 1 2.68539 2.97077 0.283178
398 1 1.8648 8.60614 6.10518
399 1 1.85079 1.36095 1.57408
400 1 1.64352 6.86803 8.76799
401 1 3.1201 3.18501 3.6887
402 1 1.54855 1.38096 2.50403
403 1 8.39374 7.5575 4.93876
404 1 9.21557 3.46951 6.82042
405 1 8.92019 2.3494 1.34324
406 1 9.14118 3.9834 6.05097
407 1 7.86063 6.64023 8.73733
408 1 0.868822 8.72118 6.17895
409 1 0.567889 2.77679 6.83047
410 1 1.03297 2.40666 8.90451
411 1 6.08014 5.67342 3.81357
412 1 6.77455 5.76473 6.79251
413 1 3.25272 5.26169 2.04319
414 1 5.0544 4.86282 6.77462
415 1 2.74952 2.74911 1.9285
416 1 2.01804 1.07449 0.657732
417 1 2.6125 6.36182 0.795394
418 1 4.2568 6.21574 7.24564
419 1 2.34683 0.349687 7.86804
420 1 3.13614 4.85248 1.15091
421 1 8.6129 6.9865 9.03236
422 1 2.08799 4.69036 9.30071
423 1 7.851 1.87526 7.68826
424 1 4.22055 2.73952 5.99162
425 1 2.06719 0.226982 0.378945
426 1 4.13657 3.32322 2.21757
427 1 2.58 5.68739 6.75931
428 1 8.41391 1.07192 7.70429
429 1 7.94125 4.91606 5.68622
430 1 0.555343 8.44065 7.3643
431 1 9.31954 8.74242 6.66557
432 1 6.27647 7.28266 6.07868
433 1 5.23021 0.631287 4.49576
434 1 3.79065 4.79809 0.488372
435 1 8.73744 1.97508 7.93089
436 1 5.77412 1.57007 0.843954
437 1 2.19355 5.69731 3.85676
438 1 4.19065 4.03147 4.86498
439 1 2.99749 0.197745 1.50107
440 1 6.55337 0.253976 8.93037
441 1 4.96356 1.73681 2.13565
442 1 0.375847 9.17205 3.6109
443 1 1.5037 0.934641 5.08658
444 1 0.118357 7.35928 9.10101
445 1 2.97823 8.83556 3.17995
446 1 4.75084 7.65814 8.49967
447 1 4.47547 2.93509 9.13337
448 1 1.70953 2.91961 1.77575
449 1 8.09833 4.50902 7.23397
450 1 9.15191 6.51676 2.9605
451 1 4.40175 4.78592 1.73592
452 1 4.59136 3.94249 7.64232
453 1 8.0192 7.26061 4.08363
454 1 4.0677 3.36435 7.22301
455 1 7.5783 2.95951 2.3186
456 1 9.10072 5.13791 3.96787
457 1 3.27392 6.20207 7.03168
458 1 1.87557 0.0985219 4.58086
459 1 5.93374 2.00672 3.47171
460 1 9.11551 8.18444 9.09318
461 1 2.40435 1.16255 4.51894
462 1 8.04016 3.84811 8.80321
463 1 6.59311 2.55389 5.35466
464 1 6.87835 8.68531 9.33855
465 1 2.2653 2.39883 3.90309
466 1 8.4431 5.27411 7.48092
467 1 8.67242 0.00560954 4.94486
468 1 7.857 1.74492 6.85016
469 1 3.80308 3.90986 4.08727
470 1 8.02988 6.17236 2.5054
471 1 5.4214 3.30523 7.45782
472 1 1.44029 7.47866 4.10105
473 1 8.36006 6.76664 6.71567
474 1 7.80715 5.66908 8.15058
475 1 7.7558 3.8856 1.2854
476 1 8.63722 3.11382 8.62864
477 1 7.01941 2.99832 0.0856806
478 1 0.899786 9.11529 0.0846956
479 1 1.85884 6.06097 7.27395
480 1 4.05733 3.54612 5.63627
481 1 4.06376 8.20847 8.30407
482 1 8.09334 9.11948 2.3651
483 1 4.03879 4.36602 6.36364
484 1 1.50907 0.760488 8.30742
485 1 5.8403 4.01424 5.91567
486 1 3.40572 1.09017 7.76072
487 1 6.33415 6.45113 1.05342
488 1 6.06567 3.45324 1.56446
489 1 3.33132 7.28947 4.22989
490 1 5.72523 1.43073 8.897
491 1 5.94932 9.09702 4.32158
492 1 3.65637 1.40612 3.98853
493 1 1.75372 8.31682 4.50556
494 1 2.38951 3.10522 7.03927
495 1 1.84668 2.85716 9.30832
496 1 0.737886 6.81167 5.35142
497 1 8.7093 2.38808 5.53877
498 1 1.13163 1.57597 9.24297
499 1 7.45743 8.12721 3.84353
500 1 5.89784 1.9888 7.9849
501 1 6.19846 4.78385 8.24916
502 1 7.74452 4.346 2.01859
503 1 9.09286 0.336789 7.05949
504 1 6.98999 0.217514 8.24175
505 1 2.51251 0.879735 3.44646
506 1 1.36418 4.37407 7.674
507 1 4.13895 1.43474 2.08779
508 1 9.01183 3.31695 2.6241
509 1 3.62909 2.15596 6.42083
510 1 1.55071 7.04246 5.03758
511 1 1.64504 2.52131 2.9717
512 1 2.70439 4.06475 8.28289
513 1 8.99029 5.82873 1.30542
514 1 2.99991 3.94797 7.29777
515 1 7.58328 4.52922 2.90486
516 1 3.15225 0.111292 0.338703
517 1 4.93926 7.19954 0.181517
518 1 3.71772 8.17537 1.00282
519 1 6.1033 0.622022 4.20512
520 1 2.5843 6.67017 7.48337
521 1 4.79569 2.58591 7.18143
522 1 7.69739 8.82135 6.79088
523 1 2.0143 6.06248 5.99585
524 1 5.50254 7.58686 7.66438
525 1 5.68437 3.30877 0.556841
526 1 0.703402 0.501484 4.26429
527 1 3.26491 8.49346 1.92046
528 1 0.470982 7.74601 0.530854
529 1 1.70642 9.13938 8.83622
530 1 0.666339 4.04087 8.29483
531 1 3.57269 4.05874 8.02231
532 1 6.21032 5.20431 1.5048
533 1 7.90948 2.14086 5.8963
534 1 3.95567 7.69239 9.08346
535 1 0.160546 2.39844 5.22503
536 1 6.03353 7.39665 0.194866
537 1 5.86168 4.30283 9.33666
538 1 2.53914 6.88254 1.57535
539 1 0.959085 2.62169 5.85662
540 1 7.74259 0.547762 3.73963
541 1 9.13924 2.84309 4.61335
542 1 5.59638 3.87246 6.77242
543 1 9.36832 4.09622 5.10521
544 1 3.9889 8.93235 5.02963
545 1 6.38981 9.34051 2.78961
546 1 4.02058 2.02029 4.63836
547 1 4.76152 9.19455 8.74004
548 1 2.69309 5.98967 1.65784
549 1 1.0447 0.507528 0.713419
550 1 7.36162 2.21137 0.212517
551 1 3.96651 6.58285 3.99568
552 1 4.7074 2.62431 2.32922
553 1 0.354151 8.56229 0.470317
554 1 1.75246 4.9903 3.06667
555 1 7.5762 5.29226 2.08753
556 1 8.8899 6.06102 9.20157
557 1 6.71692 7.25103 7.06659
558 1 7.22485 8.06127 0.418701
559 1 2.451 6.75723 5.46912
560 1 2.22423 3.36547 3.73069
561 1 8.08158 0.69702 4.56503
562 1 1.95479 1.36093 6.75491
563 1 0.951071 5.69811 2.28631
564 1 2.92604 5.90939 5.55839
565 1 7.23152 2.88292 3.2114
566 1 2.11765 3.91632 7.08227
567 1 9.38967 1.13158 4.46678
568 1 4.07286 3.97833 0.898073
569 1 3.34775 3.4899 1.32822
570 1 5.39371 6.41792 5.30408
571 1 5.42864 0.0119634 5.17794
572 1 5.47217 6.73037 3.86864
573 1 6.84937 8.91463 7.62444
574 1 1.9035 8.1602 8.84123
575 1 2.55546 4.21544 0.944038
576 1 0.144335 2.67909 7.6004
577 1 7.76819 2.49318 8.48636
578 1 4.07729 6.18012 1.8077
579 1 4.38708 7.06738 7.99492
580 1 0.598944 6.75105 8.61171
581 1 7.05717 5.16958 8.41103
582 1 5.59334 5.85308 1.28834
583 1 1.38227 5.98862 3.00711
584 1 2.33115 8.40089 2.02537
585 1 3.89738 8.96687 0.741479
586 1 7.09756 3.93903 4.34829
587 1 8.6579 6.23918 8.32153
588 1 0.366287 2.76393 1.12265
589 1 4.31977 4.95182 5.05193
590 1 5.04252 0.0282367 7.58517
591 1 0.988697 8.79958 2.96079
592 1 5.33458 2.76266 5.5854
593 1 6.35672 1.25576 7.5685
594 1 7.37413 2.68855 7.67312
595 1 6.49963 6.4561 6.31876
596 1 8.10786 3.05487 5.90379
597 1 4.29185 1.15679 8.13861
598 1 0.994034 6.33474 0.71823
599 1 5.77504 0.421444 1.77672
600 1 4.98714 5.73474 7.53293
601 1 9.2757 4.46068 2.46513
602 1 1.45015 1.88047 5.87501
603 1 2.94245 9.28549 7.16426
604 1 2.54742 8.32523 3.90036
605 1 9.13325 4.04229 3.50651
606 1 8.05724 8.25484 1.99381
607 1 7.44319 1.62511 8.62547
608 1 2.86577 5.97782 8.59193
609 1 8.90105 3.54459 7.82086
610 1 9.1134 4.01249 8.72315
611 1 3.26368 1.01805 5.49615
612 1 8.58854 1.56582 6.16535
613 1 9.17848 5.09417 7.14232
614 1 7.53476 8.69875 5.92184
615 1 3.97741 2.39181 1.86189
616 1 3.4726 2.04005 9.24314
617 1 5.67206 8.92715 3.22424
618 1 0.436763 6.90003 6.37019
619 1 1.74328 3.44707 4.60142
620 1 5.25581 4.43703 5.18056
621 1 6.98459 3.60515 1.85013
622 1 5.48188 8.39082 2.47277
623 1 0.887944 6.90134 1.34799
624 1 8.96903 1.74277 0.437201
625 1 0.0612295 5.33997 2.05579
626 1 5.38709 0.736548 6.22829
627 1 0.895398 8.56951 8.43085
628 1 6.19543 8.42583 1.96053
629 1 1.21073 0.669803 7.03007
630 1 0.0739749 5.87386 0.530425
631 1 5.59031 7.58424 1.92605
632 1 7.2068 5.40261 4.97154
633 1 3.79149 5.69452 5.19768
634 1 6.31458 3.25285 2.5725
635 1 7.56601 4.54187 9.05115
636 1 8.49867 8.44868 6.29744
637 1 5.39905 1.73725 6.02868
638 1 1.8324 9.09668 2.61288
639 1 5.79432 4.93007 2.21919
640 1 4.43815 6.96478 8.90907
641 1 3.85384 7.82176 7.25649
642 1 9.05804 0.223057 2.31712
643 1 2.69438 7.07702 8.3843
644 1 6.44242 1.35398 3.02069
645 1 9.19508 7.10339 8.37123
646 1 0.893777 7.99511 4.66134
647 1 8.7794 2.22368 2.23426
648 1 9.20594 8.76688 2.25524
649 1 8.13484 7.97347 5.64746
650 1 1.00247 4.77615 4.80106
651 1 8.94215 1.26377 8.50084
652 1 3.49864 9.22013 2.38579
653 1 4.10988 7.35939 1.44594
654 1 6.17235 1.36764 6.62156
655 1 0.507104 4.25079 1.79573
656 1 0.769203 5.18874 7.13214
657 1 7.85581 3.82123 0.442621
658 1 6.22215 5.25718 9.16746
659 1 0.746657 0.349033 5.70168
660 1 5.95194 5.73095 6.02134
661 1 8.88596 0.262123 1.24607
662 1 6.26926 6.26289 2.6496
663 1 3.46929 6.69412 1.24612
664 1 7.94246 0.522077 0.721896
665 1 0.0574715 5.90505 6.23318
666 1 4.74152 7.09156 2.10188
667 1 5.8953 3.57458 4.2008
668 1 8.6992 6.53205 3.98452
669 1 6.08932 5.83861 4.82039
670 1 0.894679 3.34214 1.57815
671 1 3.45328 6.52423 7.83705
672 1 5.21675 4.0725 2.17232
673 1 7.99876 1.40835 9.34561
674 1 5.60344 0.422895 8.94271
675 1 2.75754 4.68203 6.79258
676 1 6.72381 7.53292 5.17963
677 1 3.53584 1.62253 8.37659
678 1 1.05055 8.64914 5.21409
679 1 4.20075 3.73076 9.3488
680 1 5.83814 2.34841 2.64782
681 1 3.51156 4.70848 4.71194
682 1 0.237615 1.74492 0.957557
683 1 4.71886 3.77046 6.64264
684 1 3.16548 7.57006 1.79225
685 1 0.775959 0.10455 8.42303
686 1 4.28089 8.4162 4.27238
687 1 0.503985 5.60057 4.91803
688 1 3.59015 4.28047 5.52938
689 1 1.97699 1.13306 9.12884
690 1 8.3249 3.67023 2.06945
691 1 7.52119 8.82073 3.30181
692 1 0.441362 3.33299 3.86815
693 1 4.90681 1.89214 1.12854
694 1 8.04736 7.75788 6.57549
695 1 1.67152 9.10386 3.55617
696 1 6.06246 4.69175 6.45798
697 1 2.13092 6.33076 8.21461
698 1 5.15379 4.61839 3.04492
699 1 7.23461 8.17501 4.66691
700 1 6.33324 6.38411 9.37781
701 1 2.73106 1.41922 7.16258
702 1 1.41236 4.30092 3.9
703 1 3.95509 1.78599 1.19815
704 1 7.81027 1.62676 4.39443
705 1 4.77039 2.74848 1.50056
706 1 0.403454 0.245173 7.65353
707 1 2.93542 4.65071 0.192851
708 1 6.72848 1.69808 9.07876
709 1 5.55769 3.09378 2.14218
710 1 4.90477 4.37099 4.43231
711 1 6.91462 9.13416 6.71826
712 1 8.73449 3.65252 4.35145
713 1 0.773713 2.04147 3.15845
714 1 6.21338 0.658652 3.40394
715 1 6.55705 1.02902 8.54071
716 1 0.470044 1.02362 8.49381
717 1 8.07042 3.55266 3.11709
718 1 4.30906 1.94064 0.25908
719 1 4.70992 4.53353 5.86911
720 1 3.29034 0.671733 4.44358
721 1 5.88246 3.31259 5.24519
722 1 0.821005 4.76014 -0.00138153
723 1 7.93469 5.56564 4.3431
724 1 7.16354 0.516348 4.71321
725 1 4.10175 0.163681 8.02116
726 1 1.50784 8.36765 7.61639
727 1 2.96475 8.26107 5.66476
728 1 7.21204 5.9521 8.72052
729 1 2.52809 1.28471 2.63478
730 1 5.23996 6.5278 8.05015
731 1 5.6306 0.680852 2.68968
732 1 4.96227 7.13956 1.13037
733 1 2.33835 8.09216 0.357061
734 1 3.11786 1.60188 0.570337
735 1 5.43986 4.97083 8.64431
736 1 3.72391 3.14741 8.26222
737 1 2.42928 8.12639 7.20093
738 1 8.55224 8.64899 7.47523
739 1 0.355387 6.44077 2.02145
740 1 3.59576 0.755374 8.77421
741 1 8.79995 0.00166338 3.09465
742 1 0.247709 1.96761 7.10462
743 1 8.63858 3.6874 0.16023
744 1 0.0184684 5.25565 3.0766
745 1 5.15116 8.05718 4.33244
746 1 4.91686 5.47055 2.79688
747 1 5.93029 5.43083 6.81862
748 1 5.2437 4.67076 7.6206
749 1 8.35124 0.478924 5.59173
750 1 7.22496 4.86529 4.00758
751 1 6.05556 0.0939649 8.16845
752 1 1.26816 7.99861 6.67577
753 1 8.16653 6.66764 4.98967
754 1 6.09934 4.11001 4.93577
755 1 2.52923 3.15918 2.82083
756 1 6.56785 4.31964 1.39454
757 1 2.60242 1.10588 8.33886
758 1 5.48223 7.91944 0.698926
759 1 2.69515 1.68974 6.15878
760 1 6.94766 6.0399 1.94061
761 1 2.77183 0.680732 0.865768
762 1 0.778263 7.11522 4.48921
763 1 4.97983 0.142396 0.254229
764 1 7.56445 1.10461 5.44468
765 1 1.3403 4.32499 8.76885
766 1 5.62619 4.51225 3.84003
767 1 4.00431 2.12353 7.66047
768 1 3.24702 4.7646 3.74838
769 1 7.74582 7.57382 8.58131
770 1 2.30897 4.9717 1.59326
771 1 6.61676 5.37459 2.53016
772 1 0.582105 3.47633 6.26983
773 1 2.07797 8.87858 5.28456
774 1 9.3355 3.07218 0.307
775 1 6.7408 1.46156 0.535148
776 1 6.2311 5.69046 8.43943
777 1 1.42568 6.08043 5.24015
778 1 3.745 1.99029 5.4679
779 1 8.48805 4.53706 9.34812
780 1 6.66423 6.70741 3.45618
781 1 0.149273 1.90066 1.8492
782 1 3.22732 0.0872133 7.9809
783 1 1.59446 2.44172 6.88268
784 1 4.10242 9.05159 3.51104
785 1 7.26339 1.00704 3.05148
786 1 3.50613 5.61558 4.22167
787 1 0.490706 3.52554 7.51399
788 1 5.86671 7.23666 1.11922
789 1 8.49868 4.26793 2.71148
790 1 3.02464 7.39457 9.28643
791 1 0.988825 1.56332 1.79558
792 1 1.95934 2.12934 2.0986
793 1 4.91838 3.47055 4.65571
794 1 3.08145 2.77975 5.88346
795 1 0.607428 4.11001 3.15698
796 1 8.37005 4.57186 6.39218
797 1 1.09981 3.44607 9.24865
798 1 2.51557 5.45729 7.74185
799 1 4.72108 4.05757 3.64537
800 1 1.91798 4.00775 2.92774
801 2 1.07007 7.17101 0.0790912
802 2 4.75014 6.31542 0.178152
803 2 4.82917 1.49744 4.69336
804 2 5.11778 2.16519 9.00101
805 2 0.814452 1.67714 5.06529
806 2 1.58069 6.71266 1.79971
807 2 4.26787 8.55686 2.72154
808 2 0.684529 1.5502 4.01573
809 2 7.67005 9.11078 4.20187
810 2 6.38046 8.08645 6.56139
811 2 1.77051 0.562036 3.14332
812 2 0.528697 6.08142 3.07148
813 2 8.53051 8.02998 8.31253
814 2 1.7919 5.40717 2.18514
815 2 4.76326 3.11635 0.646781
816 2 4.43807 1.58137 8.91236
817 2 2.21398 7.74448 8.07584
818 2 2.38294 8.77031 8.28222
819 2 2.35886 6.53451 9.29599
820 2 8.79985 5.632 4.6279
821 2 2.73204 5.25617 4.59678
822 2 3.85902 6.83919 5.37234
823 2 6.81325 1.91763 8.12389
824 2 9.28898 8.98456 7.91635
825 2 0.967045 1.59702 6.84285
826 2 4.76551 0.0873919 2.96558
827 2 3.36758 5.72762 1.14123
828 2 8.23201 0.733125 6.68206
829 2 3.27437 8.58142 7.81017
830 2 3.25333 0.760241 6.75296
831 2 7.77687 5.28121 3.35941
832 2 1.69122 4.43896 0.74802
833 2 0.0732666 7.29279 1.94612
834 2 8.28184 1.3386 3.68682
835 2 0.440264 0.963863 0.322655
836 2 5.92665 9.12795 7.27067
837 2 7.14414 1.8679 3.6817
838 2 6.50703 4.60616 0.495065
839 2 8.11431 8.00639 1.00633
840 2 8.94597 8.53499 5.51289
841 2 1.70428 6.48744 4.07285
842 2 8.46124 6.47755 0.463343
843 2 7.09138 1.02044 6.56732
844 2 2.51913 3.21871 1.18661
845 2 2.91072 6.39091 3.80838
846 2 7.50082 4.59258 0.79895
847 2 6.74835 8.39979 5.38652
848 2 7.4148 6.33164 0.573541
849 2 6.76491 0.564694 5.76849
850 2 6.44324 7.91168 1.20152
851 2 5.48393 2.81659 3.55272
852 2 5.59543 2.18896 7.09997
853 2 0.184303 9.07695 9.02937
854 2 -0.00326901 5.04438 5.5288
855 2 1.34658 4.11177 1.52471
856 2 2.97085 9.1489 4.62978
857 2 6.60304 0.721435 2.36864
858 2 6.62247 1.61715 5.60227
859 2 1.48174 3.3577 3.41915
860 2 8.57385 3.206 0.934252
861 2 2.63724 6.59278 6.49247
862 2 4.30426 5.11395 7.41679
863 2 7.63397 4.07375 3.69008
864 2 8.44946 1.48484 5.12465
865 2 3.41381 4.86527 7.61154
866 2 2.49522 7.43525 3.54099
867 2 0.903616 2.73486 4.69359
868 2 0.931297 6.21856 4.21446
869 2 8.8046 4.52195 4.59141
870 2 6.30065 9.16257 5.57649
871 2 8.97508 1.90725 4.4499
872 2 1.55536 5.52509 7.95052
873 2 2.20758 3.69078 2.02396
874 2 3.14137 1.96147 2.16988
875 2 3.64195 8.33181 3.40058
876 2 3.76872 5.69947 7.96243
877 2 2.70307 4.02639 3.29869
878 2 7.45567 6.65154 6.72351
879 2 3.9755 2.71296 0.777201
880 2 3.49729 2.79424 2.62663
881 2 5.08634 1.03129 5.43191
882 2 7.09799 6.82086 2.57
883 2 2.10782 5.58484 8.79898
884 2 9.36221 9.34649 5.96506
885 2 6.9871 5.8123 4.21639
886 2 4.1046 0.431069 7.21683
887 2 3.81001 4.77425 8.48619
888 2 2.093 4.31321 4.57446
889 2 4.43986 0.610943 5.94457
890 2 6.46905 2.70368 3.56478
891 2 3.77471 7.01138 2.2243
892 2 0.402181 7.73746 6.84506
893 2 0.686255 5.06971 7.96395
894 2 2.22826 1.30966 5.42953
895 2 0.0558183 7.61004 4.93585
896 2 0.957072 2.79165 0.423497
897 2 2.22588 2.01656 7.49558
898 2 4.11069 7.73482 6.34113
899 2 4.74575 0.984262 6.79423
900 2 7.28012 7.73813 6.11771
901 2 5.25229 0.170822 3.76991
902 2 8.56263 1.63457 2.92747
903 2 8.85782 8.43032 3.06814
904 2 1.74929 5.19291 7.10165
905 2 1.20557 8.23429 3.73632
906 2 6.31297 2.6557 7.68034
907 2 0.432414 1.08826 2.31573
908 2 0.14084 1.1372 7.68838
909 2 3.22976 7.93183 6.49977
910 2 7.45185 7.13609 1.2589
911 2 1.66342 6.98619 5.93213
912 2 9.03194 0.740881 6.13798
913 2 7.80824 3.15797 9.2201
914 2 4.45699 0.623615 9.11117
915 2 6.69427 0.464578 7.37405
916 2 5.96962 0.972378 5.41879
917 2 6.27581 8.55187 0.56308
918 2 1.80122 7.41833 7.23674
919 2 2.34699 3.75195 0.0463858
920 2 3.30311 3.79515 0.395792
921 2 1.21412 5.00827 1.53315
922 2 3.95866 1.37082 7.03609
923 2 1.64816 0.132303 5.869
924 2 1.13628 5.33244 5.58447
925 2 0.88628 7.62057 5.83262
926 2 4.23893 8.62917 9.32991
927 2 1.36293 0.487608 2.09457
928 2 1.34893 7.65655 1.79741
929 2 6.08627 8.69126 8.60938
930 2 3.20512 8.98353 8.8293
931 2 3.60129 6.18683 6.23187
932 2 0.267469 8.04634 2.85392
933 2 8.56523 7.96726 4.00002
934 2 1.30622 1.10274 6.13079
935 2 9.35585 6.69611 1.18453
936 2 2.86315 4.41632 1.97417
937 2 1.72876 3.13659 6.35505
938 2 7.08085 2.45885 4.28136
939 2 8.23558 8.72756 5.03734
940 2 5.00873 5.75472 1.93935
941 2 0.293127 0.864713 6.64538
942 2 0.316007 3.27335 8.47017
943 2 3.43719 4.6516 2.80454
944 2 4.0242 3.72037 3.20684
945 2 3.00329 8.03836 8.60364
946 2 3.74229 5.96511 0.378519
947 2 8.21771 3.69622 6.73824
948 2 5.60917 5.68438 0.40459
949 2 5.71595 7.35739 6.80909
950 2 2.15841 7.53884 2.31415
951 2 7.27966 5.46962 1.27492
952 2 5.0294 2.22528 7.93989
953 2 8.7354 5.2983 0.537047
954 2 5.34969 2.30167 0.51299
955 2 9.1927 3.89194 1.29479
956 2 4.69863 6.26899 1.05224
957 2 7.40055 6.98053 8.00575
958 2 1.18855 2.35446 3.82873
959 2 3.67387 4.17478 1.87385
960 2 4.5124 0.512202 4.983
961 2 2.33261 7.65959 6.3183
962 2 8.64669 2.13105 8.85335
963 2 8.72168 7.34314 3.34797
964 2 4.14446 7.56885 4.57541
965 2 6.6752 2.90712 6.27653
966 2 2.91768 8.61983 0.901226
967 2 4.62793 6.93423 6.33306
968 2 5.55478 5.95313 3.13257
969 2 5.77443 6.5524 1.75813
970 2 2.69136 2.04569 5.23153
971 2 3.93188 7.80885 5.45186
972 2 6.53545 1.32112 1.43788
973 2 5.65529 7.4261 4.97543
974 2 8.12162 5.31648 9.21177
975 2 8.36136 0.134512 7.58488
976 2 4.05174 0.54596 2.3958
977 2 6.21119 0.812754 0.0396752
978 2 5.59587 6.59533 6.20365
979 2 6.85295 7.8948 7.9638
980 2 9.11251 0.267651 8.44577
981 2 8.71247 5.77972 3.47573
982 2 9.30706 4.93878 9.2351
983 2 4.01874 1.31302 6.05165
984 2 2.1344 4.90989 6.18648
985 2 7.23861 9.22792 1.90217
986 2 6.06158 3.28309 9.11789
987 2 6.11911 2.31056 9.385
988 2 1.19709 3.2826 8.25293
989 2 5.0604 6.84161 7.22958
990 2 7.47166 4.31099 6.17668
991 2 3.29038 3.72492 2.52726
992 2 9.3016 4.91574 1.20683
993 2 5.91426 8.3944 5.13325
994 2 0.783033 6.13296 5.92837
995 2 8.49441 9.0212 3.91095
996 2 1.89656 3.68466 8.59401
997 2 6.2084 7.00237 7.69513