#bin. KALJ data file T=0.5

1000 atoms
2 atom types

0 9.4 xlo xhi
0 9.4 ylo yhi
0 9.4 zlo zhi

Masses

1 1.0
2 1.0

Atoms

1 1 6.84468 8.50508 8.69983
2 1 9.00538 8.75384 8.10135
3 1 4.81704 7.79154 2.20557
4 1 4.51349 6.4491 4.92173
5 1 8.88224 5.93512 0.911914
6 1 2.83129 8.96838 3.26436
7 1 0.748476 0.316158 6.13428
8 1 5.90747 9.25618 5.08894
9 1 4.3667 1.6396 2.27386
10 1 7.55131 4.2952 8.42365
11 1 4.92496 5.19393 4.74699
12 1 2.65393 7.22368 4.48658
13 1 3.5725 2.33023 2.42883
14 1 7.52863 8.74057 0.930886
15 1 8.38282 4.61433 8.54635
16 1 0.206278 8.47577 5.84819
17 1 4.2803 4.03845 0.0430715
18 1 1.94049 2.62279 1.52673
19 1 4.13894 2.21693 5.92871
20 1 8.79191 5.65258 7.05536
21 1 6.4096 3.62993 3.35684
22 1 4.96147 1.99809 0.639168
23 1 8.823 7.23195 2.57296
24 1 7.86684 4.97173 1.87691
25 1 4.60697 3.16452 9.11181
26 1 6.42821 4.72724 7.08193
27 1 3.52345 0.54057 3.15724
28 1 8.57596 5.02141 1.17089
29 1 3.45946 9.23343 3.85299
30 1 0.966891 6.25154 1.69659
31 1 0.0938427 8.33241 3.43744
32 1 1.35434 1.3783 0.0372717
33 1 7.30777 0.332032 1.85612
34 1 9.32889 0.135478 4.75359
35 1 2.67707 6.79049 5.3585
36 1 7.81654 7.12278 1.41022
37 1 6.47505 7.8914 7.45093
38 1 7.79343 5.66413 1.12949
39 1 2.49981 1.70724 3.81621
40 1 7.29502 4.43847 7.36707
41 1 8.80287 4.87329 2.03123
42 1 1.94077 6.1007 0.110357
43 1 2.09149 6.54814 4.45623
44 1 7.40203 6.5081 2.27018
45 1 7.78072 3.56803 2.30366
46 1 6.82849 7.06954 7.57987
47 1 1.58165 8.26952 5.17365
48 1 5.94163 1.79853 0.0494593
49 1 4.37796 3.20437 5.86796
50 1 5.77949 5.1291 5.32274
51 1 3.83742 5.86991 3.40859
52 1 2.10072 0.735948 4.70549
53 1 4.56365 4.27804 5.07553
54 1 5.56339 6.42157 2.2251
55 1 7.81854 0.821005 7.90324
56 1 6.72077 4.63137 2.82478
57 1 1.15489 1.91979 3.14841
58 1 3.60817 8.04601 1.92434
59 1 8.53517 1.65672 4.16674
60 1 6.47546 1.43561 8.87652
61 1 7.82642 9.43084 2.53295
62 1 2.06699 7.48495 8.32478
63 1 0.891731 0.991089 8.79933
64 1 7.94274 3.86502 6.73186
65 1 6.90555 0.407487 2.65796
66 1 5.42301 7.27752 8.18606
67 1 -0.00792857 1.26832 5.38701
68 1 8.24081 4.45831 2.63948
69 1 9.1632 6.13896 2.76738
70 1 2.19291 8.99224 1.4222
71 1 2.4125 4.93585 6.3297
72 1 6.23399 0.973977 2.78608
73 1 4.2449 8.713 1.7062
74 1 5.28208 1.39469 2.2894
75 1 6.615 7.24458 6.36166
76 1 3.65553 4.3698 0.915565
77 1 6.81113 2.53781 2.09574
78 1 0.187116 4.16094 0.619114
79 1 7.55017 9.00043 9.07961
80 1 6.84656 0.466116 3.62398
81 1 6.40574 6.64109 0.283083
82 1 2.9286 8.72325 1.93096
83 1 0.745354 6.19563 8.14541
84 1 3.61326 3.37888 4.49581
85 1 1.56967 2.3235 4.86889
86 1 6.25564 5.50289 1.65619
87 1 0.0217611 0.223608 6.60016
88 1 0.923263 1.13293 7.1857
89 1 4.15665 6.86223 6.84694
90 1 0.595469 7.50878 5.93956
91 1 2.64592 4.12779 3.13741
92 1 5.979 2.92164 7.88637
93 1 3.07937 8.32839 9.16635
94 1 5.05481 3.203 7.16818
95 1 1.00169 8.82198 3.1449
96 1 0.325776 9.0468 3.91051
97 1 2.0531 1.32213 2.73243
98 1 1.47058 8.9438 9.035
99 1 6.80519 2.80031 2.95986
100 1 2.17423 3.3308 3.40896
101 1 8.58978 6.53059 8.69537
102 1 3.74951 9.31028 2.23618
103 1 1.18072 9.35536 1.17522
104 1 5.99702 2.5696 1.61154
105 1 0.8757 1.20085 2.06067
106 1 0.797184 2.18292 3.98537
107 1 3.26028 8.13491 4.61038
108 1 6.40615 0.467615 6.60382
109 1 2.59434 0.168714 7.39792
110 1 7.32065 6.47392 7.16833
111 1 4.63901 7.2841 4.46863
112 1 6.16721 0.631444 4.21356
113 1 2.18953 8.15386 0.516016
114 1 6.4936 1.5004 5.04206
115 1 0.870136 4.88277 5.03485
116 1 0.787089 1.03177 5.66965
117 1 7.74685 4.60457 9.26366
118 1 4.56686 3.56579 3.66748
119 1 8.65594 0.457399 1.44428
120 1 5.33296 9.13692 9.31262
121 1 8.18231 3.18309 8.17479
122 1 6.05336 7.26945 7.06432
123 1 7.53493 9.33709 7.61807
124 1 0.813883 4.86767 0.0214533
125 1 2.10212 6.51015 1.28421
126 1 5.5109 6.04021 4.19986
127 1 7.49387 3.10156 7.14505
128 1 5.94364 7.86411 1.17486
129 1 3.98288 4.37201 1.82335
130 1 6.30948 1.31652 3.64512
131 1 7.03379 5.11582 1.48216
132 1 2.87985 8.72622 5.37546
133 1 0.804353 3.92951 4.62058
134 1 3.84467 8.91974 3.06546
135 1 5.18545 8.87384 6.70899
136 1 9.08664 3.10471 3.49895
137 1 4.56192 8.14141 6.89801
138 1 2.76744 5.32353 4.33075
139 1 0.331133 3.0552 5.78584
140 1 3.58147 6.18877 1.58442
141 1 2.59049 5.91983 5.00251
142 1 1.64716 9.12459 4.25423
143 1 4.32773 0.459327 3.43191
144 1 0.0351486 0.506472 3.88217
145 1 6.78454 3.65499 2.21865
146 1 9.01339 2.20746 1.82451
147 1 2.8413 1.47716 8.27609
148 1 0.602291 0.289487 3.04607
149 1 6.80239 4.3452 1.24999
150 1 4.85357 1.4821 3.46834
151 1 7.84612 7.63871 7.5478
152 1 5.16457 9.3241 7.58117
153 1 8.56732 8.21622 5.43561
154 1 1.5721 2.74785 7.54449
155 1 3.43063 6.87902 5.79243
156 1 5.62016 3.3883 3.52042
157 1 4.60204 4.97428 7.47945
158 1 6.95062 7.60425 9.28457
159 1 7.56629 3.09129 5.05568
160 1 4.05715 6.67658 3.15604
161 1 8.58729 5.95153 3.63207
162 1 0.075217 2.35891 5.15476
163 1 2.18958 2.59933 0.703201
164 1 2.62489 5.85381 3.69413
165 1 4.88087 6.63169 7.50061
166 1 2.92987 0.125706 4.90605
167 1 6.4439 5.03652 3.59265
168 1 6.97423 5.04295 8.35287
169 1 4.57764 9.34012 0.483413
170 1 5.39249 7.47601 3.82741
171 1 6.28804 6.9488 8.61499
172 1 1.30598 3.26312 9.01243
173 1 2.79286 7.52828 2.0531
174 1 0.723649 8.15783 6.64543
175 1 3.95558 4.02458 7.64267
176 1 2.25846 4.10842 6.34536
177 1 6.41348 3.23251 9.3586
178 1 0.636815 8.8972 4.87122
179 1 8.56294 3.34172 0.448205
180 1 7.43217 4.16408 5.78449
181 1 9.15325 6.51794 7.03097
182 1 7.76429 5.64632 4.64485
183 1 2.61779 2.35229 8.68193
184 1 7.87267 4.53301 3.61315
185 1 8.54866 4.33258 0.269113
186 1 4.27302 7.29272 5.33866
187 1 5.49448 8.98699 2.64009
188 1 1.74066 5.52647 3.63763
189 1 6.52111 8.49966 0.984684
190 1 9.01397 9.19785 0.41871
191 1 5.86753 5.37512 6.39387
192 1 2.40898 3.68168 7.17057
193 1 8.48278 7.36795 4.84892
194 1 6.2904 6.64013 3.9228
195 1 0.161662 0.0252714 1.11572
196 1 6.91399 0.878892 8.26347
197 1 9.25422 8.003 1.56416
198 1 0.398635 1.1462 7.8666
199 1 7.35946 3.04949 3.62538
200 1 7.20737 4.34693 2.08764
201 1 6.04027 1.96439 6.92682
202 1 0.659194 9.23827 1.84195
203 1 7.09277 8.80414 4.96868
204 1 5.25057 6.83455 5.67214
205 1 7.25918 1.8028 5.959
206 1 6.92723 1.20385 6.66644
207 1 6.63041 4.39918 0.303355
208 1 7.38259 1.1166 9.11611
209 1 4.89863 1.5546 5.4993
210 1 5.47944 6.83734 9.0908
211 1 3.95913 8.26189 8.12005
212 1 7.03136 7.28568 3.64933
213 1 7.49913 2.02725 2.81665
214 1 4.44244 2.71928 6.70265
215 1 2.13156 4.3502 0.811158
216 1 2.81607 3.77249 2.25163
217 1 4.2497 6.44672 5.91345
218 1 3.45771 1.49324 2.67146
219 1 3.73159 5.07789 3.01416
220 1 6.0461 0.783881 5.34313
221 1 5.19299 5.40251 7.00708
222 1 1.17074 5.77234 6.27027
223 1 1.03777 4.68278 6.30977
224 1 8.33426 0.863553 2.72777
225 1 7.48523 7.65792 5.27876
226 1 4.56527 9.14986 4.8899
227 1 6.9103 2.47312 5.3908
228 1 2.46825 7.41344 1.25468
229 1 7.39128 1.00038 5.15168
230 1 8.22787 4.31986 4.92524
231 1 4.70195 3.16078 1.14429
232 1 4.91482 4.05633 8.81261
233 1 9.32981 6.28044 5.12164
234 1 9.01931 5.23327 8.18344
235 1 9.39053 0.303898 5.66783
236 1 8.49364 2.53316 5.03749
237 1 0.936872 4.97919 1.10622
238 1 0.67968 1.96309 8.21209
239 1 9.21018 0.563298 7.52032
240 1 4.72289 3.00871 4.4653
241 1 8.32187 7.82747 0.84468
242 1 8.35289 8.68723 1.3312
243 1 6.5984 8.20345 6.38738
244 1 2.34089 5.8648 8.61032
245 1 5.69462 0.44067 1.98253
246 1 4.64959 0.332352 5.87887
247 1 7.00709 0.613724 7.28016
248 1 0.166048 7.92316 7.99852
249 1 1.814 7.70532 2.72923
250 1 2.72553 4.68077 2.40339
251 1 8.5647 0.649691 0.106353
252 1 8.50928 0.860242 6.95173
253 1 0.113504 2.59706 2.87622
254 1 6.13924 5.51428 7.40405
255 1 2.19245 8.47998 8.96637
256 1 7.78681 1.10122 6.18464
257 1 5.49059 4.03972 7.27287
258 1 8.75662 1.03705 3.53318
259 1 8.30913 6.40814 2.58852
260 1 5.04779 4.05602 4.45807
261 1 5.17567 2.1565 1.51033
262 1 4.73866 2.34184 5.27226
263 1 6.87056 7.0016 4.66162
264 1 1.95834 2.32175 2.48534
265 1 8.91322 8.96301 3.04377
266 1 1.79325 2.58382 6.65872
267 1 5.25964 7.26781 1.56141
268 1 3.33935 2.04383 9.19375
269 1 1.13497 8.33805 3.9621
270 1 0.907038 5.7853 5.24856
271 1 5.03785 8.75442 3.38078
272 1 2.7885 1.95008 0.619457
273 1 4.24206 7.52891 6.2335
274 1 2.36228 8.42679 7.9592
275 1 3.64911 9.08818 4.69467
276 1 5.10101 7.63851 6.22995
277 1 8.16392 3.21712 1.48278
278 1 6.41608 6.15576 5.17781
279 1 3.1822 6.78208 3.55772
280 1 0.496424 4.5408 2.76857
281 1 0.633685 1.19724 3.49359
282 1 4.87996 0.573087 4.11587
283 1 2.685 7.48698 3.58692
284 1 6.21783 7.7409 2.91138
285 1 5.90248 9.07409 8.31866
286 1 0.0644917 5.91194 7.57093
287 1 0.180322 4.36463 8.18045
288 1 8.7825 1.19459 2.06124
289 1 0.536492 3.14472 3.81592
290 1 3.07389 9.08568 1.07843
291 1 6.27205 5.94883 9.09169
292 1 8.43989 5.29017 0.332936
293 1 8.60755 8.38037 8.83394
294 1 8.1386 8.35649 4.69077
295 1 2.15955 5.24411 2.92531
296 1 2.32331 4.08245 9.16106
297 1 5.08734 4.3675 3.56899
298 1 5.179 0.436589 5.10117
299 1 4.55872 4.94078 2.08119
300 1 3.40291 3.48668 0.101993
301 1 2.44487 0.108013 4.00499
302 1 2.12991 3.69226 1.5145
303 1 0.299179 7.19996 1.82473
304 1 7.77178 0.739055 4.37933
305 1 8.32759 2.26269 1.03193
306 1 7.52543 2.335 8.73625
307 1 3.48864 4.22598 5.27289
308 1 7.68591 2.71281 2.02846
309 1 1.68424 6.42309 8.36619
310 1 2.73753 1.96922 2.88318
311 1 7.29665 5.88525 8.6768
312 1 8.46331 1.79283 6.63924
313 1 4.58063 8.82019 2.59271
314 1 0.335082 1.64649 1.51841
315 1 3.7598 7.83683 0.157782
316 1 6.24195 7.69165 4.17335
317 1 8.75922 9.21854 7.30117
318 1 1.06975 4.67115 1.92319
319 1 8.70911 3.63115 7.40767
320 1 4.50463 5.92059 3.95257
321 1 3.97161 3.42684 6.83731
322 1 3.16726 2.08233 4.27719
323 1 8.68638 7.14067 1.60038
324 1 4.15496 7.9807 2.86229
325 1 -0.0039476 1.40737 4.42139
326 1 7.93161 8.92357 5.38613
327 1 4.23718 4.99001 4.16242
328 1 4.2742 0.90991 2.69706
329 1 5.13961 1.18689 7.13597
330 1 3.42607 5.14578 7.16785
331 1 5.53675 1.15472 4.58763
332 1 8.29515 2.73354 9.1479
333 1 3.50958 1.32804 4.83734
334 1 0.842264 1.90913 6.59759
335 1 6.85951 9.05717 7.0686
336 1 2.49987 0.572712 3.1764
337 1 4.38827 0.967605 0.556796
338 1 5.42913 0.082151 6.1009
339 1 5.0447 0.448122 1.33539
340 1 5.05174 8.1475 7.63153
341 1 8.27859 6.33197 7.01209
342 1 5.25042 0.965909 6.25895
343 1 7.0308 3.70959 4.44631
344 1 0.954004 2.83647 8.19188
345 1 9.02874 3.07522 1.24797
346 1 9.19854 5.87264 8.89476
347 1 2.99533 2.93224 2.91162
348 1 5.79883 6.54032 7.81331
349 1 0.744862 2.25226 9.10335
350 1 5.98359 0.416139 8.98006
351 1 8.18575 2.65172 3.98923
352 1 4.24141 2.18918 1.25457
353 1 0.705548 2.55952 0.89234
354 1 1.76593 0.318214 5.76615
355 1 7.11707 8.01733 4.56637
356 1 8.47614 6.48437 4.45099
357 1 5.93122 8.95992 1.54325
358 1 2.29786 3.22321 0.012806
359 1 7.90405 1.7176 0.119484
360 1 5.72693 1.81185 8.06777
361 1 5.03774 3.13704 8.07322
362 1 6.97754 6.75497 5.70697
363 1 5.75069 5.89298 3.37624
364 1 8.68058 2.20284 5.8808
365 1 8.23528 8.64806 0.405322
366 1 8.40537 6.22355 0.0774508
367 1 8.27228 2.9223 6.42144
368 1 3.7438 0.598768 5.53842
369 1 0.162331 5.62494 5.72023
370 1 6.97431 4.27973 3.75917
371 1 6.12888 9.0591 6.5123
372 1 4.66212 4.32166 2.70575
373 1 5.27066 5.44736 2.47851
374 1 9.29263 8.67181 2.25793
375 1 6.31883 4.54792 2.03579
376 1 3.99321 0.547694 4.24327
377 1 1.16708 4.98391 3.18998
378 1 6.02439 8.27727 4.79726
379 1 6.21245 5.4607 2.6793
380 1 3.97051 4.41452 3.50386
381 1 6.5609 5.63424 5.9782
382 1 3.48016 4.34882 9.04273
383 1 5.99438 3.85964 0.567242
384 1 5.60235 0.812295 8.14996
385 1 1.33157 7.32795 5.40298
386 1 3.27251 2.67285 6.40632
387 1 1.52728 5.0886 5.72031
388 1 6.84529 1.59176 7.56414
389 1 8.35943 4.41451 5.99355
390 1 1.01635 8.24112 9.07276
391 1 5.31623 0.600267 0.323306
392 1 5.13833 1.95859 8.71476
393 1 0.453383 3.72808 6.48098
394 1 3.32209 3.76674 3.54915
395 1 5.75658 2.07709 4.21364
396 1 7.72709 4.02429 1.45634
397 1 0.574574 7.3194 4.22509
398 1 3.47085 7.18355 8.84145
399 1 6.91333 8.98502 0.276508
400 1 3.44759 2.1381 3.29624
401 1 2.29016 3.10713 6.12983
402 1 3.49442 7.18743 1.22611
403 1 6.67401 2.5373 7.39734
404 1 5.44327 6.03442 5.06389
405 1 7.82465 7.48495 2.75328
406 1 9.24398 2.68687 6.71724
407 1 6.54838 8.808 4.22995
408 1 1.4833 2.56704 0.147941
409 1 3.63531 8.0752 0.974169
410 1 8.26425 2.02398 2.40924
411 1 8.52825 9.29085 2.06867
412 1 2.81624 2.24282 1.96199
413 1 5.03698 6.75949 6.5856
414 1 6.00494 7.20018 2.03391
415 1 6.60278 5.93606 6.81421
416 1 8.1756 5.89634 5.58907
417 1 3.7717 9.0038 5.61738
418 1 8.5507 1.49892 1.33196
419 1 2.3574 7.00778 2.62841
420 1 2.77181 0.152255 5.85734
421 1 7.36173 3.62346 7.84455
422 1 1.582 5.47497 8.912
423 1 8.85816 3.8369 8.2136
424 1 3.68835 0.706485 8.18628
425 1 0.0422684 8.3982 0.555707
426 1 8.99614 1.57575 2.82524
427 1 1.94956 6.58914 6.9678
428 1 3.30938 6.23677 2.63329
429 1 7.00964 6.00756 1.38021
430 1 6.47365 3.92047 7.49098
431 1 4.6014 8.38122 0.0308575
432 1 8.97446 7.76536 6.22674
433 1 8.0672 8.76351 3.40487
434 1 7.33 8.64315 5.96619
435 1 1.53347 0.649759 1.92181
436 1 9.36656 6.99257 6.28531
437 1 5.61719 2.8753 5.70888
438 1 7.56509 1.61373 8.18417
439 1 6.27157 3.49006 1.41612
440 1 3.83319 2.63881 4.91241
441 1 8.50005 0.355702 7.99469
442 1 8.13724 2.67646 3.09069
443 1 4.84488 4.15897 7.86992
444 1 3.54441 0.944185 1.47086
445 1 5.57723 5.67976 0.565115
446 1 4.81804 1.97671 4.48831
447 1 8.5879 8.21614 7.0466
448 1 1.59172 7.19639 1.76991
449 1 8.3628 3.52116 3.00558
450 1 1.37454 2.10599 5.87872
451 1 8.10151 7.74578 6.03695
452 1 7.90854 3.59005 4.19418
453 1 5.74254 1.94381 5.22891
454 1 3.55256 6.03339 5.38347
455 1 1.97141 4.70157 1.84093
456 1 1.26784 0.350767 0.173911
457 1 5.24718 8.07247 2.98058
458 1 2.80056 1.27374 9.22292
459 1 3.70468 2.50441 7.23617
460 1 5.35023 8.33735 0.603134
461 1 4.56791 3.63838 1.883
462 1 7.05097 3.04994 8.57272
463 1 3.74336 1.58629 8.52014
464 1 1.02445 4.53767 7.80044
465 1 7.87846 5.11353 7.93211
466 1 1.5203 3.49841 4.84815
467 1 4.09131 0.136303 1.23561
468 1 3.91868 5.8814 0.663024
469 1 -0.0347077 4.82352 5.31615
470 1 2.05201 6.76438 6.00002
471 1 6.17345 7.45714 5.55495
472 1 2.73529 3.383 4.50582
473 1 0.293648 3.6626 2.8711
474 1 6.14734 8.65604 9.18243
475 1 5.57689 2.84219 4.73202
476 1 0.173195 4.69221 6.1821
477 1 0.333074 0.359306 9.13366
478 1 8.61928 0.146668 3.60005
479 1 1.42486 3.62988 6.34082
480 1 2.98565 0.950857 4.14581
481 1 3.39312 8.22379 3.37968
482 1 1.59268 2.984 4.15551
483 1 7.77385 5.08286 5.62013
484 1 3.34305 0.67886 0.667484
485 1 5.85351 2.81359 2.8281
486 1 4.52802 2.35725 3.03913
487 1 0.218152 8.63083 8.684
488 1 1.56087 8.35365 8.36512
489 1 1.94908 8.26635 2.10431
490 1 4.6184 7.53812 7.9735
491 1 7.46397 2.06408 4.55835
492 1 0.479061 3.36359 0.287356
493 1 2.39229 2.53501 4.37516
494 1 7.70837 5.81606 6.46364
495 1 5.61221 1.80382 3.20962
496 1 7.92511 2.46791 5.60335
497 1 2.09999 9.1808 4.96729
498 1 4.49406 9.12735 4.0077
499 1 2.41043 1.632 4.7908
500 1 3.03812 3.26501 8.54163
501 1 2.74061 8.25603 1.21608
502 1 2.91936 4.53496 0.358137
503 1 1.19852 2.76085 1.93346
504 1 6.86115 7.71798 8.24602
505 1 0.674256 5.13285 8.62029
506 1 4.57302 0.543991 6.79805
507 1 5.41317 3.7411 1.30119
508 1 6.67483 8.2017 5.51874
509 1 0.327564 3.46768 7.94339
510 1 7.25341 3.7094 9.08082
511 1 4.64856 1.05399 7.971
512 1 5.16807 6.48945 0.834178
513 1 8.50061 2.54371 7.31942
514 1 2.16713 0.512507 8.91154
515 1 0.221773 7.74664 9.23078
516 1 5.03112 4.68755 5.90948
517 1 1.04924 5.28143 7.24913
518 1 0.888898 2.90081 4.66314
519 1 5.09222 7.89151 5.32831
520 1 5.38601 7.72654 9.25728
521 1 1.63625 1.29859 5.38589
522 1 2.96965 5.44685 0.918865
523 1 5.73113 6.22194 6.93149
524 1 0.00421958 3.62001 4.31951
525 1 7.69239 7.32188 0.244332
526 1 1.85391 5.38391 4.70715
527 1 1.40315 8.6688 0.562105
528 1 5.79826 4.43859 6.41836
529 1 5.42821 5.19578 3.82537
530 1 7.61308 4.95525 2.83742
531 1 1.95406 1.20489 7.01154
532 1 8.59715 1.43367 7.71605
533 1 5.35226 4.70886 1.67575
534 1 3.77124 2.80899 8.93129
535 1 8.76184 8.54296 3.97834
536 1 1.27456 0.529932 8.07174
537 1 8.5158 4.9526 4.07354
538 1 9.02581 2.73363 4.35057
539 1 7.76016 5.95633 7.73086
540 1 0.392338 6.97117 7.70067
541 1 8.20976 0.203693 6.43123
542 1 2.0876 3.10283 8.42553
543 1 3.05336 9.1474 6.63393
544 1 7.6615 6.78732 8.1545
545 1 8.41883 2.23585 8.29052
546 1 2.52116 0.670504 2.0496
547 1 3.66927 1.20124 9.40391
548 1 7.88316 6.81541 5.06675
549 1 6.14931 2.01015 0.972565
550 1 7.18778 4.89043 6.36649
551 1 6.75446 5.1748 5.15223
552 1 4.47958 5.66726 5.3851
553 1 9.292 7.35334 5.39829
554 1 8.63368 0.76275 4.48964
555 1 0.907684 6.10333 3.56011
556 1 1.24521 3.63708 8.16543
557 1 1.50988 4.53843 8.7015
558 1 6.42341 8.66434 3.19566
559 1 7.59117 1.80806 1.90406
560 1 7.96962 0.891784 1.92404
561 1 1.5654 1.73121 4.12068
562 1 6.61708 4.47561 5.73144
563 1 5.54342 0.896352 3.55618
564 1 0.162566 4.96621 7.2662
565 1 8.32099 1.28981 8.73854
566 1 4.15156 5.82899 2.22004
567 1 2.37275 9.29234 2.55276
568 1 0.721478 4.19598 7.13083
569 1 4.67753 7.18197 0.336112
570 1 2.70393 1.21257 0.954933
571 1 5.07298 5.4515 9.04628
572 1 3.16665 7.73192 8.14682
573 1 8.20651 1.58347 5.14346
574 1 4.34104 5.76507 6.75338
575 1 1.88879 4.47327 7.18653
576 1 6.19009 0.953175 0.558677
577 1 3.2874 3.39469 7.442
578 1 5.18879 6.03502 5.97978
579 1 8.88187 9.34982 8.84977
580 1 7.725 7.28625 4.2265
581 1 0.75429 8.00977 4.98052
582 1 1.00068 6.5009 4.46572
583 1 1.29826 3.75383 1.92652
584 1 7.72166 8.14722 9.08895
585 1 2.29056 0.57428 6.4948
586 1 5.89761 6.82427 2.99671
587 1 1.29639 1.93592 1.68123
588 1 0.488098 6.3919 0.459815
589 1 5.94419 4.67232 7.80596
590 1 1.52005 7.78133 0.238101
591 1 7.83213 6.7484 6.17419
592 1 1.96972 0.924358 3.80528
593 1 9.25741 4.7911 9.02935
594 1 1.44118 3.4584 7.18702
595 1 5.32771 5.52484 1.37722
596 1 5.83654 4.78526 0.893271
597 1 7.85902 8.64811 8.01459
598 1 4.59448 5.26353 3.07005
599 1 4.62185 6.04013 0.156623
600 1 9.24292 7.38963 0.694463
601 1 3.73388 7.71936 7.17958
602 1 0.188182 7.85688 2.67279
603 1 5.05201 3.70933 6.33468
604 1 4.11141 5.79743 7.67356
605 1 3.78482 3.23549 1.86066
606 1 3.41119 5.37507 2.15669
607 1 6.57896 1.95577 3.09284
608 1 2.51752 6.72149 8.74037
609 1 0.923857 0.220854 5.26348
610 1 3.60831 1.58381 0.83801
611 1 5.76552 8.38878 5.77353
612 1 0.438704 1.14805 0.105979
613 1 0.815304 7.15779 0.0333201
614 1 2.41022 5.94464 7.69385
615 1 2.87838 6.57368 1.84562
616 1 5.09073 3.64055 0.369382
617 1 9.21959 2.22025 7.93
618 1 9.11067 7.35007 8.50229
619 1 2.23713 2.27561 5.5805
620 1 2.54054 7.52891 9.19143
621 1 7.03406 1.38174 4.20673
622 1 2.74571 3.66611 0.780951
623 1 4.55446 4.14473 6.99715
624 1 1.73232 7.00531 9.33639
625 1 6.87599 8.60734 7.7515
626 1 2.48831 2.03138 7.38508
627 1 3.12017 4.68928 3.67699
628 1 5.47954 1.17313 8.93363
629 1 1.28248 3.36389 0.676388
630 1 4.47185 1.02773 1.5007
631 1 6.00927 5.45839 4.5856
632 1 0.314921 2.75321 1.86289
633 1 7.682 3.01981 0.336524
634 1 0.0816852 0.748238 1.69219
635 1 2.61162 5.91857 6.50343
636 1 3.17922 6.24103 8.2749
637 1 0.562022 3.15013 7.15152
638 1 5.00676 3.33155 2.81935
639 1 1.70885 5.21459 7.84877
640 1 6.70299 9.32653 5.76255
641 1 2.15507 1.89198 0.040111
642 1 0.243266 5.59058 1.23961
643 1 3.8481 3.32737 0.967553
644 1 8.7591 1.49268 0.355597
645 1 1.13362 6.63717 6.13531
646 1 5.0197 3.39283 5.27761
647 1 7.08568 5.43598 7.36528
648 1 0.103458 4.33784 1.55567
649 1 8.93321 3.01109 8.64392
650 1 4.6962 5.24969 0.625004
651 1 3.2693 3.57245 5.93818
652 1 7.39265 3.13124 6.05421
653 1 1.06966 0.245332 3.80027
654 1 4.46304 1.82676 6.69182
655 1 0.237654 6.69133 8.89609
656 1 5.11419 7.43816 7.20567
657 1 4.78276 8.59557 5.82303
658 1 5.30777 2.25066 2.48383
659 1 8.63972 6.06919 7.8666
660 1 3.68907 0.0238977 7.28236
661 1 3.94733 8.55165 6.41629
662 1 8.25207 4.30503 7.7558
663 1 6.85576 0.806564 5.83541
664 1 7.53654 2.29287 7.61574
665 1 1.99705 0.583618 1.14388
666 1 6.82636 7.18229 1.88597
667 1 2.40669 8.21142 6.1001
668 1 3.44765 7.16034 4.82971
669 1 1.04538 7.13732 8.5434
670 1 7.52716 5.69801 0.18457
671 1 6.1284 3.53215 4.30326
672 1 1.0888 6.39698 7.23368
673 1 3.03957 0.266815 9.26754
674 1 6.83258 0.453316 0.124227
675 1 6.65845 2.83511 6.60153
676 1 3.10499 6.42438 4.45271
677 1 3.84887 6.80437 0.286286
678 1 3.47191 5.1161 4.99203
679 1 3.54086 2.56976 0.45886
680 1 0.9303 2.78317 6.41344
681 1 5.57378 3.95029 2.14401
682 1 1.50779 6.49723 2.51651
683 1 2.77228 4.71707 7.64469
684 1 3.21488 5.19529 8.12439
685 1 7.85648 3.80387 0.595972
686 1 3.0778 8.1863 6.6939
687 1 2.5048 4.86182 5.2895
688 1 1.49985 7.30794 4.46501
689 1 0.340752 6.88144 3.21907
690 1 3.96574 6.6165 4.08946
691 1 7.27417 3.84531 3.05278
692 1 8.73067 5.19522 5.9727
693 1 6.82492 3.9336 6.51713
694 1 4.0744 4.04253 6.12243
695 1 8.14494 5.59886 8.74218
696 1 5.10208 0.519267 2.93249
697 1 8.77429 3.03912 2.25237
698 1 8.07817 7.78691 3.59439
699 1 4.55995 4.45995 1.10247
700 1 8.79772 6.07431 1.88817
701 1 4.08122 4.10796 4.33084
702 1 3.90743 8.20293 5.21813
703 1 0.716201 4.07254 8.93924
704 1 6.99539 1.39755 2.44746
705 1 9.12607 2.72318 9.43784
706 1 0.714621 4.05672 5.6211
707 1 9.05004 4.35226 4.59591
708 1 9.11534 0.932828 8.5533
709 1 7.44731 4.84268 0.792233
710 1 4.11734 5.6544 8.91789
711 1 7.28362 0.314792 6.47075
712 1 6.86825 0.373972 1.05984
713 1 7.6971 0.297474 0.367751
714 1 8.7184 7.33155 4.03187
715 1 1.5065 7.20717 0.894542
716 1 8.30909 7.40996 6.78251
717 1 2.38143 8.66313 7.06917
718 1 1.51857 8.02683 1.32963
719 1 3.04381 7.09308 7.43242
720 1 5.40519 8.37782 8.47293
721 1 3.55317 6.08919 6.33106
722 1 4.95646 6.63907 3.83142
723 1 1.83506 1.34387 8.35886
724 1 7.01282 1.49588 0.654183
725 1 1.48531 4.23031 0.155564
726 1 8.95239 6.11887 6.1928
727 1 4.9729 8.52924 4.38106
728 1 8.68877 1.08874 5.8068
729 1 6.12499 9.19969 0.608643
730 1 6.12913 1.17619 7.32876
731 1 2.97447 2.82609 3.83052
732 1 3.28349 1.8618 5.60219
733 1 1.52133 0.387814 7.10946
734 1 7.80929 0.415364 8.87371
735 1 3.27687 8.59996 7.64426
736 1 5.0376 7.0138 2.69331
737 1 2.98762 7.64753 0.535358
738 1 1.72591 7.50502 6.31241
739 1 1.81356 4.26268 2.74311
740 1 3.24862 4.26786 6.817
741 1 0.0911938 1.87239 6.04591
742 1 5.1313 2.38998 6.23179
743 1 6.63273 2.20509 8.42503
744 1 0.0845586 6.49862 4.16028
745 1 4.18589 3.158 7.67832
746 1 6.89172 1.18528 1.51734
747 1 8.65426 6.68838 5.5392
748 1 0.34339 5.52071 6.54084
749 1 6.16177 1.71472 2.17913
750 1 5.3008 3.09367 1.99807
751 1 6.77167 6.19062 8.08917
752 1 3.73946 8.76687 0.370759
753 1 2.85497 7.09 6.4557
754 1 1.6642 2.24045 8.50554
755 1 6.00471 0.12598 3.28598
756 1 7.73712 1.48773 7.18634
757 1 1.9869 2.41664 3.3414
758 1 4.19835 1.14229 6.06813
759 1 4.38786 4.88767 6.58587
760 1 5.05862 8.94842 1.22668
761 1 6.89694 2.12322 -0.0646333
762 1 2.33843 9.09237 0.427925
763 1 8.50883 6.81775 0.757263
764 1 3.85906 5.06272 0.243593
765 1 2.20253 1.69399 1.73243
766 1 2.94857 5.32908 9.333
767 1 2.096 3.2502 2.39268
768 1 0.37996 1.10386 6.42442
769 1 3.99682 3.67012 8.5066
770 1 0.229664 0.211525 8.21366
771 1 4.1717 1.78165 7.68221
772 1 5.57854 0.429732 6.9604
773 1 2.76901 0.626158 8.11648
774 1 6.85779 5.1611 9.25822
775 1 0.626875 6.81552 5.2264
776 1 1.92538 9.26711 7.92544
777 1 7.21402 8.36107 2.82698
778 1 5.81949 4.36137 4.07683
779 1 8.32001 7.94173 1.89252
780 1 6.54488 6.28193 2.23107
781 1 1.4996 8.35033 6.03513
782 1 1.43683 5.4159 0.44376
783 1 0.352288 4.2276 3.74027
784 1 3.00523 1.11287 6.24281
785 1 8.47363 9.19965 4.4866
786 1 2.42739 6.15712 2.69702
787 1 3.01398 6.41733 0.91443
788 1 6.94767 2.27494 3.85818
789 1 7.52238 8.41904 7.15021
790 1 4.38488 8.25591 3.75777
791 1 8.18597 4.91963 7.03197
792 1 1.76184 6.14856 5.39852
793 1 6.09324 1.45606 6.01903
794 1 6.61255 8.08332 2.05289
795 1 4.89297 2.3016 7.45848
796 1 5.87593 3.72878 5.21353
797 1 4.30413 8.73313 7.51584
798 1 3.3142 0.817676 7.00309
799 1 8.60677 7.97103 7.9323
800 1 0.0858075 8.72116 7.31183
801 2 3.30361 2.38071 8.02371
802 2 3.11431 4.04078 7.99683
803 2 8.95155 4.65589 3.15673
804 2 3.93134 4.83631 8.11686
805 2 1.09138 6.22519 9.12006
806 2 1.85726 8.46811 3.2729
807 2 9.22622 1.55967 7.12647
808 2 0.772386 7.14399 6.89417
809 2 4.38739 0.868841 4.92657
810 2 6.8872 5.96702 4.41197
811 2 1.81259 5.50734 6.80841
812 2 6.70428 2.76119 0.622602
813 2 4.08465 4.89918 5.67383
814 2 7.16644 9.15601 3.19698
815 2 2.56799 2.05664 6.35315
816 2 0.817966 1.80147 5.0031
817 2 1.59155 1.86228 0.854249
818 2 6.6395 5.71552 0.59022
819 2 0.707436 7.72774 0.729785
820 2 0.784832 1.55136 0.831381
821 2 4.43288 9.31081 8.36185
822 2 2.58743 6.79896 0.273994
823 2 9.26294 7.73922 7.14751
824 2 7.02863 6.92274 0.8497
825 2 1.28447 2.94042 5.51495
826 2 2.87021 4.34948 4.66437
827 2 0.959353 7.30044 2.39596
828 2 9.03921 3.91424 2.26085
829 2 5.75015 2.76958 6.78166
830 2 0.753885 8.54737 1.05167
831 2 7.08026 6.68208 9.12152
832 2 8.68758 8.09215 2.86789
833 2 8.212 3.77514 8.91214
834 2 3.19383 1.53343 7.49129
835 2 4.69412 6.57565 1.98981
836 2 2.09111 4.56002 3.91487
837 2 3.13138 6.17116 9.28792
838 2 5.63135 8.13922 2.00028
839 2 9.19181 1.02008 0.88374
840 2 6.76629 0.0171294 8.6711
841 2 4.35163 6.96027 1.22693
842 2 9.02302 3.87473 5.45471
843 2 3.73318 5.21181 1.39389
844 2 7.66071 9.27948 4.13695
845 2 0.945427 9.03518 6.5961
846 2 7.2414 5.92864 5.41905
847 2 4.53549 2.55221 2.09722
848 2 4.4007 4.7693 8.94162
849 2 8.95835 3.46827 6.37296
850 2 1.91021 7.85838 3.88699
851 2 0.394958 3.01917 8.85816
852 2 4.89246 6.15953 3.02178
853 2 3.62614 1.74954 1.8252
854 2 6.67182 6.11564 3.15991
855 2 0.81709 8.10514 2.0392
856 2 3.65789 1.68524 6.47697
857 2 4.04978 1.94972 4.10224
858 2 0.652457 2.29854 7.37514
859 2 1.27707 7.20972 3.38741
860 2 5.58522 2.73561 0.746189
861 2 3.25997 7.7864 5.69937
862 2 4.05574 2.83397 3.82699
863 2 2.53778 2.99226 7.66706
864 2 7.40638 8.35042 3.84857
865 2 5.67769 2.93649 8.9508
866 2 3.79374 7.49753 3.90665
867 2 8.02855 7.3709 8.77296
868 2 2.84909 3.00233 1.40032
869 2 6.19372 6.42741 6.147
870 2 2.61808 8.65123 4.12835
871 2 1.82363 4.35415 4.78151
872 2 3.50793 6.22978 7.1871
873 2 2.5039 3.97904 5.45907
874 2 9.22743 3.7052 9.2023
875 2 7.49989 8.48578 2.01545
876 2 7.36466 7.61398 6.73985
877 2 3.29119 5.37222 5.8585
878 2 3.81117 8.81599 8.82528
879 2 5.26541 4.80382 8.48458
880 2 6.79187 3.61793 5.58382
881 2 3.75627 0.249703 6.35225
882 2 9.05111 0.355446 2.69583
883 2 1.29697 2.96791 2.83023
884 2 5.74758 4.04621 9.04225
885 2 6.04166 3.53371 6.20736
886 2 1.69878 0.0370062 3.28004
887 2 0.870654 0.715032 1.08487
888 2 3.18577 9.22029 8.27434
889 2 0.963102 9.05927 8.19536
890 2 0.250801 5.20482 3.79667
891 2 2.11124 9.03713 6.24148
892 2 8.51845 4.03577 1.154
893 2 3.07962 2.79544 5.35747
894 2 4.66589 0.237071 2.21583
895 2 5.98306 5.01414 0.0507766
896 2 1.2272 4.5837 4.07933
897 2 4.32046 2.36113 8.44463
898 2 0.139393 2.07519 0.407658
899 2 3.02187 4.4581 5.9885
900 2 1.61241 7.20869 7.56622
901 2 4.69264 0.605659 8.82469
902 2 5.61335 6.86804 4.67755
903 2 3.69373 5.71876 4.38514
904 2 2.12869 5.25781 1.04208
905 2 2.56782 8.07961 2.83747
906 2 2.11132 4.98922 0.0652974
907 2 3.93378 0.226366 9.13698
908 2 0.0834802 5.42611 2.07268
909 2 2.6349 5.7106 1.70698
910 2 0.919829 7.95199 3.04907
911 2 0.527417 1.85329 2.49757
912 2 5.18341 2.60093 3.65034
913 2 2.44936 7.80566 7.22742
914 2 7.26504 7.9345 0.814163
915 2 6.15389 2.72859 3.72931
916 2 1.57295 5.48494 1.77316
917 2 4.38853 2.14051 9.34774
918 2 7.47744 2.30058 6.71186
919 2 1.51109 8.65487 7.25843
920 2 8.36818 5.52038 2.7777
921 2 7.83416 6.75292 3.35042
922 2 6.03449 8.62233 7.46725
923 2 2.60027 4.69129 8.56844
924 2 5.15828 4.55906 0.234566
925 2 3.29483 7.41184 2.79789
926 2 5.97653 6.43196 1.20222
927 2 8.65206 5.3255 4.96856
928 2 0.986245 7.80487 7.58475
929 2 1.49384 1.20167 6.32249
930 2 5.39774 1.22588 1.20798
931 2 6.18033 7.89116 0.311528
932 2 8.80342 8.69029 6.26175
933 2 7.29537 5.25271 3.91518
934 2 3.66866 6.98845 2.07961
935 2 9.2973 5.5929 4.48593
936 2 0.0180213 5.034 0.554666
937 2 6.83747 7.03979 2.84267
938 2 8.8817 4.32043 6.83873
939 2 0.717432 0.271415 7.25134
940 2 9.32043 8.02758 4.53018
941 2 8.77639 9.11539 5.4196
942 2 2.15874 6.57784 3.48789
943 2 6.94686 0.230638 4.64918
944 2 5.77182 8.39951 3.8509
945 2 8.64719 7.01397 7.81552
946 2 6.07114 5.43369 8.36748
947 2 7.23284 2.31849 1.19429
948 2 6.30832 9.23581 2.40284
949 2 2.83866 4.84721 1.54273
950 2 7.61243 5.91596 3.08989
951 2 1.67425 4.19438 5.6886
952 2 7.92139 5.8522 1.92108
953 2 0.664561 9.12439 0.284115
954 2 8.62047 7.48745 9.35229
955 2 6.58108 4.10284 8.5128
956 2 2.86569 0.95294 5.35652
957 2 6.12647 7.9024 8.70408
958 2 1.12184 4.15144 1.03972
959 2 1.38584 0.737884 2.78823
960 2 4.54493 7.96612 0.965936
961 2 2.21143 3.08898 5.16268
962 2 3.70872 4.07257 2.69596
963 2 6.19724 2.37074 6.05335
964 2 7.39931 4.64692 4.58464
965 2 5.61991 0.00985548 4.29007
966 2 9.14504 1.87437 8.76825
967 2 6.49947 4.52582 4.61585
968 2 2.54595 7.81179 5.13155
969 2 1.99363 4.07379 7.94339
970 2 7.13688 5.55034 2.43559
971 2 0.54964 3.45365 1.28601
972 2 4.91961 5.75774 7.99115
973 2 7.64484 6.37959 4.17096
974 2 9.24569 2.01269 3.69929
975 2 4.50584 7.74001 8.84608
976 2 1.03895 5.38372 4.32163
977 2 8.7551 6.79254 3.36091
978 2 3.9236 6.90334 7.74575
979 2 1.34484 8.96196 2.25712
980 2 8.61442 3.42135 4.74464
981 2 4.63129 7.41074 3.45312
982 2 1.11092 3.92656 3.21386
983 2 5.71133 3.76133 8.12649
984 2 7.98707 1.05367 0.790238
985 2 0.72179 0.737751 4.49803
986 2 8.69857 3.87182 3.81688
987 2 7.72523 1.81467 3.56647
988 2 4.74882 6.66965 8.59422
989 2 7.54909 0.932733 3.23133
990 2 0.714385 5.89391 2.72592
991 2 8.17519 3.50917 5.72924
992 2 5.73974 8.04495 6.77776
993 2 6.1949 0.136162 7.66854
994 2 1.49138 1.86121 7.33241
995 2 5.79577 4.42139 2.86849
996 2 5.57583 7.20637 0.610256
997 2 3.6292 1.25745 3.61241
998 2 6.72566 2.8995 4.63562
999 2 4.50511 5.87218 1.36431