#bin. KALJ data file T=0.5

1000 atoms
2 atom types

0 9.4 xlo xhi
0 9.4 ylo yhi
0 9.4 zlo zhi

Masses

1 1.0
2 1.0

Atoms

1 1 1.66877 7.57799 7.49206
2 1 0.534492 5.82123 3.39333
3 1 0.0556634 4.88144 5.79884
4 1 3.50952 9.07377 4.15146
5 1 9.21929 7.82076 9.29445
6 1 1.40521 7.64306 6.66286
7 1 5.54916 3.48399 5.70134
8 1 8.51595 5.45387 3.418
9 1 2.54003 6.89515 5.43186
10 1 5.36523 5.89969 8.63006
11 1 0.0950612 8.33883 3.75058
12 1 0.46359 0.203577 4.18476
13 1 8.1505 6.17149 7.99709
14 1 6.29479 8.77064 8.53004
15 1 7.66507 3.0315 1.06718
16 1 7.27301 4.15033 6.07656
17 1 6.8154 1.96143 0.488456
18 1 0.358106 9.03985 9.39951
19 1 6.99922 8.122 0.53771
20 1 6.30166 4.23948 3.93786
21 1 7.4806 0.837888 8.69639
22 1 6.71744 6.04543 9.08204
23 1 6.59722 6.00087 3.14044
24 1 3.44856 6.70605 0.869683
25 1 1.09243 2.08808 9.29016
26 1 8.41491 8.57373 2.67431
27 1 6.50623 3.45277 0.132921
28 1 3.49404 4.51463 8.7579
29 1 2.77702 1.91943 0.864297
30 1 7.54338 6.60675 0.780466
31 1 1.87974 6.08881 7.45277
32 1 6.57476 5.62336 6.27981
33 1 7.31849 0.323637 6.67628
34 1 4.51059 4.02291 2.32598
35 1 1.28298 5.29972 8.30451
36 1 8.92082 6.82189 8.04446
37 1 0.73687 7.86523 4.15815
38 1 3.79285 7.35111 3.99815
39 1 8.10778 4.63875 6.21333
40 1 2.28934 0.902431 0.313765
41 1 3.65736 5.96613 0.133842
42 1 6.69735 1.52258 5.57539
43 1 3.0248 8.33224 1.2108
44 1 5.191 8.48891 2.7682
45 1 0.163906 4.92405 7.60086
46 1 8.43439 6.05919 4.5824
47 1 6.57865 8.75425 5.3375
48 1 5.00626 6.2404 6.91134
49 1 7.68799 3.44362 8.91795
50 1 0.932217 1.00112 9.28589
51 1 2.36083 6.13366 2.13746
52 1 0.961903 5.8614 5.32223
53 1 1.05484 2.46013 8.41174
54 1 1.60554 4.13052 3.88759
55 1 3.29421 4.12343 5.29549
56 1 6.32559 6.90741 3.04151
57 1 2.83436 4.22431 2.35556
58 1 5.82406 6.75666 1.11992
59 1 0.172301 7.05419 1.63912
60 1 6.05813 7.05197 9.08541
61 1 9.08444 9.12163 4.19879
62 1 6.60719 6.20144 0.582846
63 1 7.79894 2.32312 2.07991
64 1 8.94197 0.104192 2.23856
65 1 4.40505 9.34439 6.74337
66 1 5.91172 7.34725 1.84923
67 1 5.40097 4.44715 3.62503
68 1 2.11608 7.77572 8.3166
69 1 0.696489 7.12622 7.89972
70 1 7.63672 8.46126 9.28888
71 1 3.9531 6.07829 3.77558
72 1 0.669264 0.930868 7.46812
73 1 2.81841 2.98788 3.23446
74 1 1.81771 0.506449 2.18696
75 1 2.11374 4.59972 2.62061
76 1 2.81064 7.50931 0.910622
77 1 5.99534 6.44936 3.89423
78 1 3.88916 3.51814 4.77227
79 1 5.06417 0.297664 2.30078
80 1 6.2335 3.52785 4.66177
81 1 3.08284 8.62023 8.87857
82 1 4.87246 7.09481 6.951
83 1 3.27875 6.9576 4.82476
84 1 5.38396 5.18437 1.04315
85 1 3.01851 7.68406 8.59053
86 1 5.90771 1.43694 8.34354
87 1 6.85173 1.289 1.34893
88 1 6.73885 6.98489 7.8947
89 1 1.20202 0.230784 1.71052
90 1 0.976389 6.78961 7.16764
91 1 4.87089 8.15745 5.49788
92 1 7.50489 1.69928 8.48521
93 1 4.87384 1.16557 1.8311
94 1 7.64958 2.77662 7.18079
95 1 0.817952 4.45951 2.1234
96 1 5.69994 7.76066 2.93202
97 1 8.79024 6.14081 7.41488
98 1 5.15392 1.45916 5.91709
99 1 0.694775 0.725461 8.46437
100 1 5.52571 0.837713 1.15194
101 1 3.40467 2.39913 2.20161
102 1 7.25544 4.95172 0.681081
103 1 1.68992 3.0747 3.52044
104 1 7.37412 0.694289 5.67347
105 1 3.02842 3.78176 9.17828
106 1 6.12702 4.82922 1.5944
107 1 1.44181 3.66187 6.67509
108 1 1.30973 3.16236 5.19729
109 1 6.54586 0.718149 7.12065
110 1 3.72188 2.57086 7.88556
111 1 2.89263 5.26036 0.425923
112 1 2.72008 2.14398 2.92227
113 1 5.39457 4.25503 2.4384
114 1 3.48621 3.73727 2.86673
115 1 2.48619 6.03487 5.59173
116 1 0.472188 2.58669 0.300071
117 1 2.45754 2.28039 7.11717
118 1 5.46622 5.18327 2.7584
119 1 3.76966 2.20674 3.33922
120 1 7.19991 5.20653 8.19158
121 1 3.68763 5.91671 4.60455
122 1 6.77925 4.94444 5.64554
123 1 4.18367 5.13491 8.99154
124 1 0.340142 0.473772 5.06271
125 1 1.43042 8.53852 7.52066
126 1 6.41671 2.13603 6.43683
127 1 2.78632 6.77336 8.30249
128 1 1.54596 9.22976 0.8906
129 1 4.38351 5.67723 1.91341
130 1 3.39895 9.09847 1.73347
131 1 0.222791 4.94962 3.77044
132 1 6.11712 6.27116 2.18217
133 1 4.5677 3.0521 5.93164
134 1 5.42452 8.25451 4.26402
135 1 7.12473 0.969899 4.87554
136 1 0.366998 7.45923 3.26135
137 1 2.80601 3.03613 2.22675
138 1 8.58775 6.17181 2.26195
139 1 1.27371 7.71096 0.992519
140 1 1.72476 6.32612 5.58695
141 1 6.68824 3.56771 2.22497
142 1 6.63076 0.178939 8.02811
143 1 4.82495 7.62711 2.17763
144 1 7.10094 6.69206 3.97896
145 1 2.35691 8.20812 6.73019
146 1 0.569983 2.78315 7.06849
147 1 9.34552 2.33357 3.15789
148 1 2.33638 8.3588 4.18428
149 1 0.0367032 6.49666 0.772197
150 1 2.46126 0.707459 4.03924
151 1 6.17333 4.22461 7.60309
152 1 8.17379 8.8101 0.709457
153 1 8.79953 4.50026 3.83905
154 1 6.90526 8.94893 0.0451374
155 1 4.52999 4.84157 0.723757
156 1 5.14296 4.2055 1.17187
157 1 2.03545 8.67086 8.64126
158 1 2.0006 7.1449 2.40002
159 1 7.31322 5.30205 9.21375
160 1 1.7595 1.64808 0.728097
161 1 7.5192 8.75594 4.4717
162 1 3.37308 0.503007 3.59798
163 1 3.70555 5.40431 0.905899
164 1 4.56512 1.30231 8.8184
165 1 7.9068 6.41103 3.77222
166 1 1.77584 5.90869 4.27164
167 1 8.46446 6.092 8.91401
168 1 3.9965 1.21246 1.96874
169 1 8.48402 1.62758 2.5193
170 1 6.83923 7.30633 6.81308
171 1 1.79676 2.97516 1.69985
172 1 9.37501 8.61171 2.18627
173 1 6.93413 0.0399718 4.68138
174 1 5.13606 7.06975 8.46327
175 1 4.90371 4.5992 9.14203
176 1 5.79818 5.12776 9.39035
177 1 6.35326 5.3737 0.635821
178 1 2.6115 3.0796 6.7241
179 1 3.37716 3.82039 1.64501
180 1 0.613293 8.28208 7.81224
181 1 7.90559 5.33725 2.37405
182 1 2.09867 1.4336 2.16129
183 1 8.83026 4.22359 5.38248
184 1 4.69834 0.605814 0.753463
185 1 9.39838 1.75171 4.40778
186 1 1.5676 7.5587 5.51165
187 1 6.53406 6.11375 4.81613
188 1 0.775096 3.48307 3.81468
189 1 4.46347 7.81557 7.61412
190 1 3.94841 0.28527 4.92623
191 1 1.90408 8.31599 0.612407
192 1 3.37183 8.15991 7.62441
193 1 8.24121 4.55067 3.07059
194 1 8.41064 8.27763 1.79179
195 1 5.33826 6.83113 2.75784
196 1 3.36013 5.26082 3.91965
197 1 2.86525 1.20206 9.12699
198 1 0.917755 3.61619 1.20518
199 1 7.56933 1.9373 4.73014
200 1 8.91142 4.1418 0.302008
201 1 2.65561 2.25464 6.1562
202 1 2.42263 8.0385 2.34256
203 1 1.96513 9.33018 7.76473
204 1 0.532634 3.44946 0.450026
205 1 6.38526 9.17743 7.26537
206 1 0.656754 3.60656 7.18026
207 1 1.94718 3.32988 0.774411
208 1 1.04677 4.27151 8.39146
209 1 3.86455 0.100433 0.988724
210 1 1.74491 5.46657 5.62038
211 1 2.10219 1.4877 7.3392
212 1 7.57307 6.30092 9.23384
213 1 8.35974 2.56035 5.39975
214 1 6.57545 3.312 5.50289
215 1 2.05632 0.675238 5.97752
216 1 1.33049 1.99369 2.87724
217 1 6.87002 2.90541 6.55747
218 1 6.84494 7.65998 9.00052
219 1 8.69998 7.86965 3.46523
220 1 8.08159 7.80015 1.09727
221 1 6.25449 6.14429 8.27888
222 1 7.16916 6.21394 8.08052
223 1 4.01527 8.28821 2.94565
224 1 3.87849 2.93389 6.43862
225 1 1.24186 0.244322 0.1857
226 1 2.36016 6.89674 7.44458
227 1 2.61232 7.74916 7.45298
228 1 1.10732 7.23876 8.93353
229 1 8.8432 4.57648 7.08553
230 1 5.39881 8.87088 1.92823
231 1 7.4488 3.62118 6.84745
232 1 4.76922 1.70572 5.01968
233 1 8.56882 9.2901 6.64528
234 1 6.64767 8.34937 6.13881
235 1 7.07603 2.83792 0.465708
236 1 8.66878 1.07639 4.29288
237 1 7.58032 5.75819 0.516808
238 1 8.91456 4.685 1.56038
239 1 0.917072 6.80136 4.33095
240 1 1.50696 6.89431 8.08517
241 1 6.13059 7.3511 4.45133
242 1 6.29625 1.25422 0.61532
243 1 2.06153 4.66632 0.542621
244 1 1.60777 2.83818 6.77372
245 1 0.744342 7.7819 7.16949
246 1 2.08628 5.90888 0.301301
247 1 2.24578 7.59802 3.23572
248 1 1.62557 8.4457 4.8197
249 1 3.07258 5.73121 7.83379
250 1 8.91185 8.89001 1.3975
251 1 7.79572 4.35902 5.46203
252 1 1.40552 6.37699 2.17215
253 1 8.0442 0.525325 7.93896
254 1 8.61133 8.32497 7.18033
255 1 8.19781 2.52105 8.50997
256 1 4.01587 0.792324 0.103999
257 1 2.3183 4.47839 5.14928
258 1 1.72069 4.52437 7.24308
259 1 1.31712 3.37209 8.46936
260 1 6.50028 3.78193 6.858
261 1 5.56529 9.21723 8.69213
262 1 5.1293 0.535458 6.25938
263 1 4.32939 5.94383 7.26202
264 1 1.78578 6.76065 0.994002
265 1 9.02806 6.24947 6.61836
266 1 8.65532 2.96144 0.695969
267 1 1.72753 0.74014 7.91892
268 1 5.33558 8.56113 0.699575
269 1 2.74876 6.21372 4.74369
270 1 8.90978 3.83273 1.09078
271 1 5.26749 8.02397 6.95701
272 1 9.28582 6.24068 4.79215
273 1 7.29554 7.0563 5.34153
274 1 5.06133 1.90928 8.48312
275 1 6.0367 3.92424 1.55252
276 1 3.5696 8.98142 6.22632
277 1 7.79966 5.30309 4.05359
278 1 8.35031 3.43 4.93818
279 1 0.0844387 6.95702 6.8136
280 1 3.56017 0.80099 8.6001
281 1 6.02724 5.04856 4.16076
282 1 7.27799 2.07027 3.70973
283 1 4.70105 8.42707 3.73482
284 1 5.27397 5.51277 1.89805
285 1 2.65939 4.56849 9.13539
286 1 4.2824 3.64486 7.67401
287 1 1.43738 4.28127 1.31447
288 1 7.53997 7.16883 1.42789
289 1 1.50794 5.04999 2.0017
290 1 8.14033 7.65726 2.71377
291 1 2.97915 6.48907 6.27573
292 1 0.680754 3.70893 8.99335
293 1 2.57101 8.58424 7.87627
294 1 1.70621 4.52133 6.08423
295 1 4.96615 1.49444 7.57071
296 1 2.65968 9.24079 3.83806
297 1 6.71436 2.16251 8.35127
298 1 8.42688 2.92418 1.58277
299 1 0.389111 8.36475 8.78778
300 1 9.08885 1.09092 1.75197
301 1 4.55666 1.6652 3.77841
302 1 2.91693 2.0988 9.36745
303 1 0.123404 7.92695 6.51506
304 1 8.45313 3.62735 2.14779
305 1 2.4126 2.80056 4.233
306 1 1.02162 6.9158 1.66078
307 1 5.83712 5.43327 5.29789
308 1 1.15894 2.01997 6.47269
309 1 1.27091 1.61703 7.90211
310 1 4.07326 6.84488 0.172482
311 1 6.20313 1.87835 1.47024
312 1 9.07737 8.39087 8.04464
313 1 1.55367 8.32903 6.06244
314 1 6.08919 9.12022 0.449787
315 1 7.00862 7.56604 4.02999
316 1 0.959548 4.60215 4.1649
317 1 9.24825 7.57502 7.36346
318 1 2.86897 9.05022 6.94072
319 1 4.22386 7.45346 8.79731
320 1 6.9008 7.87804 2.68709
321 1 6.16499 4.79512 6.66573
322 1 8.52698 9.11879 7.71025
323 1 3.7978 8.28832 3.83497
324 1 8.28802 2.25329 6.39657
325 1 6.91602 4.55788 8.62151
326 1 7.57731 6.75338 7.13787
327 1 1.0881 4.81169 2.87684
328 1 7.08092 5.07528 4.71817
329 1 1.59295 7.41047 4.15613
330 1 5.06143 6.48129 7.73557
331 1 4.48172 4.26236 4.9266
332 1 2.5461 5.60588 3.92372
333 1 5.53779 0.869532 0.0245787
334 1 1.51443 2.69612 4.50064
335 1 9.25348 8.90966 3.00453
336 1 3.61076 3.43565 0.726719
337 1 4.04405 7.44772 5.31394
338 1 0.914293 6.66684 6.19672
339 1 7.15672 4.50061 3.94563
340 1 9.2197 2.43572 5.0301
341 1 2.01701 9.04512 6.52931
342 1 4.0476 6.13446 1.25849
343 1 0.679745 5.22074 0.177641
344 1 2.48303 8.95818 2.38658
345 1 7.88372 4.57235 8.31175
346 1 4.2854 4.79421 3.85531
347 1 4.51398 0.0218995 4.28427
348 1 5.57436 0.109881 4.31272
349 1 5.95297 5.78489 1.36517
350 1 8.15007 0.831907 0.0478586
351 1 5.22752 0.642295 8.373
352 1 9.11258 5.53736 4.24002
353 1 5.60726 7.45259 7.67489
354 1 5.1651 1.79378 1.08055
355 1 5.63521 1.23456 4.2475
356 1 9.01066 1.36749 8.30209
357 1 6.25829 2.43598 0.0427543
358 1 4.95022 9.21452 3.18303
359 1 7.60739 5.74316 7.18355
360 1 7.4784 7.62819 7.74274
361 1 0.0482805 6.09152 5.82451
362 1 1.09568 7.95672 0.0392516
363 1 0.155093 4.99718 2.76005
364 1 4.94965 6.12837 0.920805
365 1 3.25386 8.87467 0.360109
366 1 4.92473 3.24061 9.33902
367 1 0.628645 2.96689 1.76565
368 1 6.12965 0.147429 5.21173
369 1 3.73058 6.50203 5.42517
370 1 7.63029 5.35791 5.33275
371 1 7.42604 4.53505 2.52693
372 1 7.12806 9.00372 1.92255
373 1 8.04785 0.745649 2.50593
374 1 4.24309 0.39579 1.81348
375 1 2.87146 3.62552 4.6353
376 1 9.36645 5.44402 5.17018
377 1 2.14493 9.31364 1.54835
378 1 2.47772 8.10438 9.34619
379 1 1.40873 2.2333 1.70361
380 1 3.61157 9.0959 8.2925
381 1 6.73341 5.93359 7.26082
382 1 6.44069 8.21799 3.44351
383 1 7.52843 0.391634 3.44997
384 1 8.87675 3.17796 8.30851
385 1 7.38862 2.72937 8.06878
386 1 7.76409 6.03081 1.59934
387 1 7.11886 8.19844 6.95649
388 1 3.57926 2.07749 5.95738
389 1 7.34767 2.47982 8.94007
390 1 1.87892 9.38076 4.32171
391 1 9.03342 3.98741 4.50725
392 1 9.20619 8.03009 5.61522
393 1 2.20259 2.66794 0.0510514
394 1 8.59035 5.7148 0.400808
395 1 7.92372 0.0762972 4.89588
396 1 4.1389 2.39059 5.31848
397 1 3.11526 5.2291 5.12649
398 1 3.24464 1.56837 1.5113
399 1 2.74734 0.321243 7.61528
400 1 1.21664 2.70745 0.879059
401 1 3.45913 3.47373 3.90685
402 1 2.46124 2.20675 1.83552
403 1 2.78319 0.396529 2.96248
404 1 8.44058 3.95695 8.80436
405 1 5.31774 2.47162 5.65791
406 1 9.26544 6.01312 2.85366
407 1 6.94303 4.17046 5.14189
408 1 1.52827 3.99452 3.0023
409 1 2.15346 3.63089 2.28027
410 1 4.26801 3.93869 9.15452
411 1 9.29303 8.51651 0.654479
412 1 2.15318 1.49398 6.36872
413 1 1.70669 3.33982 7.60048
414 1 7.42577 5.9477 4.63085
415 1 4.50718 3.58928 0.592792
416 1 2.24205 5.26608 7.42885
417 1 8.49217 5.46727 6.74416
418 1 7.98147 3.55122 3.85786
419 1 6.19888 8.36242 2.22252
420 1 5.19348 2.75888 6.66584
421 1 2.49231 3.00528 7.73354
422 1 0.135767 2.78272 1.05458
423 1 5.34194 3.94462 4.54119
424 1 3.83946 3.87101 5.85857
425 1 0.845245 6.68958 3.32894
426 1 2.7726 8.75371 6.0007
427 1 6.78294 7.85473 1.47784
428 1 1.93596 4.11851 8.13506
429 1 4.11245 1.14498 8.08987
430 1 8.81923 9.22703 0.0107452
431 1 0.247816 1.60599 6.20263
432 1 4.07303 5.77509 5.9268
433 1 0.0832261 3.89544 8.35609
434 1 2.06159 6.7275 4.67422
435 1 7.4956 0.0116465 1.05116
436 1 2.04286 2.11577 3.83961
437 1 7.46755 3.43917 5.48872
438 1 4.56287 2.8451 2.47875
439 1 1.12423 6.03434 0.773365
440 1 4.91144 8.78031 6.26851
441 1 4.56893 7.96394 0.449336
442 1 3.21636 0.488664 4.47082
443 1 0.818484 0.678763 5.93016
444 1 3.43815 4.74199 2.98899
445 1 4.73409 7.66828 3.14037
446 1 7.34722 9.34281 8.60995
447 1 9.36483 3.11419 4.40763
448 1 5.03658 3.74742 3.26582
449 1 5.96245 8.38581 9.23301
450 1 4.77719 5.93393 2.66647
451 1 8.79614 0.075891 5.02243
452 1 8.55774 5.62391 5.73238
453 1 0.656275 1.68883 1.8823
454 1 7.51208 8.87223 6.61215
455 1 8.20468 9.12042 8.53583
456 1 3.20237 1.72565 8.30734
457 1 1.39785 3.0278 2.7179
458 1 2.62779 5.39163 2.46002
459 1 9.07411 0.873558 2.79671
460 1 0.502745 0.653259 0.600089
461 1 8.0709 8.13831 6.13185
462 1 1.32339 7.54518 2.9846
463 1 4.55129 9.10329 5.39243
464 1 5.26536 3.78171 7.38668
465 1 5.43548 8.88782 5.07957
466 1 7.14554 2.32218 2.80442
467 1 6.25208 4.46972 2.53625
468 1 0.467631 3.30236 6.13519
469 1 3.25411 8.85851 3.28747
470 1 0.216007 5.208 1.86113
471 1 6.29707 5.43585 2.34073
472 1 0.164601 3.57489 5.28314
473 1 4.74206 5.35469 6.68164
474 1 8.49493 7.35814 1.91536
475 1 5.46413 2.38055 2.33864
476 1 8.78147 6.94367 4.98595
477 1 1.79951 6.79541 3.41387
478 1 6.3804 5.09803 3.25611
479 1 7.80473 2.72197 3.44534
480 1 2.7021 1.30411 3.25585
481 1 8.01751 6.85688 4.61851
482 1 0.733985 1.63409 8.65384
483 1 6.07745 1.77973 7.52191
484 1 7.14024 0.494097 2.01209
485 1 3.16822 7.84887 3.24823
486 1 7.06066 5.91816 5.62331
487 1 7.5807 8.06972 2.11197
488 1 6.03873 0.98741 6.24434
489 1 0.567688 4.66357 1.18449
490 1 7.41039 0.727828 7.43769
491 1 8.75035 1.54491 6.08192
492 1 6.25325 0.981276 2.0138
493 1 3.02885 5.76245 1.28448
494 1 3.17344 8.21562 5.37375
495 1 4.8986 5.50676 0.15477
496 1 7.13756 1.56341 2.15528
497 1 3.66147 7.92799 0.013289
498 1 8.77563 5.22996 2.46984
499 1 5.41901 5.86424 6.15785
500 1 3.8413 6.58697 6.5786
501 1 0.321215 0.525999 6.74892
502 1 9.1931 7.7418 4.49201
503 1 4.60491 4.83319 5.69485
504 1 7.2423 0.81267 0.521107
505 1 7.26994 3.64906 4.50498
506 1 1.38685 1.13996 6.79013
507 1 5.69903 7.87357 5.16578
508 1 4.71003 7.66342 6.27722
509 1 6.374 2.34124 5.24157
510 1 9.39177 0.448681 8.02671
511 1 1.15239 0.217502 2.87598
512 1 8.89946 2.44212 7.68349
513 1 7.36906 8.25788 3.40056
514 1 2.18081 3.36331 8.66239
515 1 6.39286 0.171709 3.66375
516 1 5.521 4.7405 7.34983
517 1 9.2074 2.87653 6.78213
518 1 5.56257 6.38834 0.202729
519 1 5.78597 5.63706 6.91575
520 1 0.664195 7.7399 4.96585
521 1 6.73078 6.99155 0.27929
522 1 6.03656 7.96708 0.830297
523 1 4.26617 2.26514 1.84748
524 1 4.01749 5.15984 4.82153
525 1 4.94874 0.17209 9.21787
526 1 5.30967 1.74973 3.35746
527 1 1.13878 1.06108 2.71793
528 1 6.32516 2.59869 0.984548
529 1 0.824053 4.08423 5.71647
530 1 7.5061 5.11011 3.22086
531 1 4.80902 5.47178 3.43674
532 1 1.7398 6.18729 6.48546
533 1 1.58553 0.165988 8.54681
534 1 8.06797 0.950867 6.13854
535 1 0.908551 4.66526 6.55034
536 1 5.53604 3.43865 8.71257
537 1 0.207391 6.17375 1.61701
538 1 9.24366 3.76744 3.62597
539 1 3.75128 1.191 4.92488
540 1 4.16 4.07761 1.20348
541 1 2.60544 6.49581 9.20635
542 1 4.43037 2.90635 7.08855
543 1 8.47239 2.04619 4.58183
544 1 4.60723 3.21897 1.39627
545 1 0.0463234 4.04937 6.40341
546 1 9.13726 1.09452 7.28628
547 1 7.8554 3.92705 1.12741
548 1 3.90842 9.06719 9.09883
549 1 7.08168 2.64638 5.66782
550 1 7.77914 7.82074 8.71675
551 1 8.39973 1.57827 8.85723
552 1 0.539934 8.94708 6.65971
553 1 6.91577 1.05733 6.3872
554 1 5.67414 9.33242 5.91274
555 1 4.41234 0.244094 7.64457
556 1 7.99794 5.06922 1.19984
557 1 8.09554 3.52795 7.81752
558 1 9.05012 1.61156 3.54131
559 1 9.34248 5.91357 9.1112
560 1 0.870323 8.63522 5.44045
561 1 4.62259 6.63244 3.75122
562 1 5.52039 2.52883 0.56098
563 1 3.57132 0.0651561 2.64031
564 1 9.30408 2.57493 5.99143
565 1 9.34948 0.265987 3.49102
566 1 8.69189 6.45203 1.21869
567 1 0.42811 0.91222 2.28387
568 1 0.0507815 8.53288 4.93563
569 1 0.562682 5.7323 4.43597
570 1 9.07376 7.66848 2.66103
571 1 1.99672 5.85024 1.3909
572 1 3.94661 7.43314 6.82102
573 1 5.26477 0.62855 3.61218
574 1 3.08048 2.80136 8.83166
575 1 3.47772 5.32044 1.8552
576 1 6.76141 1.18524 8.08752
577 1 7.97875 2.27369 0.189477
578 1 1.33751 3.72259 2.03793
579 1 4.52777 6.84909 5.99002
580 1 6.2825 2.87666 1.85702
581 1 7.39027 5.18694 6.2391
582 1 6.21121 7.9675 6.83392
583 1 0.790972 8.19343 2.71621
584 1 7.01118 9.00896 3.66892
585 1 4.55599 2.17043 6.13065
586 1 3.07145 0.588512 5.57673
587 1 0.493898 7.3081 0.54019
588 1 6.24553 4.12756 5.72765
589 1 0.485622 1.02074 4.3381
590 1 8.91278 1.92824 6.97392
591 1 3.15984 0.291638 9.38284
592 1 6.78432 4.02359 3.14386
593 1 1.59157 5.34522 6.56015
594 1 7.71481 2.09301 5.68225
595 1 7.48208 8.48562 1.28358
596 1 6.59639 1.65192 8.99609
597 1 7.63064 1.15834 4.05758
598 1 3.57992 2.99501 5.55565
599 1 8.69045 4.92972 9.08609
600 1 8.82753 2.53664 9.35261
601 1 3.1929 8.1034 6.46125
602 1 7.08936 8.49253 8.36594
603 1 8.27504 0.745942 6.98225
604 1 2.5393 8.73939 4.97087
605 1 5.30046 0.187346 7.04752
606 1 5.38474 4.87173 6.26266
607 1 9.3971 1.33819 0.686427
608 1 8.17401 3.60474 0.294338
609 1 5.99478 0.782978 2.88121
610 1 0.0385568 5.45796 6.7951
611 1 2.29309 5.38716 4.93939
612 1 5.69995 8.15803 5.97952
613 1 8.31651 0.175702 5.81472
614 1 0.361104 5.12259 8.50721
615 1 3.23504 4.36677 7.41426
616 1 5.33796 1.74455 0.148205
617 1 7.93786 4.50653 7.1126
618 1 9.23407 6.89013 9.04434
619 1 7.25093 3.73414 7.63045
620 1 3.38036 8.49127 2.43063
621 1 6.11528 7.25852 5.81834
622 1 3.62763 6.88091 3.34163
623 1 8.98359 1.37999 5.11481
624 1 1.4141 5.68527 3.02337
625 1 2.45065 7.85831 5.90437
626 1 2.96417 2.98052 0.435095
627 1 5.91537 5.20234 8.5569
628 1 8.32697 0.293829 3.92651
629 1 0.367113 6.46139 8.28902
630 1 3.4365 9.05924 5.11753
631 1 9.30043 6.39692 3.73184
632 1 4.30119 4.9609 7.44183
633 1 6.57161 0.869752 4.13105
634 1 2.72722 0.528171 1.89712
635 1 7.39219 9.18292 5.75885
636 1 5.07852 8.22792 8.3762
637 1 1.99398 1.89766 9.06477
638 1 3.00728 4.65003 1.21247
639 1 0.587238 4.13277 3.14726
640 1 5.62308 2.91757 4.89826
641 1 4.75807 3.16796 4.99907
642 1 5.94321 7.72378 8.52052
643 1 6.05151 6.26377 5.75463
644 1 7.70753 2.86722 4.42929
645 1 4.24794 6.78495 2.66395
646 1 3.20037 5.93309 3.09702
647 1 8.17482 1.42759 7.82076
648 1 9.12948 3.80838 7.49892
649 1 6.56545 8.30447 4.41365
650 1 0.305113 2.09769 8.04595
651 1 4.25961 3.25492 3.30524
652 1 6.49027 8.74916 1.37864
653 1 5.46926 5.62375 7.80574
654 1 6.76811 3.55171 1.03893
655 1 8.80554 4.46159 8.14242
656 1 4.16969 4.2023 3.17138
657 1 6.64567 2.88428 4.29254
658 1 9.01854 7.54008 0.978129
659 1 4.30359 3.7008 6.67944
660 1 2.33308 1.04962 5.07066
661 1 5.81545 8.88339 6.67778
662 1 4.2408 8.59495 4.5988
663 1 5.42577 8.93152 7.75956
664 1 9.13832 2.56877 2.06625
665 1 3.74097 2.60278 1.27388
666 1 5.60808 3.36159 0.810977
667 1 7.22806 3.8872 0.438849
668 1 6.1975 2.74606 2.70859
669 1 5.0694 7.38602 9.32268
670 1 3.27635 0.963744 0.747002
671 1 5.89249 3.19584 3.65801
672 1 7.32279 7.19646 3.03417
673 1 5.05924 3.14024 4.08842
674 1 8.4559 7.59814 7.74362
675 1 1.41159 1.19783 1.62427
676 1 3.70795 1.65996 9.36631
677 1 7.43459 8.27962 5.16801
678 1 4.23065 1.66437 0.679591
679 1 2.32846 1.09988 1.28193
680 1 8.4501 7.32401 8.98022
681 1 5.43484 3.43736 2.0717
682 1 1.93961 1.92692 4.84646
683 1 1.36217 5.06047 0.911738
684 1 3.57689 0.59424 7.32113
685 1 8.65642 5.21504 7.69851
686 1 2.19944 4.97023 1.50224
687 1 5.00165 6.62633 1.97774
688 1 3.47413 7.1816 7.81134
689 1 0.717542 5.95553 7.56022
690 1 8.54208 6.58095 5.93454
691 1 8.18699 1.05542 5.22281
692 1 3.59497 4.45434 4.53446
693 1 2.88452 6.80352 2.7533
694 1 4.22403 6.6717 8.20277
695 1 3.13592 7.98096 4.55017
696 1 4.34928 8.88617 2.36862
697 1 8.10532 8.79379 3.64494
698 1 5.43641 2.56653 1.42596
699 1 1.05104 4.24187 0.404926
700 1 4.37247 2.05275 7.99332
701 1 4.55322 1.752 2.65504
702 1 3.8838 7.52614 1.01277
703 1 8.56238 8.66653 5.43037
704 1 4.71721 8.10893 1.31888
705 1 3.06378 5.50658 8.92945
706 1 2.41626 8.47476 3.21035
707 1 2.44471 3.61558 3.70872
708 1 0.29043 4.45248 9.07701
709 1 4.79158 4.40915 6.86616
710 1 3.82112 8.21752 1.71846
711 1 9.113 6.84918 2.42946
712 1 7.04111 3.06225 3.38548
713 1 0.828625 1.83484 0.819717
714 1 7.10999 5.89467 2.26979
715 1 3.42455 3.25095 7.20536
716 1 2.54569 4.96581 6.08621
717 1 4.59066 4.62082 1.72811
718 1 7.65991 9.25998 2.62427
719 1 1.34748 0.766324 0.897742
720 1 4.56376 9.06573 0.529769
721 1 4.25927 4.52336 8.22801
722 1 1.15868 0.70844 4.97912
723 1 2.39345 4.99098 8.25239
724 1 5.57453 1.04628 6.99873
725 1 7.06841 4.72511 7.05902
726 1 2.69688 9.35925 8.37902
727 1 6.81684 6.38389 1.45686
728 1 8.23124 1.92513 3.60015
729 1 7.92743 6.19181 5.35709
730 1 3.87574 2.27181 8.74644
731 1 3.81641 1.17739 3.97605
732 1 2.75747 6.12597 7.01895
733 1 5.18878 2.82873 3.07192
734 1 1.38579 6.71192 0.104526
735 1 8.10038 9.38713 1.85276
736 1 3.84143 5.34632 8.14687
737 1 6.90577 0.914604 2.71638
738 1 8.77277 1.87066 1.68545
739 1 8.72334 7.61544 6.47621
740 1 8.32791 3.70526 3.0787
741 1 4.3065 1.16724 5.58624
742 1 3.88565 3.3051 2.11964
743 1 1.91732 2.62066 8.3618
744 1 3.70565 2.55054 0.266157
745 1 3.09665 6.43803 3.92155
746 1 9.15628 3.49771 9.22009
747 1 0.0543323 1.69865 2.48467
748 1 0.512299 1.50618 5.12178
749 1 6.50116 1.50392 3.42658
750 1 0.82041 6.10743 9.33196
751 1 2.46666 4.92569 3.34028
752 1 6.12269 4.42105 0.781807
753 1 2.06663 2.41584 1.0313
754 1 1.70264 2.2852 5.83858
755 1 8.50741 2.72128 2.76062
756 1 2.86438 1.36763 6.76248
757 1 6.6302 2.4722 7.31212
758 1 5.86202 9.20863 2.72945
759 1 0.571617 6.73289 5.31411
760 1 2.32366 7.65692 4.94773
761 1 5.55981 1.82183 6.63277
762 1 2.17673 6.02328 3.04195
763 1 8.01802 2.14661 1.13005
764 1 4.53783 0.941538 4.51704
765 1 7.90018 7.04269 6.28071
766 1 2.69858 3.90712 0.521184
767 1 7.85392 2.98694 6.16148
768 1 0.417532 9.33081 2.44454
769 1 2.28132 2.79599 5.21744
770 1 8.78868 4.93069 4.74512
771 1 0.640351 2.33414 3.67975
772 1 7.00863 6.82327 8.72433
773 1 4.18155 6.83149 4.5337
774 1 0.139301 8.03363 1.47824
775 1 1.00927 8.93772 4.43464
776 1 2.72807 1.70602 5.46363
777 1 3.72837 4.50554 2.16298
778 1 3.61485 6.37745 8.64443
779 1 7.42755 9.28275 7.62576
780 1 1.47461 8.52762 3.23989
781 1 2.91169 1.36869 2.38597
782 1 7.00235 6.52127 6.32171
783 1 8.19826 4.48843 2.00932
784 1 4.55021 9.28499 8.46863
785 1 1.3601 1.48084 5.63399
786 1 0.261068 4.67912 4.77071
787 1 6.31229 5.10519 7.67398
788 1 8.37513 1.37773 0.857167
789 1 5.87311 2.36951 4.16091
790 1 5.55828 6.3325 4.9662
791 1 4.18443 0.291053 5.87844
792 1 0.0818231 0.659121 9.09299
793 1 8.65521 6.99597 3.97098
794 1 5.56415 4.12261 0.229589
795 1 5.02023 2.21739 4.34785
796 1 0.958472 1.82442 4.29099
797 1 4.07476 9.17046 3.44538
798 1 6.71461 4.49216 0.126188
799 1 4.88684 5.64515 5.28382
800 1 8.8225 5.61043 1.39318
801 2 8.59975 8.33994 8.7789
802 2 3.07749 4.28074 3.63682
803 2 7.97005 1.56133 6.97209
804 2 6.43775 8.16338 7.74908
805 2 3.39237 6.47104 1.87352
806 2 2.14495 1.80272 8.20687
807 2 0.833251 9.06876 8.37822
808 2 6.66467 3.06168 8.69863
809 2 8.665 0.562234 8.61946
810 2 6.91662 5.60297 3.90743
811 2 4.65344 4.95615 2.63413
812 2 1.71218 5.03722 9.08842
813 2 4.1119 8.39989 6.91574
814 2 2.02055 3.66515 4.63498
815 2 6.94175 4.30984 1.51404
816 2 5.25038 0.560869 5.08675
817 2 1.6636 1.09571 8.93863
818 2 0.605497 0.913985 1.42779
819 2 4.79722 8.52558 9.21955
820 2 0.517444 9.35238 1.15267
821 2 6.92929 8.73473 2.78161
822 2 0.50857 7.27875 2.407
823 2 5.49473 5.76177 3.99906
824 2 7.7877 7.68587 6.78614
825 2 3.45494 7.24178 5.95417
826 2 2.12678 7.23544 0.322882
827 2 0.945309 4.98923 5.53561
828 2 7.05527 1.69518 7.45938
829 2 1.65925 5.09344 3.80857
830 2 5.55165 8.14808 1.53883
831 2 3.78286 1.14498 2.95658
832 2 2.5804 6.61233 1.41343
833 2 2.62036 3.26581 1.33486
834 2 1.41259 1.39228 3.53594
835 2 7.68999 7.42867 0.218667
836 2 5.24796 7.16459 5.58454
837 2 5.96351 2.81329 6.23327
838 2 3.47857 5.24357 7.22154
839 2 1.48997 8.95246 2.39726
840 2 5.32831 9.38844 1.085
841 2 3.67164 4.93145 5.68055
842 2 0.772694 8.45266 0.885699
843 2 0.167822 2.53414 8.80037
844 2 9.12314 0.481978 0.973145
845 2 5.66711 6.05854 3.01049
846 2 9.38795 6.99301 5.93591
847 2 2.18751 8.23324 1.46129
848 2 4.20734 2.03715 7.0482
849 2 4.77048 4.0038 5.85238
850 2 8.4795 8.43747 4.55299
851 2 1.22929 0.465344 3.89731
852 2 3.58567 1.1766 6.25454
853 2 3.3038 7.52429 2.22746
854 2 5.87691 3.05022 7.04237
855 2 0.0623147 3.92818 2.0376
856 2 0.80007 3.89736 4.6101
857 2 1.89187 0.676165 3.177
858 2 5.69954 6.72718 6.4706
859 2 3.95303 4.70886 6.615
860 2 1.61438 2.33477 7.48568
861 2 0.460649 1.25291 3.32128
862 2 9.25382 3.18258 2.84595
863 2 1.03842 5.11722 7.41764
864 2 1.26614 8.0575 8.50555
865 2 1.87164 3.58377 5.81883
866 2 1.83187 9.26762 3.50168
867 2 8.44341 0.957567 3.371
868 2 4.23808 2.66939 4.00883
869 2 0.775581 5.79738 6.55694
870 2 7.12167 2.19679 1.33961
871 2 0.469857 3.03793 7.89712
872 2 4.62057 7.59122 4.29515
873 2 4.74973 3.20825 8.41544
874 2 4.71872 7.1118 0.733376
875 2 1.98394 7.07664 6.12995
876 2 1.69028 9.21767 5.42009
877 2 8.00464 4.32901 4.45254
878 2 4.54136 2.70878 0.600285
879 2 5.86888 0.438347 7.85047
880 2 8.39416 3.72909 6.7805
881 2 2.8706 1.62438 4.39607
882 2 4.83213 6.01084 4.4817
883 2 7.75764 9.37833 0.0404978
884 2 0.571008 2.49939 2.52205
885 2 5.25552 2.54245 7.61776
886 2 0.935009 8.535 1.82057
887 2 0.632048 2.59938 4.59138
888 2 8.15337 4.72917 0.4365
889 2 3.89572 3.1375 8.99175
890 2 6.08628 4.51039 4.87931
891 2 4.80028 5.42298 8.18832
892 2 0.808889 7.56407 5.99034
893 2 7.60308 4.37742 9.1764
894 2 8.51633 0.104003 3.03049
895 2 0.554668 1.89862 7.21989
896 2 5.62992 3.97083 6.53646
897 2 0.943729 5.52909 1.46788
898 2 5.74676 1.49049 5.19535
899 2 8.75939 2.59266 3.86857
900 2 3.93699 8.26272 8.42365
901 2 7.69633 3.25374 2.74089
902 2 8.26498 0.309231 0.792332
903 2 9.01658 4.23854 2.86533
904 2 1.36986 8.74934 9.21763
905 2 0.0794472 1.73092 9.24303
906 2 2.24476 9.29331 9.23003
907 2 4.44293 0.957215 6.75622
908 2 5.23461 4.617 8.32342
909 2 0.162411 5.55992 0.799736
910 2 3.66786 4.57181 0.363246
911 2 2.81102 7.2984 6.61557
912 2 6.72101 0.491521 8.99025
913 2 7.9628 5.39673 8.59856
914 2 3.31615 3.48828 8.19444
915 2 5.60234 2.49487 8.90503
916 2 9.045 0.762765 5.81666
917 2 3.20929 7.15249 0.0281121
918 2 2.42315 0.841279 8.39038
919 2 9.12118 4.91486 0.543633
920 2 3.49079 2.82642 4.46173
921 2 1.41643 3.15046 9.38909
922 2 0.645562 5.73459 2.35696
923 2 6.25389 1.88773 2.56981
924 2 7.90347 6.98687 8.28609
925 2 5.21016 7.09048 4.6083
926 2 1.72808 6.18334 8.57854
927 2 7.7322 6.86011 2.24973
928 2 3.30367 2.2179 6.93344
929 2 5.83666 6.53874 7.33016
930 2 2.62603 4.01041 5.9674
931 2 6.76939 7.07406 2.14985
932 2 4.14633 8.81272 7.67159
933 2 6.59229 0.470076 1.02904
934 2 7.52167 3.78001 2.02481
935 2 7.02485 5.22818 1.51024
936 2 8.59848 3.46386 5.85418
937 2 0.711993 3.48855 2.62142
938 2 4.39047 6.02518 8.84839
939 2 8.96286 8.58287 6.30219
940 2 8.9672 2.06414 0.745113
941 2 3.87372 5.89015 2.61827
942 2 4.42651 8.90899 1.46791
943 2 7.86402 7.39151 3.75005
944 2 5.78784 8.83668 3.54945
945 2 7.49103 1.51652 0.0195801
946 2 2.9812 0.43124 6.46653
947 2 8.06698 8.36628 7.91093
948 2 8.55341 6.75445 0.40459
949 2 2.28356 4.07826 6.76149
950 2 4.83812 4.94391 4.56706
951 2 3.36282 4.07609 6.50937
952 2 6.5541 0.160972 6.26583
953 2 4.03236 7.00374 1.68152
954 2 6.65534 7.71769 5.18535
955 2 7.38038 2.17875 6.51355
956 2 0.672136 2.23284 5.54265
957 2 5.43253 4.43739 5.3852
958 2 2.7485 3.1885 5.84951
959 2 7.70813 5.96105 2.96948
960 2 9.27083 9.20971 8.64727
961 2 1.26393 0.128583 7.22794
962 2 1.74486 4.04534 9.12422
963 2 0.67005 8.92078 3.38197
964 2 6.09857 2.79478 7.93462
965 2 3.88844 8.45239 0.841001
966 2 4.62733 2.43418 9.13859
967 2 8.4401 6.87026 3.09874
968 2 5.89408 3.70106 2.94417
969 2 8.5263 8.10425 0.403002
970 2 4.42116 3.84147 4.01884
971 2 2.75185 0.0408326 0.829725
972 2 1.40592 5.26502 4.72897
973 2 8.49461 6.96474 7.09525
974 2 3.48877 6.42045 7.40736
975 2 2.45109 4.74496 4.2785
976 2 7.91872 6.09227 6.38617
977 2 6.46516 2.37193 3.50194
978 2 0.180026 9.11993 7.52251
979 2 4.51919 0.65393 3.0189
980 2 1.51046 4.22213 5.13994
981 2 1.33092 7.69509 2.07426
982 2 2.68054 7.27749 4.07428
983 2 0.178696 7.59745 8.41282
984 2 3.36981 1.99854 4.98638
985 2 6.01169 0.127378 1.85852
986 2 5.4882 7.19075 3.76859
987 2 0.150157 9.33852 5.92464
988 2 9.21242 5.73651 8.08044
989 2 8.26229 7.50017 5.33719
990 2 1.64171 1.22273 4.32951
991 2 6.63245 1.75247 4.58865
992 2 7.62495 1.48892 2.9318
993 2 2.14489 0.522709 6.97731
994 2 7.85939 7.7568 4.54616
995 2 6.05451 4.21008 8.8131
996 2 5.4155 1.3557 2.53645
997 2 3.37032 1.49499 7.47829
998 2 3.97704 8.15631 5.85309