#bin. KALJ data file T=0.5

1000 atoms
2 atom types

0 9.4 xlo xhi
0 9.4 ylo yhi
0 9.4 zlo zhi

Masses

1 1.0
2 1.0

Atoms

1 1 2.37895 7.2539 7.66887
2 1 6.46159 9.01508 3.11739
3 1 5.35405 4.68661 4.4557
4 1 1.86376 6.78024 7.042
5 1 1.50847 7.24238 0.839054
6 1 0.593208 8.4278 1.17902
7 1 6.60201 3.68963 1.2073
8 1 7.13125 9.33935 0.588297
9 1 4.6316 4.76867 0.70124
10 1 7.87075 4.60541 0.577191
11 1 9.01084 7.42457 3.26371
12 1 6.71364 5.12979 7.12084
13 1 8.76564 2.97599 3.69488
14 1 9.36652 3.78807 0.850385
15 1 6.13308 4.35274 9.35937
16 1 8.12871 4.88008 8.73765
17 1 5.71116 7.11023 7.79854
18 1 2.06472 7.1521 1.70825
19 1 5.6696 1.16354 4.51268
20 1 5.80794 3.42637 7.31414
21 1 6.80425 1.45548 2.82258
22 1 1.05839 3.46448 7.31671
23 1 4.3822 6.28816 8.66003
24 1 8.9093 3.35127 8.74661
25 1 1.49998 5.15242 2.65814
26 1 6.01323 8.81992 5.0169
27 1 7.36693 7.04867 2.83568
28 1 3.21904 5.61701 5.30976
29 1 7.74717 7.43182 7.51737
30 1 1.49339 0.343301 2.89345
31 1 2.80033 6.26468 7.63208
32 1 8.20942 0.679141 2.19855
33 1 5.92131 6.55525 4.26636
34 1 3.74203 7.03673 1.71786
35 1 8.21456 7.77219 8.48421
36 1 4.46891 0.341113 6.24294
37 1 7.43176 3.18083 4.32372
38 1 2.15701 9.01004 -0.0131699
39 1 3.11942 8.60856 3.88055
40 1 8.28949 6.87352 3.10295
41 1 3.50212 6.96082 4.43936
42 1 4.86699 5.27238 2.62671
43 1 0.984546 3.30603 6.0458
44 1 0.612968 7.00325 1.18626
45 1 0.0475182 7.7349 1.69529
46 1 3.88277 1.92924 2.99498
47 1 2.1242 3.04887 2.02178
48 1 4.43407 2.78516 1.83799
49 1 6.8316 6.54457 3.46475
50 1 1.87136 4.61821 1.90637
51 1 1.39746 9.17982 5.82671
52 1 6.23901 7.21579 8.82096
53 1 1.35545 6.43808 3.94731
54 1 5.4639 7.82082 1.9379
55 1 0.557783 2.60517 6.93805
56 1 7.93549 1.64964 8.42356
57 1 7.39777 3.87733 1.62209
58 1 5.35974 4.79856 2.01072
59 1 6.89906 3.62916 7.96283
60 1 9.37781 1.37256 7.53691
61 1 3.03984 2.13396 4.42028
62 1 7.52292 1.48291 9.2577
63 1 5.0466 2.70681 7.87958
64 1 4.24059 0.856811 6.97981
65 1 2.9557 7.51065 1.95204
66 1 1.89214 8.47104 5.27512
67 1 6.35244 8.17981 8.54477
68 1 3.95805 5.10827 7.84518
69 1 8.13424 8.01082 6.43132
70 1 1.86549 6.10822 4.89339
71 1 2.26316 2.12646 6.7447
72 1 8.24024 5.27759 3.4009
73 1 2.11456 7.53329 5.35276
74 1 3.52707 3.83234 2.40179
75 1 6.73637 4.31095 3.32989
76 1 9.12739 2.73939 1.083
77 1 5.52662 6.52413 8.64176
78 1 8.20763 2.60757 7.22316
79 1 4.53899 1.45589 4.58297
80 1 8.99845 5.42048 5.68897
81 1 3.13319 2.70951 2.50628
82 1 7.60899 3.8471 4.81638
83 1 2.46653 4.49289 3.58916
84 1 2.32098 0.759161 6.77724
85 1 0.066295 9.02374 8.68622
86 1 8.5742 6.83763 2.10865
87 1 7.16339 4.04078 0.599346
88 1 4.58723 2.10089 7.47735
89 1 2.07777 1.98876 5.75611
90 1 2.02045 5.3295 8.26568
91 1 3.70378 8.87958 3.42343
92 1 2.94895 2.3573 5.44807
93 1 2.77589 4.01118 8.57555
94 1 1.02264 4.77498 1.87023
95 1 2.59586 3.46887 3.17784
96 1 8.76184 1.25425 2.95715
97 1 4.98764 6.98417 7.06043
98 1 6.10891 7.06035 1.87684
99 1 6.91252 0.13605 5.52049
100 1 8.03886 0.176668 6.71143
101 1 1.92817 8.10255 4.38539
102 1 3.27371 5.86649 1.02966
103 1 3.06528 3.41591 4.99556
104 1 4.87998 2.26661 8.74572
105 1 2.67599 8.24895 2.40986
106 1 2.8139 1.00606 4.04138
107 1 4.03791 5.3258 2.81501
108 1 3.86128 8.1061 6.17559
109 1 2.90615 4.15984 0.109997
110 1 8.90743 0.894884 6.44842
111 1 4.33335 8.6246 2.2432
112 1 2.98114 5.83221 8.51085
113 1 8.12817 4.83119 1.55299
114 1 1.27169 2.9592 8.1822
115 1 6.04972 0.74715 1.13825
116 1 5.3265 5.2642 7.6411
117 1 4.06382 3.77613 1.70523
118 1 8.44514 2.43172 0.584908
119 1 2.91893 7.32613 1.08859
120 1 7.66125 9.08785 8.35818
121 1 9.22418 5.41535 3.43477
122 1 0.677055 4.82314 2.80838
123 1 7.08437 3.91187 2.54876
124 1 5.82146 0.585775 8.27808
125 1 9.39316 6.85322 5.22336
126 1 7.53353 5.15538 6.71661
127 1 2.424 9.07264 4.50916
128 1 5.99698 2.00489 1.15046
129 1 8.03686 7.43127 1.59061
130 1 5.37195 9.06208 2.18998
131 1 1.40211 6.85566 7.80911
132 1 1.81182 5.06042 4.89884
133 1 2.97382 1.93115 8.68462
134 1 8.37349 4.60201 4.67213
135 1 1.99752 0.894608 0.491477
136 1 0.710976 6.6037 4.7028
137 1 4.32332 0.871791 5.44207
138 1 9.01004 2.54973 6.10457
139 1 5.1466 6.33981 7.72204
140 1 8.35495 8.52499 4.24548
141 1 7.31141 0.103005 2.49832
142 1 0.515539 6.24997 7.27285
143 1 0.565588 8.00666 3.65844
144 1 5.22854 6.70116 3.70613
145 1 0.441666 4.45028 6.13462
146 1 5.91474 6.18038 1.67245
147 1 0.936623 2.12079 8.32367
148 1 1.43167 5.67394 5.64535
149 1 7.79364 6.06882 3.57277
150 1 2.22469 6.87627 4.01065
151 1 5.56037 7.74291 8.69842
152 1 4.93184 6.00441 1.9165
153 1 7.04193 2.23556 8.37961
154 1 3.20151 7.79548 8.56079
155 1 0.00930999 8.43279 4.63829
156 1 0.847649 2.29725 5.12752
157 1 5.27982 3.74102 6.59394
158 1 8.34066 6.7877 7.533
159 1 6.70944 1.40494 8.01495
160 1 8.64184 0.743657 1.20555
161 1 2.81879 0.501972 2.46186
162 1 7.74235 5.60065 5.20969
163 1 4.55678 2.19074 2.57472
164 1 8.79302 5.38716 1.80828
165 1 8.52203 7.29972 4.94746
166 1 9.3374 1.9701 1.63286
167 1 8.18956 5.46024 4.2355
168 1 6.31307 2.77452 7.61332
169 1 3.95666 2.82155 1.0458
170 1 1.52718 3.10392 4.49857
171 1 5.6461 0.146966 6.58266
172 1 5.37008 8.65699 8.85053
173 1 3.35921 0.848771 6.84845
174 1 6.68093 2.74655 1.2018
175 1 5.23387 9.14359 5.24408
176 1 0.370932 5.3653 6.26797
177 1 2.20328 4.96856 9.17387
178 1 7.89313 4.05498 6.20012
179 1 3.65793 4.81689 5.56674
180 1 6.44178 1.96729 5.08411
181 1 1.26098 0.0377688 1.39553
182 1 5.56029 1.03483 6.62317
183 1 6.81886 0.414468 8.01806
184 1 6.62178 0.507036 2.96068
185 1 5.41878 8.32629 0.486672
186 1 5.87087 1.64861 2.10682
187 1 0.430392 3.14855 4.90369
188 1 2.30206 9.25511 8.43415
189 1 5.24454 1.3473 5.64057
190 1 3.87695 5.08119 0.3224
191 1 4.16221 0.627545 4.52959
192 1 1.03653 6.0893 8.09786
193 1 1.56197 6.06701 7.39476
194 1 1.71572 8.64739 7.96841
195 1 3.62664 5.96985 7.56285
196 1 5.6638 1.47957 3.46837
197 1 4.46926 6.64863 6.31757
198 1 0.17494 6.05114 0.756139
199 1 0.0104557 1.71724 5.12581
200 1 4.54864 0.199014 2.01924
201 1 0.0413846 8.37035 2.66143
202 1 3.81794 2.91698 5.36068
203 1 7.37452 4.71988 2.24737
204 1 2.11766 1.58779 4.4931
205 1 2.57863 6.78115 4.8769
206 1 8.75005 3.1983 4.85288
207 1 6.68772 0.724438 6.97196
208 1 1.45272 1.2061 7.95414
209 1 4.58345 2.72623 3.29065
210 1 1.19659 4.46327 4.39248
211 1 4.82699 8.08778 4.50816
212 1 5.27974 1.91474 4.92217
213 1 0.876913 0.827169 0.54363
214 1 3.401 0.327033 3.41174
215 1 5.2042 8.41667 8.01585
216 1 5.75702 4.96578 6.85726
217 1 3.31622 1.89842 7.82172
218 1 6.99954 5.28456 8.29471
219 1 4.58883 2.32498 4.42444
220 1 4.47443 8.07428 8.53403
221 1 7.44471 2.17672 7.4732
222 1 9.29003 6.2292 1.90015
223 1 2.76652 4.24052 7.40014
224 1 9.01754 8.61233 1.8391
225 1 0.267267 5.25662 0.153795
226 1 1.00781 1.11482 2.99593
227 1 8.07769 1.20926 4.76976
228 1 7.26188 2.34948 5.68822
229 1 6.86319 6.18076 5.8763
230 1 1.84737 3.19819 6.84857
231 1 0.484649 0.185773 9.38025
232 1 6.90988 5.40362 4.84848
233 1 4.74139 9.40101 1.16645
234 1 5.46142 8.24666 5.54295
235 1 5.20591 5.36515 8.57511
236 1 9.09431 4.83892 6.84559
237 1 7.07314 2.40873 2.90801
238 1 4.79938 7.73371 9.26914
239 1 4.01308 2.2578 3.78609
240 1 7.4322 0.536227 4.87903
241 1 8.06727 2.22457 6.43828
242 1 7.61833 4.59252 5.32757
243 1 7.48471 9.04863 4.48949
244 1 3.85378 1.58012 6.1204
245 1 4.70888 1.28689 2.81428
246 1 5.21134 7.55131 1.10991
247 1 0.0773115 3.29282 6.08751
248 1 2.73411 7.71749 4.04416
249 1 8.35066 8.65427 9.37364
250 1 0.671419 0.260168 8.49885
251 1 7.2627 9.24434 7.27394
252 1 9.25093 8.86479 0.821482
253 1 4.19404 0.35035 0.460038
254 1 9.18652 3.64417 2.42192
255 1 7.65706 1.95154 0.710652
256 1 1.16951 5.91791 2.40928
257 1 3.24328 0.680689 5.02859
258 1 3.94538 9.40266 2.7292
259 1 7.13382 1.4303 4.63966
260 1 8.4802 3.62298 0.453582
261 1 0.471507 2.80404 8.58139
262 1 2.40757 3.09633 8.69158
263 1 8.97159 9.33062 -0.00849713
264 1 0.595605 8.84348 3.21519
265 1 4.04566 3.26363 7.53782
266 1 7.34092 0.0517347 3.67821
267 1 8.42019 6.59453 4.40674
268 1 5.82625 6.73646 5.17075
269 1 7.9773 0.501109 8.01907
270 1 1.89522 1.5651 7.27013
271 1 0.608082 3.11358 1.03027
272 1 3.6161 1.44665 4.36484
273 1 6.77239 9.17837 6.38063
274 1 1.19537 1.04324 6.88676
275 1 9.32958 7.47404 0.57659
276 1 9.01382 6.64375 0.267819
277 1 8.82159 5.0426 0.7871
278 1 9.32224 0.72542 8.78318
279 1 7.52748 5.1558 7.53434
280 1 4.43805 7.24269 4.22832
281 1 4.55089 6.78739 0.990952
282 1 0.742269 8.23904 7.57254
283 1 9.29579 1.51347 8.43683
284 1 7.53197 1.10959 7.55766
285 1 6.64164 2.95344 4.79151
286 1 1.68528 2.87033 5.47403
287 1 5.79728 6.56276 7.09419
288 1 4.26676 7.38766 6.78031
289 1 0.876653 0.0881555 6.64712
290 1 1.95898 7.30885 9.25182
291 1 0.0556899 1.98686 9.21351
292 1 2.12485 2.43253 4.84551
293 1 3.09194 8.80252 8.46397
294 1 3.90105 5.63282 3.71236
295 1 4.657 0.680953 8.81766
296 1 5.98054 1.95695 4.2702
297 1 1.39507 7.41015 3.58606
298 1 8.52504 1.97916 9.17797
299 1 3.01784 4.26699 5.10266
300 1 6.30352 4.152 8.26514
301 1 5.30719 3.54632 8.17299
302 1 1.31345 0.014619 0.428848
303 1 7.77168 3.12595 5.34084
304 1 0.759884 3.75826 4.1292
305 1 3.47457 1.88131 0.28675
306 1 0.209851 3.8137 8.22117
307 1 4.06327 6.71903 3.61724
308 1 4.27851 5.65416 5.3764
309 1 2.30603 2.83462 1.18998
310 1 9.2081 1.41892 0.987412
311 1 6.21321 0.138004 0.204212
312 1 8.28585 3.81023 5.39249
313 1 2.66512 0.251921 0.772375
314 1 0.369852 2.54153 2.43098
315 1 1.84903 8.54424 6.35471
316 1 1.77698 7.55321 6.18608
317 1 2.54688 4.89822 6.88672
318 1 6.99936 7.88386 1.04335
319 1 6.29318 7.89983 3.99699
320 1 4.15711 1.32205 0.683538
321 1 3.4302 1.37092 2.11445
322 1 -0.00282221 3.81488 3.3847
323 1 4.77622 3.13147 6.88873
324 1 9.26469 7.98778 7.59874
325 1 1.50531 4.70991 8.65048
326 1 1.27748 0.236829 4.91689
327 1 0.53599 4.54908 8.73444
328 1 5.18024 2.77043 6.148
329 1 4.83663 0.201852 2.89052
330 1 2.74172 8.26709 5.1612
331 1 2.90484 5.31661 7.70208
332 1 6.33256 8.0351 2.22643
333 1 3.47305 3.90747 5.8958
334 1 6.63276 7.62115 6.31804
335 1 0.392814 3.43443 9.23416
336 1 4.61019 1.54153 9.15115
337 1 7.92815 2.40375 2.70778
338 1 8.47698 1.19754 0.215135
339 1 3.49142 8.76325 5.29352
340 1 3.83099 5.21677 1.22065
341 1 6.17836 8.69872 6.87812
342 1 4.77088 3.85673 7.50159
343 1 0.808397 2.51938 0.045707
344 1 3.05425 8.0572 3.11884
345 1 0.340758 4.84251 3.9619
346 1 2.82614 4.05353 6.4931
347 1 0.0826009 8.25043 5.96942
348 1 9.00007 2.61929 2.66617
349 1 2.39592 6.62104 2.70684
350 1 2.72295 3.14692 6.85477
351 1 5.95742 1.20734 7.56438
352 1 8.48266 6.52962 5.86716
353 1 3.9997 1.06636 3.50331
354 1 1.34253 4.5221 5.62705
355 1 3.32901 0.42836 1.7515
356 1 1.18982 4.65555 3.51829
357 1 3.0075 2.70011 9.28213
358 1 0.137838 5.48272 8.35369
359 1 1.77459 0.968388 5.29558
360 1 7.1419 1.84354 3.80687
361 1 4.17674 7.70544 7.73054
362 1 5.60575 3.91908 2.40814
363 1 3.22933 2.48442 6.38551
364 1 8.93989 6.69983 1.20995
365 1 0.711253 6.7018 1.99941
366 1 0.98226 5.5937 4.63365
367 1 4.50067 7.36055 3.07699
368 1 4.49667 8.52695 3.54239
369 1 0.738834 2.364 1.55526
370 1 7.09451 0.038239 9.10895
371 1 5.96851 6.57625 0.0445791
372 1 1.36961 2.24079 6.44282
373 1 7.90592 4.38686 3.00613
374 1 8.96173 6.16828 7.91538
375 1 0.982221 4.92453 7.02888
376 1 7.93893 3.34414 2.28718
377 1 6.91596 3.80805 9.10186
378 1 9.07297 4.54007 1.42456
379 1 1.30585 3.52248 0.381974
380 1 2.26521 7.94765 0.783309
381 1 7.01997 8.6279 5.28463
382 1 7.37434 4.13558 7.14957
383 1 0.787211 0.814298 7.71123
384 1 2.17449 6.57408 6.00556
385 1 3.57016 8.16374 7.26132
386 1 2.88701 6.60167 1.58134
387 1 4.65428 6.01838 6.98938
388 1 5.08117 3.90494 5.01779
389 1 4.56287 6.44565 2.54447
390 1 1.38618 8.34427 2.89477
391 1 4.25665 3.41409 4.37037
392 1 4.36682 2.47209 0.0917051
393 1 4.0185 6.26526 4.63601
394 1 3.68292 7.02913 9.13115
395 1 8.1196 8.45646 2.02385
396 1 8.88362 7.71334 4.20655
397 1 4.24544 1.28677 7.75464
398 1 5.25142 8.5203 6.52284
399 1 1.34701 8.14382 0.431856
400 1 1.47521 3.3038 1.18461
401 1 2.4221 5.47637 2.90089
402 1 2.37457 3.14269 4.42658
403 1 5.04122 5.6353 1.04478
404 1 5.83125 3.34469 0.842538
405 1 4.80514 6.234 5.59831
406 1 1.46342 0.12532 7.88918
407 1 0.0567062 5.83155 2.66824
408 1 4.2405 2.5688 8.20768
409 1 3.1163 9.11319 2.0955
410 1 0.888022 8.26647 2.05747
411 1 5.94765 2.02492 6.08002
412 1 0.543332 5.66232 1.77523
413 1 1.76801 5.96365 3.29891
414 1 2.80429 8.31314 6.12826
415 1 6.32738 2.12775 3.38963
416 1 3.83367 7.9825 4.62631
417 1 9.0214 4.51003 8.55279
418 1 4.99808 7.85737 7.4053
419 1 0.864177 6.96939 6.80265
420 1 5.05802 3.51658 1.70754
421 1 6.63081 6.06083 7.05255
422 1 0.543717 7.07173 5.89383
423 1 5.75522 2.76952 8.81242
424 1 4.87078 2.89884 5.25299
425 1 5.22023 0.490087 5.73516
426 1 0.976303 3.97846 2.89048
427 1 7.52773 8.66387 6.45826
428 1 4.567 7.5567 2.15941
429 1 7.582 7.24135 4.8555
430 1 2.68775 0.737411 5.73757
431 1 5.14861 9.40113 8.27914
432 1 0.923792 8.02543 6.52404
433 1 7.19985 1.67245 6.41434
434 1 4.59336 2.03269 1.14047
435 1 1.09287 3.87002 8.83704
436 1 8.26145 9.11749 3.28977
437 1 1.82646 5.12696 7.39743
438 1 7.06146 8.54917 0.198207
439 1 4.41668 8.61682 0.631072
440 1 2.00657 8.04799 1.75728
441 1 4.59206 2.07461 5.47382
442 1 3.35442 0.743994 0.653568
443 1 7.67664 8.45554 1.16138
444 1 0.303593 2.06244 0.615327
445 1 1.70178 5.05961 6.32188
446 1 3.96017 7.79009 3.55079
447 1 1.04959 7.30254 8.52922
448 1 3.54083 4.54612 6.577
449 1 7.0712 7.83028 3.20339
450 1 6.09357 6.06864 3.31797
451 1 5.76725 4.19701 1.25513
452 1 3.13726 3.47139 7.87305
453 1 2.84779 6.92688 8.61528
454 1 8.94506 3.09548 6.83478
455 1 0.381212 3.01479 7.78649
456 1 8.50685 2.27296 1.84636
457 1 5.21093 5.45397 5.19373
458 1 8.958 9.08767 5.28468
459 1 1.33051 2.67805 2.39745
460 1 8.44991 8.44114 2.73795
461 1 2.24977 0.256292 1.57668
462 1 0.591428 7.03853 3.62868
463 1 5.16546 2.90823 2.50229
464 1 3.18858 6.3098 3.1544
465 1 5.54325 2.09631 2.75219
466 1 9.05775 1.65591 5.91244
467 1 1.95835 4.00288 9.276
468 1 5.19596 7.93397 3.61089
469 1 8.1757 2.40282 4.12823
470 1 1.62329 2.35174 1.35959
471 1 1.74695 3.85075 3.88489
472 1 8.56652 6.77322 6.64281
473 1 2.01582 6.49211 0.492099
474 1 1.53985 7.1193 4.59015
475 1 4.35598 0.101698 3.60771
476 1 2.77971 2.12682 1.73666
477 1 7.12296 5.2026 5.92357
478 1 2.43156 0.289464 7.67388
479 1 7.9121 7.71338 2.54697
480 1 5.66376 3.53645 9.33483
481 1 2.52906 0.172003 3.78724
482 1 2.12868 4.52033 7.9622
483 1 0.0521397 1.17567 0.203112
484 1 5.03786 8.23345 2.72945
485 1 4.38642 7.19083 5.22807
486 1 7.38348 6.28759 0.532112
487 1 2.13095 7.53288 2.49873
488 1 8.79526 7.67571 2.29388
489 1 7.9386 1.21399 6.67941
490 1 6.17361 3.96087 6.52119
491 1 5.56596 7.36573 4.26791
492 1 0.375043 4.31956 0.311679
493 1 5.54213 2.50578 3.61387
494 1 6.32446 2.48315 2.17077
495 1 8.11196 3.78615 3.99231
496 1 2.75132 8.7686 6.87162
497 1 6.01833 7.12883 3.49044
498 1 3.0062 7.72631 0.196973
499 1 3.79902 5.57522 8.66034
500 1 7.95608 0.528433 3.07641
501 1 3.76911 2.19494 1.9356
502 1 7.01326 8.65201 1.77349
503 1 9.1162 5.54571 4.60449
504 1 7.36583 6.36228 9.01168
505 1 2.42836 1.01588 8.56368
506 1 7.51191 6.53285 5.40389
507 1 2.68665 7.26936 6.2941
508 1 1.73572 1.6432 3.02382
509 1 4.86535 4.10335 3.9947
510 1 1.80035 6.27469 1.88903
511 1 6.20719 7.85689 5.01128
512 1 6.9161 5.76698 3.95088
513 1 1.22361 6.22366 1.16244
514 1 9.3959 6.22234 6.43642
515 1 3.38593 3.58195 7.06131
516 1 6.04638 8.15896 1.22467
517 1 0.370801 0.804414 4.25764
518 1 5.68213 3.69133 5.63658
519 1 7.83452 7.99475 0.272402
520 1 4.12814 7.93273 1.5439
521 1 5.44036 7.09064 2.74456
522 1 5.07363 4.51159 6.13867
523 1 1.87025 1.31775 1.34082
524 1 4.40005 8.43582 6.96809
525 1 6.4178 5.11463 3.24875
526 1 2.6712 1.10265 1.67781
527 1 3.38734 5.60154 1.92213
528 1 7.51673 0.833342 8.67398
529 1 0.106955 0.685658 2.53806
530 1 2.84826 8.98599 3.02089
531 1 6.06407 1.10126 0.257562
532 1 2.31358 4.74194 5.62744
533 1 1.2653 4.7753 0.315443
534 1 9.26836 6.85991 4.26736
535 1 4.63423 3.51531 5.8743
536 1 2.90736 5.1727 6.11438
537 1 7.65739 4.6435 3.88428
538 1 6.32909 2.15341 9.04752
539 1 3.52233 5.98602 9.30204
540 1 9.0424 2.4705 8.46435
541 1 5.99324 2.52974 0.415472
542 1 1.75076 0.776948 4.28856
543 1 9.11295 0.921993 4.94601
544 1 2.86925 2.6559 3.70628
545 1 0.854497 7.48903 0.111136
546 1 3.07029 4.79633 1.57487
547 1 2.24379 2.07791 9.3951
548 1 8.07976 4.93543 5.92592
549 1 5.08829 6.84879 1.79737
550 1 5.04941 6.50857 4.69433
551 1 2.76705 6.53455 6.81542
552 1 1.98473 1.94457 2.08663
553 1 6.39325 3.31518 8.59214
554 1 6.17664 5.85838 8.64578
555 1 2.63549 4.8799 0.619229
556 1 5.16358 2.11619 0.406515
557 1 6.87751 4.44889 6.33389
558 1 3.94532 3.8098 3.51517
559 1 2.06873 2.13044 3.76268
560 1 2.91756 8.68384 0.394601
561 1 8.4552 9.30279 7.68124
562 1 7.44848 8.12954 8.79355
563 1 3.28642 0.0704359 7.77604
564 1 3.65945 4.54197 2.94577
565 1 6.15052 9.07868 8.68349
566 1 7.17202 4.35886 8.38857
567 1 1.76545 9.3761 6.83482
568 1 4.35897 3.72801 0.872196
569 1 6.5136 4.28597 7.3915
570 1 1.52977 2.49338 8.90659
571 1 8.17452 1.56163 5.62275
572 1 5.50637 8.88892 3.14203
573 1 4.66473 5.19721 4.37067
574 1 3.71283 6.62084 6.78839
575 1 8.98624 0.178718 1.90369
576 1 7.35601 5.24243 3.00267
577 1 6.60002 6.38035 4.89826
578 1 2.78467 8.34611 1.48345
579 1 5.95386 5.60572 0.345156
580 1 5.96695 4.82391 5.11043
581 1 4.35225 1.44784 1.97269
582 1 8.55463 4.17426 2.01858
583 1 4.158 6.19405 1.51326
584 1 7.9044 7.23806 5.75831
585 1 3.86166 0.984262 9.26992
586 1 5.15931 9.25654 7.25631
587 1 7.79602 4.01982 9.24158
588 1 3.77752 3.13585 6.31393
589 1 8.474 7.62441 7.12507
590 1 3.51429 2.9423 4.26295
591 1 1.06541 6.64695 9.39172
592 1 6.78977 5.74823 1.09293
593 1 1.54105 2.65675 0.576097
594 1 2.17074 1.97433 8.20633
595 1 7.4107 5.76443 1.96118
596 1 8.50677 0.492348 5.66118
597 1 5.49477 6.72513 6.19632
598 1 9.25154 8.07072 8.52181
599 1 3.64242 8.16473 9.30165
600 1 6.86332 6.86472 7.30642
601 1 1.23265 7.56344 1.68857
602 1 8.33218 2.86291 9.18904
603 1 3.95659 0.842066 2.50744
604 1 0.614581 0.342906 3.25778
605 1 1.44662 6.48868 6.3172
606 1 3.52066 8.22629 2.35247
607 1 3.52177 6.43168 2.26289
608 1 3.96467 1.74358 8.49498
609 1 5.00967 7.59365 6.20246
610 1 3.79174 7.17539 5.96621
611 1 7.77869 8.20914 5.05449
612 1 3.1735 1.06606 2.91553
613 1 4.59385 4.92484 8.96751
614 1 1.20481 1.3152 3.90989
615 1 8.73327 6.24002 3.5583
616 1 6.17184 5.15922 8.12894
617 1 2.42727 5.98612 1.10851
618 1 7.50062 7.21869 0.658161
619 1 7.23507 3.39675 6.25454
620 1 3.29007 0.0511003 4.32895
621 1 7.77508 9.3196 5.76629
622 1 1.10837 1.63572 5.79018
623 1 7.48324 8.51774 3.71902
624 1 8.20247 5.36223 2.50386
625 1 3.87407 9.0005 9.25741
626 1 6.96915 1.17134 1.06383
627 1 4.02158 8.56327 7.82048
628 1 2.30953 3.35747 0.364015
629 1 1.00634 4.01621 6.6791
630 1 4.74281 1.5694 6.39691
631 1 5.53792 4.47681 8.64041
632 1 2.12133 8.31141 3.44026
633 1 3.59505 0.211057 8.73587
634 1 7.271 7.37624 9.20004
635 1 8.83712 4.47008 5.4323
636 1 8.89031 4.51573 2.90073
637 1 2.48021 3.91803 2.06189
638 1 8.45367 7.32465 0.653966
639 1 2.2862 2.77995 7.72636
640 1 7.99933 2.57346 8.38484
641 1 7.43697 7.95539 5.87214
642 1 2.70438 0.28127 9.14586
643 1 1.96888 7.8493 8.2311
644 1 6.42822 6.39871 2.48474
645 1 4.84713 9.26035 4.37021
646 1 2.03025 6.24117 8.05499
647 1 1.9223 5.30959 0.768103
648 1 5.36444 1.6967 7.22171
649 1 6.74789 1.874 1.72385
650 1 4.63032 6.12164 4.00401
651 1 8.37613 6.03669 0.475697
652 1 6.48794 5.43589 1.91977
653 1 3.73404 2.58341 7.18958
654 1 1.88947 4.2375 2.7585
655 1 2.54686 3.99024 1.1109
656 1 0.505584 8.78934 5.31547
657 1 2.9008 1.90445 2.651
658 1 2.28893 1.94062 0.833282
659 1 0.828908 1.32816 9.06032
660 1 8.37851 3.20008 6.10528
661 1 9.34411 7.70846 5.22184
662 1 4.52861 4.95473 3.52175
663 1 0.206512 4.6293 7.71693
664 1 7.81116 5.98112 7.26982
665 1 5.71732 5.34495 2.8102
666 1 1.77745 1.36166 6.36952
667 1 3.35477 7.25129 7.72089
668 1 7.94631 1.23462 1.39625
669 1 0.956296 5.86951 6.67927
670 1 4.71794 4.7073 8.05693
671 1 9.26232 0.503225 7.86973
672 1 8.09793 6.29443 1.54168
673 1 4.55862 4.72889 7.12061
674 1 1.792 6.37324 8.99714
675 1 2.6284 3.15698 5.84445
676 1 7.0027 7.59704 8.05386
677 1 9.20168 2.38315 4.51362
678 1 0.619904 9.24829 7.66168
679 1 9.08729 2.44881 7.57136
680 1 0.770289 8.36884 8.44929
681 1 4.70921 4.32617 2.96895
682 1 5.18718 6.09335 9.3446
683 1 8.46368 5.37525 7.29249
684 1 5.74692 2.15749 8.08754
685 1 8.79318 4.41006 0.0595421
686 1 3.74598 7.24249 2.70294
687 1 0.6155 3.43083 1.99186
688 1 0.768484 1.49918 1.26924
689 1 7.01424 4.74554 9.38177
690 1 1.94016 8.79513 1.05044
691 1 4.74957 3.27676 8.82822
692 1 0.355995 0.212198 5.02503
693 1 5.125 3.07429 4.32878
694 1 4.93182 2.86862 0.823505
695 1 6.51325 0.710143 8.82507
696 1 1.68356 7.79104 7.17226
697 1 3.70679 0.0302548 6.95313
698 1 3.1465 3.31262 1.71019
699 1 5.81751 7.6892 6.76669
700 1 2.69381 5.28541 4.54383
701 1 8.79529 7.39067 6.04385
702 1 5.61226 7.38125 0.22343
703 1 8.23556 1.61906 7.45325
704 1 3.24627 7.24345 3.49812
705 1 0.972445 1.75767 2.17461
706 1 0.105402 6.78924 2.86389
707 1 4.58783 6.84535 -0.00666493
708 1 5.88247 6.00333 5.58593
709 1 8.12494 3.82739 1.21381
710 1 6.50099 6.64136 0.862269
711 1 6.46839 8.81481 3.98534
712 1 3.65404 1.70103 7.00868
713 1 1.29721 8.62971 7.05776
714 1 7.58545 3.23022 7.51279
715 1 2.88722 1.63417 6.22014
716 1 8.80243 8.39997 6.78872
717 1 1.63299 1.38957 8.89822
718 1 8.16089 9.20496 1.54761
719 1 7.29553 1.2017 5.46448
720 1 2.45905 8.13056 8.98871
721 1 0.597716 7.51444 4.52485
722 1 1.01664 5.19192 7.93864
723 1 9.14569 0.633876 3.57468
724 1 1.19263 1.46335 4.83366
725 1 5.63005 4.42089 7.54903
726 1 6.81693 2.58035 6.49744
727 1 4.13885 6.68812 7.69999
728 1 5.48746 8.68334 4.08698
729 1 0.814068 4.10006 1.35335
730 1 8.17646 4.54526 6.91845
731 1 2.64889 1.17982 7.53665
732 1 6.30694 9.14012 2.20975
733 1 4.1479 3.52451 0.0179537
734 1 4.37163 7.574 0.707233
735 1 8.09447 7.87016 3.47974
736 1 3.03428 2.69433 8.10943
737 1 3.78563 2.02837 5.00338
738 1 2.52166 9.22337 5.46894
739 1 8.51113 3.48148 3.03217
740 1 3.93787 8.82701 4.33875
741 1 3.57602 6.7629 0.592212
742 1 1.67353 0.45531 8.63087
743 1 8.665 2.15404 3.3608
744 1 6.69887 1.977 0.522415
745 1 7.44655 3.20137 8.65017
746 1 0.296434 9.3556 1.41962
747 1 5.05331 5.93758 3.18589
748 1 6.45805 1.16982 3.95579
749 1 8.50859 8.79197 8.44727
750 1 4.22609 3.95945 8.20749
751 1 6.95559 7.24305 5.59172
752 1 6.03863 5.93791 7.7663
753 1 3.57416 6.6022 8.40484
754 1 5.37584 5.411 3.98165
755 1 0.676855 8.78199 0.2024
756 1 1.3661 8.68176 3.92635
757 1 2.35133 5.89666 3.88897
758 1 4.61009 8.1042 5.56539
759 1 0.273534 1.44031 3.45468
760 1 0.156983 2.43319 3.39787
761 1 0.0318704 1.75093 2.65358
762 1 8.67308 5.26234 8.12282
763 1 3.87528 4.6573 2.10494
764 1 5.99554 7.94202 7.5933
765 1 2.16282 3.69888 5.19614
766 1 6.68108 7.22335 4.36559
767 1 6.01042 7.4263 5.81492
768 1 6.20119 3.35602 2.079
769 1 8.73545 1.80571 6.73797
770 1 6.76781 2.88056 3.83063
771 1 0.974737 2.10037 3.21255
772 1 9.11042 2.83582 0.0975534
773 1 3.03915 5.28957 3.66274
774 1 8.54861 8.96598 6.15917
775 1 7.43943 3.42527 3.32755
776 1 7.36065 1.00605 2.23533
777 1 0.52706 0.967158 5.34705
778 1 0.461604 9.16466 2.38225
779 1 3.0252 2.56852 0.766025
780 1 7.61341 0.742325 0.527359
781 1 3.14089 3.96411 4.02805
782 1 4.90852 5.40862 6.18611
783 1 8.4964 2.16526 5.01027
784 1 1.3465 9.05091 8.89968
785 1 7.68905 5.50631 1.04804
786 1 3.23748 5.71037 6.83214
787 1 5.61733 0.729409 2.72857
788 1 8.73834 1.48093 4.08835
789 1 5.18302 3.89493 0.575009
790 1 4.28571 2.39162 6.44365
791 1 4.87191 7.1247 8.15497
792 1 5.11075 1.98337 1.80723
793 1 0.588446 7.58185 2.54762
794 1 6.73268 3.39868 7.13524
795 1 8.07921 0.195988 9.17083
796 1 3.38837 1.41432 1.18356
797 1 0.153291 3.85313 7.12749
798 1 8.73788 8.25173 5.58665
799 1 7.45083 0.995656 3.73209
800 1 3.77057 5.34541 4.60753
801 2 4.81267 0.834829 3.81572
802 2 8.36689 0.461987 4.03312
803 2 5.03883 1.20963 1.24178
804 2 8.63252 4.45298 7.6789
805 2 3.81091 4.68215 3.92078
806 2 1.62597 4.33486 1.09644
807 2 0.316023 8.64597 6.83633
808 2 0.161871 6.07623 9.22779
809 2 1.72899 9.04693 2.13647
810 2 7.38207 2.29184 4.74362
811 2 1.32909 2.24881 4.36955
812 2 3.7411 8.79818 1.49748
813 2 1.27731 3.73915 5.11845
814 2 4.33615 9.08013 8.46425
815 2 3.62969 8.13311 0.787218
816 2 8.58569 4.59088 3.79924
817 2 3.19833 6.08172 4.34466
818 2 0.54853 4.84871 1.01195
819 2 0.979852 5.47769 8.78558
820 2 1.87636 3.74765 6.08301
821 2 2.31558 5.81265 6.8039
822 2 1.11369 8.1634 5.63473
823 2 8.01335 8.56042 7.44406
824 2 0.516891 1.90467 4.2173
825 2 5.62535 2.51555 6.96112
826 2 7.19085 6.13698 2.76213
827 2 4.22539 3.84967 6.66632
828 2 6.40056 1.1635 5.69587
829 2 9.22487 8.86624 7.74916
830 2 2.9975 6.63413 5.63714
831 2 5.50895 0.477301 9.12736
832 2 2.79476 1.52339 5.21618
833 2 4.78536 4.0582 9.1988
834 2 2.83908 1.7012 3.51734
835 2 5.26281 4.84145 0.173215
836 2 4.00766 0.749262 1.43891
837 2 4.52477 5.73183 7.84438
838 2 4.48479 8.87695 6.13192
839 2 8.88218 3.97745 6.29999
840 2 4.81475 8.54477 1.49242
841 2 1.21932 0.661654 6.03436
842 2 3.5958 8.98017 6.21436
843 2 1.08826 4.28421 7.81904
844 2 1.41466 3.86858 1.95312
845 2 5.97332 4.72593 5.93623
846 2 3.32006 3.43047 0.73273
847 2 7.13736 7.54751 1.96689
848 2 5.79973 4.37877 3.16634
849 2 8.75728 7.5572 9.20647
850 2 0.0800177 9.26603 6.12244
851 2 6.88482 3.52087 5.45055
852 2 9.37769 0.376752 0.668384
853 2 2.21586 2.42755 2.84512
854 2 5.55414 0.269731 1.66731
855 2 3.29665 4.83504 8.44886
856 2 0.533978 9.16402 4.12561
857 2 4.91174 4.33947 1.43942
858 2 7.78381 2.95825 1.33811
859 2 2.56922 5.79526 0.0685847
860 2 5.50688 5.86832 6.69358
861 2 1.43828 6.91391 2.8747
862 2 4.7678 1.81384 3.67799
863 2 9.20848 4.02457 4.61804
864 2 7.6097 3.23075 0.466422
865 2 1.16575 0.752898 2.10961
866 2 2.41743 5.34199 1.89395
867 2 0.931417 5.48775 3.51354
868 2 4.53988 5.12912 1.7975
869 2 3.67674 4.31623 7.61475
870 2 6.11794 2.95864 5.99469
871 2 8.36957 5.76494 6.50936
872 2 7.55322 6.19743 4.5392
873 2 8.04853 6.83521 -0.0226774
874 2 6.34219 8.49722 5.87614
875 2 8.64738 8.00693 1.1459
876 2 8.29891 0.0825202 4.9098
877 2 3.97364 4.42672 4.77277
878 2 5.49205 2.73318 1.56115
879 2 0.128421 7.09671 9.04868
880 2 1.40555 8.07339 8.92796
881 2 9.2956 8.27665 0.169355
882 2 1.33824 0.207228 3.76783
883 2 8.1268 6.93196 8.40904
884 2 5.84643 2.61724 5.09735
885 2 3.68189 3.04486 8.75633
886 2 7.87099 1.54258 3.24724
887 2 9.11832 0.107702 4.31941
888 2 6.17979 3.98748 4.89714
889 2 6.40987 0.758703 2.15567
890 2 6.51091 1.93827 7.03205
891 2 3.84253 6.31698 5.80159
892 2 8.26559 3.83351 8.2926
893 2 2.30067 0.86722 3.13544
894 2 0.177106 3.89774 5.42669
895 2 7.72093 6.29939 6.41662
896 2 2.81046 4.73145 2.58834
897 2 8.5668 0.828686 7.32598
898 2 8.12574 5.9834 8.60731
899 2 7.09681 8.05067 4.39889
900 2 7.32208 6.69581 1.80359
901 2 0.327791 5.4027 7.30237
902 2 0.40809 6.17915 3.98599
903 2 5.18015 7.39739 5.20228
904 2 5.55049 1.48654 9.01246
905 2 2.94053 0.130115 6.37354
906 2 2.60189 8.08906 7.52826
907 2 6.79896 3.87693 4.26171
908 2 0.845387 1.75642 7.23669
909 2 4.28651 6.03319 0.619872
910 2 3.44837 1.00839 8.35973
911 2 5.10098 0.717257 7.55636
912 2 7.27494 6.17556 7.99432
913 2 7.38348 0.561135 6.24589
914 2 4.99726 1.45749 8.23321
915 2 1.4797 5.44852 1.54919
916 2 6.38042 6.82249 6.37285
917 2 1.27517 1.67293 0.536618
918 2 6.52976 0.826093 4.87562
919 2 5.36148 6.43967 0.819753
920 2 8.09026 6.24339 2.54025
921 2 9.24683 6.77683 7.40513
922 2 7.41121 2.34168 9.23717
923 2 1.40373 5.78055 0.240763
924 2 6.25601 0.113136 7.44708
925 2 6.54158 6.65219 8.26018
926 2 3.80177 4.13994 8.96631
927 2 1.76349 4.22575 7.17283
928 2 6.47733 4.68914 0.913354
929 2 7.30878 0.29021 1.47477
930 2 4.85419 9.17241 -0.0257733
931 2 5.10048 0.90671 2.08054
932 2 8.69048 5.4689 9.248
933 2 1.50355 2.54846 7.40794
934 2 5.96122 0.242547 5.51094
935 2 3.94682 5.36803 6.20513
936 2 6.35899 5.43796 6.30438
937 2 6.02377 3.63569 3.84325
938 2 7.69084 5.60118 9.36275
939 2 1.74675 5.19102 3.96533
940 2 3.1751 7.53794 5.19791
941 2 5.03191 0.588858 0.605482
942 2 4.22006 9.38675 5.17659
943 2 0.63347 2.91268 3.97521
944 2 5.67388 9.24604 0.841343
945 2 2.84821 1.2068 9.35662
946 2 0.383172 0.777731 1.69586
947 2 0.485349 1.63242 6.44387
948 2 0.271828 6.42733 8.34484
949 2 0.318333 5.85213 5.25985
950 2 1.74622 3.73409 8.06392
951 2 6.30871 4.53193 2.41136
952 2 4.43382 3.57197 2.59272
953 2 7.13237 2.9236 2.13426
954 2 8.95034 9.28097 2.79582
955 2 6.87827 8.11262 6.95181
956 2 9.07678 0.0908921 6.91048
957 2 8.21556 9.42717 0.680597
958 2 3.59352 0.599458 5.9108
959 2 6.63023 3.18281 0.317823
960 2 0.491514 7.32821 7.71023
961 2 0.791491 3.10263 3.03259
962 2 2.81109 6.7837 0.0663783
963 2 8.9389 3.29625 7.76849
964 2 8.6339 3.18033 1.70664
965 2 8.48794 6.04552 5.11806
966 2 8.42567 0.912341 8.70102
967 2 5.118 0.579738 4.90948
968 2 5.1468 3.42009 3.35065
969 2 1.76102 3.36991 3.032
970 2 4.35073 0.315759 7.77009
971 2 0.772037 6.28307 3.11497
972 2 1.50339 6.83915 5.43577
973 2 1.4548 2.69255 3.55785
974 2 6.20425 4.63575 4.02248
975 2 9.03055 8.37005 3.59217
976 2 3.13645 5.12043 9.25905
977 2 8.97145 7.29376 8.08355
978 2 8.29578 3.73582 7.25205
979 2 7.60709 6.85197 3.81366
980 2 6.21001 8.01019 0.17356
981 2 7.59055 2.12149 1.73854
982 2 3.71896 4.33884 0.833495
983 2 3.8835 2.90657 2.72704
984 2 3.51104 9.27858 0.719269
985 2 0.636086 4.69057 5.02934
986 2 5.51834 6.21181 2.50462
987 2 7.34434 8.67779 2.60653
988 2 1.00539 8.34015 4.66028
989 2 5.8646 0.254624 4.59808
990 2 7.30069 7.18497 6.64336
991 2 0.201861 4.34754 2.0808
992 2 5.70007 0.502653 3.56917
993 2 8.11551 1.56496 2.33028
994 2 2.41985 5.7832 5.73776
995 2 5.99682 8.04455 3.14344
996 2 6.129 3.0931 3.01491
997 2 6.12482 5.68852 4.58659
998 2 2.3517 4.32865 4.46653