#bin. KALJ data file T=0.5

1000 atoms
2 atom types

0 9.4 xlo xhi
0 9.4 ylo yhi
0 9.4 zlo zhi

Masses

1 1.0
2 1.0

Atoms

1 1 0.635836 4.74713 6.6
2 1 5.75555 6.28781 5.15853
3 1 7.12087 1.20993 3.28012
4 1 2.00618 5.40018 1.44959
5 1 5.51345 0.787981 1.19074
6 1 1.89472 8.79295 7.53401
7 1 7.88762 5.7987 8.90824
8 1 3.85413 3.77709 4.88761
9 1 3.45831 8.75575 8.9656
10 1 4.5614 7.09411 4.3381
11 1 2.77868 3.8934 2.86973
12 1 9.36192 2.49578 8.27247
13 1 1.32287 6.19279 4.922
14 1 0.0511795 8.08827 8.09459
15 1 0.342548 5.14609 3.82649
16 1 0.716629 8.71125 0.799353
17 1 7.11421 2.22222 6.29543
18 1 9.00993 1.49961 8.39544
19 1 6.77543 3.54548 6.83063
20 1 8.71502 4.04738 5.23398
21 1 2.15659 6.56898 4.30147
22 1 2.76115 8.11705 8.73199
23 1 8.39669 0.73017 3.94133
24 1 7.06458 4.34101 0.236001
25 1 4.24935 7.40189 2.75507
26 1 3.23186 3.32021 7.57926
27 1 5.676 8.17762 4.88576
28 1 1.03022 1.09999 5.53779
29 1 2.4412 8.17415 2.5584
30 1 2.7327 9.02762 7.37292
31 1 0.668342 2.67144 6.7144
32 1 7.98386 3.40041 5.79919
33 1 2.40101 5.96564 0.0070513
34 1 4.56587 4.40773 5.32077
35 1 7.45801 9.27855 0.4801
36 1 9.23949 0.400265 2.0787
37 1 5.05655 4.32601 8.90654
38 1 7.88475 8.0576 9.09488
39 1 0.208378 7.19609 6.07993
40 1 0.930378 9.36171 6.54087
41 1 0.0464907 6.71687 4.52355
42 1 7.32892 8.19933 5.47547
43 1 6.90779 5.88262 3.1645
44 1 0.995235 6.27088 9.24501
45 1 5.49954 6.4779 2.64879
46 1 1.52329 7.7816 5.85817
47 1 9.29503 7.56895 7.01043
48 1 1.49879 5.34696 6.41657
49 1 7.74315 7.64567 8.18996
50 1 7.31231 6.87992 2.7268
51 1 7.89412 0.661278 0.208295
52 1 8.0334 7.79873 2.58224
53 1 3.95092 2.52614 5.85434
54 1 2.77159 4.85006 3.49575
55 1 0.410774 5.86766 3.16819
56 1 0.554266 5.54088 8.78164
57 1 1.975 1.95881 6.28217
58 1 8.5521 2.70927 7.64258
59 1 6.82585 1.2655 9.22727
60 1 4.36856 8.53822 7.56553
61 1 0.918889 3.39321 5.71988
62 1 3.14685 4.78896 4.32281
63 1 2.0023 4.99738 7.19541
64 1 9.15266 7.22787 0.713065
65 1 6.42495 1.93712 7.1896
66 1 0.635981 7.8545 5.64533
67 1 4.14521 1.20331 6.14444
68 1 4.54487 9.25629 6.66454
69 1 5.89603 7.29393 7.04347
70 1 5.01055 0.995233 4.02156
71 1 6.53742 8.69729 1.75148
72 1 6.85557 5.32077 8.91092
73 1 0.0537189 6.60673 0.0131833
74 1 5.92764 6.77158 0.332816
75 1 1.40165 9.19813 0.305532
76 1 4.78374 1.91421 6.03612
77 1 2.26395 6.25895 7.4667
78 1 4.60426 3.40333 5.84101
79 1 3.55612 5.79753 6.82851
80 1 8.21674 1.03828 8.51129
81 1 8.55561 4.2521 8.93245
82 1 3.45015 1.03221 4.70268
83 1 2.5195 6.11274 0.869121
84 1 6.00631 3.59331 8.82333
85 1 0.562595 2.58351 0.554989
86 1 0.68111 7.56953 0.623378
87 1 0.62382 1.18804 4.16747
88 1 5.32846 6.46259 8.93794
89 1 0.578397 6.78774 3.03266
90 1 5.65849 2.88976 4.73001
91 1 2.00841 1.22837 8.88319
92 1 1.7478 2.15149 4.54919
93 1 8.33338 2.5342 0.358259
94 1 5.78971 2.16809 5.62491
95 1 5.22909 8.44411 3.62324
96 1 8.10101 3.17461 3.13299
97 1 4.74688 1.53816 6.93882
98 1 7.71542 7.68417 4.80033
99 1 1.06985 5.30232 0.279383
100 1 1.17024 6.13442 2.69018
101 1 5.44733 0.414151 4.95911
102 1 0.86069 0.115686 8.95483
103 1 0.0615778 9.00664 6.39067
104 1 8.77022 6.05831 6.07613
105 1 9.25102 1.24555 4.59544
106 1 0.721598 2.98923 4.01607
107 1 8.30951 5.02204 7.61761
108 1 8.7138 8.31771 6.69185
109 1 8.61207 2.46718 3.53475
110 1 4.19781 8.13352 8.44348
111 1 8.67616 8.52348 2.92404
112 1 9.20519 5.24635 2.69235
113 1 8.12001 1.69969 3.89887
114 1 3.48331 0.241588 5.53384
115 1 7.98608 5.91769 4.27516
116 1 9.08414 7.61816 2.76234
117 1 2.95891 0.420744 0.383676
118 1 8.36954 1.69554 1.63965
119 1 5.31498 5.47573 4.34448
120 1 2.0167 1.07346 2.56503
121 1 8.17918 5.64335 5.3189
122 1 6.32946 8.5699 5.92504
123 1 3.58858 9.39184 7.17335
124 1 6.10061 3.79494 5.92564
125 1 0.155442 7.43252 8.85191
126 1 7.07375 7.38419 -0.00838708
127 1 1.12804 2.54934 5.92908
128 1 8.62313 0.00946842 9.09225
129 1 6.89004 7.57399 7.4824
130 1 1.58334 1.86497 5.37324
131 1 7.14029 2.53991 4.29177
132 1 7.74862 3.21685 1.50544
133 1 2.15953 2.1301 8.23838
134 1 8.93844 8.33478 1.94428
135 1 9.00065 1.50167 2.30531
136 1 2.11457 0.248369 1.84889
137 1 0.416067 1.08459 6.99005
138 1 4.34558 3.6721 4.01964
139 1 7.1752 2.16666 8.25695
140 1 9.22052 7.46324 1.68953
141 1 1.51316 4.18681 0.125375
142 1 1.71766 8.77856 1.09159
143 1 7.39863 6.22072 1.43715
144 1 8.69542 4.74677 3.57098
145 1 8.1529 0.844576 6.76751
146 1 7.13594 3.83856 5.08883
147 1 5.8061 3.42382 7.12965
148 1 1.37986 4.51252 5.88249
149 1 5.04591 8.89778 8.11082
150 1 3.55281 5.02372 7.73279
151 1 1.31585 0.870444 6.7095
152 1 6.79752 4.45652 7.43395
153 1 0.13614 0.910396 9.00331
154 1 0.528123 1.75571 7.72093
155 1 0.837112 8.19152 1.71502
156 1 3.68416 6.77203 8.33628
157 1 6.36349 5.45322 7.26773
158 1 4.7424 5.16204 0.991599
159 1 3.15904 7.05562 4.5912
160 1 6.46554 6.76339 1.89473
161 1 8.68998 1.36037 9.32729
162 1 3.05326 7.38411 5.40683
163 1 6.60878 1.96967 5.12322
164 1 0.21309 3.1839 1.92048
165 1 4.33053 8.57741 2.22458
166 1 6.17363 2.77559 3.95212
167 1 2.57034 4.64159 1.56139
168 1 9.29997 2.92746 9.36128
169 1 4.63983 5.5125 5.04094
170 1 1.02437 5.4095 5.57506
171 1 7.09836 9.21484 7.67401
172 1 9.35249 1.88853 0.305463
173 1 0.35623 0.641155 6.13219
174 1 8.65243 7.05179 9.07267
175 1 2.31696 4.6083 0.296453
176 1 0.775767 4.08113 3.50542
177 1 5.2101 2.39165 7.93645
178 1 2.34346 9.12657 8.36909
179 1 5.28211 3.50284 4.01144
180 1 3.66979 8.01684 2.77436
181 1 2.81701 6.82624 3.66782
182 1 8.80854 4.96186 6.7407
183 1 8.65183 9.23497 5.53419
184 1 2.16525 2.04268 3.3702
185 1 9.34262 4.05309 5.97793
186 1 2.01911 9.0348 5.33157
187 1 8.24778 1.3074 5.02217
188 1 6.34884 3.52836 1.62742
189 1 8.52158 7.96665 4.6229
190 1 4.90761 5.52056 2.66157
191 1 2.77596 2.93887 6.6749
192 1 2.4901 6.17763 5.0284
193 1 0.340628 5.92709 2.27796
194 1 6.70578 0.874686 4.43861
195 1 4.91966 6.49835 3.54139
196 1 2.06 6.76454 6.63099
197 1 7.37463 4.87291 1.19668
198 1 7.07514 8.42736 9.37568
199 1 6.54813 5.5367 1.60824
200 1 5.16731 2.90943 2.61884
201 1 5.36748 9.25139 2.33851
202 1 8.36741 3.80886 3.80933
203 1 7.79816 9.03043 2.45751
204 1 8.09148 1.48549 3.05733
205 1 5.72756 2.7235 1.92197
206 1 0.0731712 5.35951 6.03929
207 1 3.55196 0.568262 3.39775
208 1 5.0374 9.22331 9.14448
209 1 8.82713 4.25215 8.01537
210 1 1.78295 4.0671 5.00304
211 1 3.33801 6.47948 9.04231
212 1 1.64915 1.58291 0.533706
213 1 1.86019 7.58094 2.88751
214 1 7.16547 8.39784 7.0827
215 1 3.62245 6.91012 2.43171
216 1 5.60532 0.892404 3.22558
217 1 1.39619 6.05344 7.09534
218 1 4.37908 8.20245 0.12023
219 1 3.67201 1.7578 4.37583
220 1 7.56603 6.6817 3.56185
221 1 3.15149 3.72854 0.783218
222 1 7.66904 8.55913 4.63254
223 1 8.01864 5.98999 7.97962
224 1 6.66106 2.31797 3.35021
225 1 1.88435 2.9607 0.180083
226 1 0.515619 5.00443 1.0208
227 1 7.49736 3.57201 8.55755
228 1 2.97925 2.44727 7.76696
229 1 3.19881 4.22187 5.40077
230 1 6.93514 9.01076 3.20978
231 1 1.23958 2.10687 7.2253
232 1 1.13848 8.15378 3.982
233 1 3.16153 5.28348 4.97479
234 1 8.22291 4.29672 4.48316
235 1 2.89176 3.25307 9.32079
236 1 3.86395 0.662918 0.514189
237 1 2.12189 3.22088 4.34857
238 1 3.55572 2.86701 0.353134
239 1 4.5282 7.17688 1.52262
240 1 1.45368 5.32936 2.22385
241 1 7.94946 1.08942 7.60657
242 1 6.88305 2.61495 1.8465
243 1 6.87336 4.15686 8.70909
244 1 9.35423 5.55995 7.11463
245 1 3.26167 5.82969 8.38575
246 1 4.79044 0.147137 1.64211
247 1 3.59474 6.94732 7.07078
248 1 2.51852 1.83173 2.34976
249 1 0.71287 3.86974 7.90144
250 1 6.07986 3.88172 2.39789
251 1 2.00358 0.152335 2.93056
252 1 8.80032 0.830173 7.60935
253 1 6.54463 2.8986 2.64707
254 1 0.1293 4.22045 8.88496
255 1 1.55333 0.422509 1.06957
256 1 4.58754 0.050743 0.661029
257 1 5.69156 7.23891 5.32179
258 1 5.61406 1.67366 7.42347
259 1 1.44975 6.02251 3.66785
260 1 5.89224 2.80352 8.14345
261 1 1.98217 6.72684 3.25712
262 1 8.2204 9.3375 4.59949
263 1 7.83235 4.10503 7.01929
264 1 6.11794 4.24238 6.7847
265 1 4.01113 1.29134 2.52118
266 1 5.32778 0.901934 7.59907
267 1 1.49045 9.32452 8.21807
268 1 2.99115 6.49504 6.54153
269 1 2.79926 3.11933 5.7042
270 1 0.0686935 4.65522 7.44566
271 1 8.26699 6.94172 1.01383
272 1 8.23326 5.45674 2.70257
273 1 4.26816 3.53255 8.55821
274 1 2.95438 8.99587 4.92537
275 1 4.52981 0.893018 8.32309
276 1 2.33152 3.70837 0.522932
277 1 6.26839 1.92427 8.15509
278 1 3.96391 5.05075 5.46226
279 1 1.94437 5.18249 3.07298
280 1 1.41917 6.91976 7.24828
281 1 6.21334 6.89097 8.90178
282 1 1.9511 4.5403 8.71409
283 1 3.48241 8.37534 5.3899
284 1 5.93022 9.2375 1.34097
285 1 3.12406 1.21316 6.01336
286 1 9.26517 1.30119 6.40644
287 1 9.38504 7.04475 3.58345
288 1 8.4768 2.75639 5.28882
289 1 6.71127 0.473118 3.59055
290 1 8.35923 7.32984 5.31327
291 1 2.10175 7.04569 1.05376
292 1 2.86314 2.12136 6.43395
293 1 6.9913 9.11534 6.328
294 1 6.69783 8.52732 4.785
295 1 7.7212 9.12952 5.33603
296 1 4.05952 7.41277 7.67831
297 1 6.52828 5.44939 5.31872
298 1 5.46487 1.87176 3.98829
299 1 7.59138 8.41702 3.05525
300 1 2.76313 1.47576 8.23244
301 1 3.62128 3.1298 1.509
302 1 7.69354 7.67748 3.67248
303 1 3.44085 3.23264 3.21779
304 1 4.5186 5.54762 3.54426
305 1 0.816148 1.77718 0.219398
306 1 6.19347 5.16563 4.46765
307 1 4.94007 8.00311 0.949734
308 1 5.60495 0.19939 8.13298
309 1 2.82654 7.0202 0.576097
310 1 8.66251 5.98309 1.74323
311 1 1.54442 2.7431 3.79021
312 1 7.99135 4.45728 0.222978
313 1 7.56377 2.21452 3.26182
314 1 5.22653 9.16869 5.86279
315 1 9.41211 1.3784 5.4221
316 1 6.99109 0.353043 2.42747
317 1 9.22537 7.54762 5.17493
318 1 2.11814 1.64585 7.40773
319 1 6.01075 9.38061 3.1788
320 1 2.97929 9.12623 3.39571
321 1 7.076 6.00147 2.28206
322 1 3.05382 1.34952 3.72233
323 1 3.50134 7.55653 3.67401
324 1 5.68775 4.74923 2.61902
325 1 5.30822 7.53947 4.22559
326 1 5.65805 4.7734 7.43144
327 1 7.41462 1.45155 6.58147
328 1 3.44289 3.05599 8.42391
329 1 5.47969 7.61687 0.247559
330 1 0.845056 3.90782 6.48762
331 1 3.13555 6.33063 7.63894
332 1 0.627627 8.72308 8.40016
333 1 6.01265 5.80918 3.01591
334 1 2.7437 2.34901 9.14603
335 1 4.03732 2.67429 3.89385
336 1 3.22496 3.95573 3.71199
337 1 2.62302 2.53304 4.85425
338 1 9.3165 2.32926 2.9527
339 1 6.69746 1.04195 7.57165
340 1 7.07778 3.63054 5.91203
341 1 3.02514 0.35866 6.61004
342 1 6.15801 9.21893 6.77347
343 1 5.89175 1.26241 1.84815
344 1 0.778111 2.539 9.01874
345 1 1.10497 1.71225 1.30982
346 1 8.71396 9.15797 1.86712
347 1 2.44222 3.71442 7.17615
348 1 2.9589 5.66712 1.55953
349 1 4.02745 6.68424 3.44539
350 1 2.20911 2.20945 1.32353
351 1 7.33831 7.23136 5.67727
352 1 3.86127 8.87657 2.92728
353 1 5.12946 1.71002 2.15825
354 1 8.3992 4.10651 6.25518
355 1 5.0117 6.80946 0.643655
356 1 5.91705 4.22664 4.00231
357 1 4.99767 2.56636 0.356514
358 1 0.0740249 8.42889 2.60041
359 1 4.39871 3.68379 3.1411
360 1 3.50442 8.75616 1.83499
361 1 1.19167 9.14114 4.92206
362 1 4.86589 1.5768 9.37145
363 1 7.35791 7.08698 6.70296
364 1 3.08304 7.95656 4.38414
365 1 7.53413 6.00604 6.15008
366 1 6.62981 8.90521 0.778358
367 1 2.86949 4.94261 6.987
368 1 0.233874 5.55115 7.92939
369 1 3.31066 0.160586 4.32104
370 1 1.81226 4.1527 6.62631
371 1 4.43327 0.072943 2.46288
372 1 8.30356 7.2802 7.24309
373 1 1.57879 3.44111 0.964591
374 1 5.62136 8.54932 6.51102
375 1 3.7863 0.80261 1.74994
376 1 2.77728 0.852772 1.17107
377 1 2.41911 5.38144 8.62338
378 1 8.42171 7.94836 1.19992
379 1 1.38907 2.43428 0.694961
380 1 4.21307 4.34313 8.96777
381 1 4.35926 8.26159 3.28865
382 1 4.32786 9.12289 3.82696
383 1 1.70405 6.84203 2.31055
384 1 3.18589 6.28826 5.50136
385 1 6.6728 4.73538 2.65778
386 1 3.90418 3.4272 2.38919
387 1 0.154444 0.597402 8.03978
388 1 4.71774 8.42949 6.36499
389 1 3.79195 6.74345 0.492406
390 1 5.50118 5.69233 5.80526
391 1 2.25525 4.71379 6.11839
392 1 0.774716 6.37822 7.64608
393 1 8.79383 1.88675 5.87279
394 1 3.01695 3.04999 2.20081
395 1 5.12754 8.2354 2.65307
396 1 7.12428 4.85529 6.61681
397 1 4.62274 1.09026 1.29289
398 1 3.63565 1.42657 7.85648
399 1 2.00504 7.53139 0.265805
400 1 8.42637 0.829445 2.03489
401 1 8.96151 6.54902 8.38651
402 1 2.82985 0.885835 7.45076
403 1 5.02216 7.55105 3.25716
404 1 8.3842 2.57985 1.26796
405 1 6.29591 9.33182 4.28
406 1 5.82227 9.30739 0.443112
407 1 5.14547 8.21885 8.84565
408 1 6.35509 3.037 5.31633
409 1 2.41049 7.78129 4.98859
410 1 2.54119 8.42629 1.2892
411 1 2.08328 1.11746 5.80601
412 1 2.02998 3.70326 5.76279
413 1 2.34829 7.16832 5.87521
414 1 0.925761 2.11959 4.12113
415 1 2.92685 3.91744 1.88688
416 1 5.30543 8.64486 0.331455
417 1 4.01529 6.09917 5.07234
418 1 4.93266 2.73061 5.37576
419 1 3.87708 8.93714 4.75864
420 1 7.23834 3.01071 3.27185
421 1 6.84643 7.86129 6.26423
422 1 7.5957 5.26042 0.195738
423 1 4.54263 5.71075 6.07752
424 1 4.96019 9.35732 3.20609
425 1 6.72791 1.25024 2.39867
426 1 6.44541 0.391387 0.768329
427 1 6.65635 4.44054 5.98253
428 1 4.19496 2.87692 9.11865
429 1 6.49307 6.43373 6.54044
430 1 6.29056 4.9469 0.323018
431 1 6.11927 1.0259 6.89563
432 1 6.36088 7.74618 8.96536
433 1 3.51736 7.51725 9.18748
434 1 5.07504 8.90802 1.20626
435 1 7.38065 6.72778 7.74783
436 1 6.70975 0.695221 1.55856
437 1 2.61642 1.97365 4.11544
438 1 3.69623 1.55826 5.46508
439 1 8.3396 3.81821 1.83001
440 1 3.74298 4.71517 3.36983
441 1 5.73185 2.03007 3.22574
442 1 9.08342 4.68611 0.422568
443 1 6.76758 0.181382 5.19533
444 1 5.14769 7.33323 8.7199
445 1 6.0229 3.73902 4.76198
446 1 3.48896 8.65032 3.9238
447 1 4.4383 4.36668 8.13025
448 1 5.86768 0.578209 4.05237
449 1 2.78342 0.812932 2.13225
450 1 5.92168 0.458736 6.08815
451 1 3.21021 3.3443 4.60078
452 1 8.464 2.24055 2.66087
453 1 1.46968 4.89389 0.981637
454 1 2.85673 8.42208 6.72102
455 1 3.98673 1.97598 0.138596
456 1 3.79996 1.84243 3.31191
457 1 4.19946 7.53937 0.777075
458 1 9.36333 0.13973 7.24503
459 1 8.22581 6.47445 2.5995
460 1 9.16105 1.93242 1.45468
461 1 6.25178 0.929162 8.36022
462 1 2.33499 5.95121 3.73703
463 1 2.49843 1.97666 5.57576
464 1 1.35403 0.846219 1.95157
465 1 2.50178 9.36764 1.02627
466 1 4.29571 6.30544 9.22404
467 1 4.01363 1.43715 8.82469
468 1 7.98761 2.81032 8.56576
469 1 5.79347 7.59595 2.5981
470 1 9.30711 2.77464 1.23879
471 1 5.24313 1.94581 4.85354
472 1 6.29312 3.77904 7.93123
473 1 5.87546 5.86945 0.0310474
474 1 5.78407 7.04058 1.22761
475 1 0.0405827 4.44552 3.21631
476 1 6.95518 0.74068 6.02892
477 1 4.11316 6.34756 7.55425
478 1 5.29634 9.15432 4.13306
479 1 7.57858 0.313401 1.70171
480 1 7.6985 -0.0241242 3.76484
481 1 6.52415 2.88323 7.51261
482 1 1.26897 8.18317 9.24083
483 1 4.41049 1.38622 4.84824
484 1 1.87887 2.57312 2.47604
485 1 7.18381 1.24211 5.2542
486 1 6.15989 8.24142 0.319882
487 1 8.01361 5.23212 6.41261
488 1 8.14916 3.4584 9.2612
489 1 1.6127 5.60792 8.98254
490 1 1.21059 4.87777 3.79692
491 1 0.811595 7.48089 6.78825
492 1 9.09678 5.84571 8.95625
493 1 6.68011 0.243392 9.32709
494 1 3.14237 1.3458 9.00373
495 1 0.585102 1.92706 2.14964
496 1 3.52607 8.88333 0.501759
497 1 2.52028 3.1869 1.36935
498 1 3.18736 1.67383 7.11728
499 1 1.73876 3.00755 6.45853
500 1 8.01579 7.30234 0.273318
501 1 8.52219 5.35734 0.0164022
502 1 1.97974 8.88298 6.4753
503 1 0.432868 5.09547 1.9298
504 1 7.5764 6.81734 4.44369
505 1 4.55686 4.30133 1.35364
506 1 2.89055 2.39394 3.14767
507 1 6.48348 2.05046 8.96055
508 1 1.37642 1.30316 4.77618
509 1 4.71952 9.27607 5.04864
510 1 7.27841 0.766424 0.832559
511 1 6.42144 6.53694 2.87678
512 1 9.05507 9.03841 7.98206
513 1 2.01494 8.60393 4.53067
514 1 6.77683 8.43081 2.57861
515 1 1.70681 8.46556 8.47248
516 1 3.57252 7.13027 1.33507
517 1 8.45795 8.65839 8.55163
518 1 3.12837 5.36129 2.80039
519 1 4.80393 2.53085 6.6059
520 1 4.62587 1.63804 7.86151
521 1 4.54515 3.49355 1.6803
522 1 4.45116 0.750622 3.10828
523 1 1.23681 4.37463 2.77715
524 1 2.35669 3.1943 3.17911
525 1 1.81801 7.81296 1.92888
526 1 2.80959 4.26834 9.03384
527 1 3.51041 5.56146 3.73886
528 1 1.55699 5.24106 7.98118
529 1 1.04109 7.32315 9.22445
530 1 5.59425 6.64959 6.02099
531 1 5.04958 6.38315 1.62121
532 1 7.27806 -0.0387729 4.50803
533 1 7.4121 0.510798 8.63201
534 1 8.31743 8.65861 0.165976
535 1 1.03472 4.05245 8.75172
536 1 2.56403 0.67054 3.36648
537 1 4.57073 4.62878 3.87779
538 1 2.26859 4.46022 7.87175
539 1 2.0614 4.30113 2.38095
540 1 8.26233 0.371983 1.14702
541 1 1.66261 8.76928 2.48273
542 1 5.8526 8.41904 2.2697
543 1 6.86376 9.09857 8.60402
544 1 3.66617 5.07671 1.95535
545 1 4.37715 5.31585 0.250204
546 1 8.43937 4.39406 2.60801
547 1 3.9532 6.58012 6.07403
548 1 9.37221 2.56441 4.10571
549 1 3.73213 5.61395 0.927331
550 1 3.85115 5.13877 8.5607
551 1 0.519234 6.89171 1.69303
552 1 1.52703 1.83633 2.1142
553 1 2.35153 6.69786 8.42345
554 1 7.66454 5.37843 1.99306
555 1 0.704191 6.38128 4.01828
556 1 1.33885 8.66187 5.76289
557 1 4.48066 4.71239 7.09509
558 1 2.55655 6.62944 2.02354
559 1 0.878676 2.82471 5.06559
560 1 0.65864 6.55668 0.663738
561 1 7.70681 7.95533 6.31138
562 1 6.80404 3.01951 8.49803
563 1 4.96824 1.47303 3.19537
564 1 3.68637 4.84959 6.48445
565 1 6.78834 7.64662 3.07543
566 1 7.93488 3.45083 4.80226
567 1 9.0965 8.75231 3.83214
568 1 4.92304 8.1024 5.55944
569 1 4.97163 7.15911 2.28642
570 1 3.60807 4.75893 0.266229
571 1 7.75785 0.56625 2.96879
572 1 0.663112 3.58362 2.83795
573 1 5.32381 3.89276 5.61702
574 1 4.84126 2.98929 7.39622
575 1 8.34924 6.33714 3.61233
576 1 5.72723 2.06742 0.228884
577 1 8.755 2.32587 8.98885
578 1 7.10821 3.67083 7.68288
579 1 8.0747 6.67253 6.37516
580 1 4.45903 0.428354 7.53086
581 1 1.88562 3.66998 7.91922
582 1 0.475649 6.60941 8.61589
583 1 0.19917 3.45122 5.29844
584 1 4.05082 7.05335 5.16621
585 1 8.7834 4.08284 7.1318
586 1 0.834346 0.205005 7.44046
587 1 6.96877 8.34539 3.80478
588 1 1.80888 0.353763 9.09672
589 1 7.15026 0.485276 6.89874
590 1 0.388533 3.30126 8.62631
591 1 3.43062 4.18185 7.14442
592 1 6.73524 6.20971 5.66275
593 1 8.78586 6.43184 5.22311
594 1 5.98356 7.74914 8.05159
595 1 0.631696 1.93161 5.1415
596 1 4.4296 0.541091 5.53243
597 1 3.03823 1.54886 1.64995
598 1 3.87681 2.58796 2.69615
599 1 2.72325 7.64634 1.73874
600 1 0.504251 1.59007 3.3648
601 1 1.08085 3.65367 4.72265
602 1 0.550144 7.22066 7.79939
603 1 0.814967 5.38364 7.33826
604 1 2.7231 8.96526 2.44133
605 1 1.52095 7.83744 7.61104
606 1 8.25881 1.80856 6.99355
607 1 3.67636 3.7736 9.33281
608 1 5.44156 5.67809 8.00027
609 1 1.83147 0.866981 8.08749
610 1 7.30211 5.19107 8.03897
611 1 6.48424 5.16744 3.57108
612 1 0.664718 7.06632 5.07099
613 1 7.4248 4.75479 3.29087
614 1 8.9995 0.976635 1.28506
615 1 5.82181 3.1837 3.21702
616 1 4.82154 8.4289 4.45766
617 1 5.88132 8.33637 1.21772
618 1 2.50681 8.14005 7.83707
619 1 7.66276 6.82317 8.90576
620 1 3.71388 0.960748 6.97631
621 1 4.9071 7.3087 7.34893
622 1 7.69934 1.87085 8.96662
623 1 7.53934 1.5878 0.364309
624 1 3.67263 3.48161 6.01983
625 1 4.45251 0.603391 9.26067
626 1 0.601847 4.42392 0.268291
627 1 7.71907 5.07011 4.06354
628 1 0.322815 6.58098 6.84622
629 1 4.85094 6.42732 5.50798
630 1 6.44561 7.71624 5.39018
631 1 5.40039 4.74976 0.44048
632 1 8.64066 9.29923 6.7922
633 1 6.99326 7.76363 2.0881
634 1 0.254014 8.82914 1.55906
635 1 7.10054 4.01482 1.35562
636 1 0.100879 9.30873 0.055151
637 1 0.393591 9.11924 4.39452
638 1 0.0526575 3.52207 4.26511
639 1 1.1116 3.35325 0.193773
640 1 8.25964 8.78298 1.07878
641 1 0.315338 8.21658 0.0179597
642 1 3.47296 7.62774 8.28994
643 1 5.68475 5.44658 1.81376
644 1 2.50581 3.06573 8.4717
645 1 4.59329 5.65561 7.42134
646 1 1.27025 4.29692 7.45569
647 1 8.41168 8.338 5.46651
648 1 1.06915 3.61026 1.77012
649 1 8.16862 6.93636 8.10477
650 1 4.14995 2.59193 1.0156
651 1 4.60032 4.7641 2.97477
652 1 9.02524 3.81196 0.239435
653 1 5.63744 2.49689 7.01723
654 1 2.30601 6.20145 5.98679
655 1 0.385462 3.57369 0.7516
656 1 9.04843 8.79591 4.90436
657 1 0.197503 8.18773 6.56108
658 1 7.66444 8.07572 0.713304
659 1 6.55179 4.46607 5.05237
660 1 1.26213 4.50375 1.81433
661 1 3.13306 1.39939 2.91516
662 1 8.91444 9.24941 0.71278
663 1 6.1957 1.30371 3.63435
664 1 0.790856 6.01037 1.39739
665 1 0.623396 0.153029 1.10838
666 1 7.69691 4.38767 5.86415
667 1 4.1186 9.27905 8.35779
668 1 3.74 7.87039 6.8988
669 1 5.05849 0.746247 6.52273
670 1 0.625574 7.62207 2.35191
671 1 7.26941 5.7383 4.91588
672 1 1.38709 2.79409 1.62897
673 1 1.51574 6.10384 8.14384
674 1 4.25647 4.08063 6.58076
675 1 2.94066 8.9402 5.9162
676 1 4.74033 3.59687 4.80419
677 1 9.23407 8.33382 5.76215
678 1 0.0995529 8.69161 7.30141
679 1 6.26324 4.18732 0.900747
680 1 6.12086 0.578345 2.51906
681 1 8.16034 0.0239635 8.18171
682 1 8.96419 0.659518 0.375779
683 1 1.81139 0.590439 5.04209
684 1 6.77572 3.4099 9.31049
685 1 8.3777 5.07086 4.73685
686 1 8.57006 7.04743 4.22918
687 1 5.20754 9.29668 7.19036
688 1 6.11255 8.62218 8.77336
689 1 8.99665 6.16325 2.9228
690 1 6.68019 1.74347 4.28206
691 1 8.82915 7.96345 9.29145
692 1 7.55549 1.24709 1.50208
693 1 5.75751 7.0367 3.36546
694 1 1.20013 8.42545 6.64112
695 1 4.99291 5.02672 8.38558
696 1 0.133139 2.676 7.39666
697 1 5.13334 6.40295 4.50979
698 1 5.33726 4.52832 4.58453
699 1 7.46316 5.23029 5.74892
700 1 5.24118 1.26837 5.64633
701 1 2.36409 8.0764 5.89179
702 1 2.47238 4.72497 5.17197
703 1 0.249859 7.95109 3.38949
704 1 3.88057 1.92038 6.56777
705 1 5.91732 9.01533 5.15413
706 1 5.16119 3.34312 8.36505
707 1 6.25899 2.50528 6.27164
708 1 3.49903 2.03664 8.53804
709 1 0.700585 5.31098 4.79099
710 1 2.0051 3.96075 1.62139
711 1 5.36488 4.06696 3.1193
712 1 9.03183 5.36417 1.10243
713 1 8.25966 8.63295 3.87513
714 1 7.48123 7.22718 1.4575
715 1 2.56701 0.747286 4.28731
716 1 0.895099 2.53253 2.81631
717 1 9.42771 3.30004 6.77898
718 1 1.805 5.62069 4.4553
719 1 6.47133 7.05543 5.93274
720 1 7.84765 6.43694 5.13681
721 1 2.23768 7.2299 7.66772
722 1 6.17566 4.67024 1.872
723 1 8.51193 8.01657 7.79703
724 1 5.59607 4.27366 8.19152
725 1 2.34308 6.07648 2.65205
726 1 1.88727 7.65143 8.79668
727 1 6.85088 7.93916 1.19275
728 1 7.58527 3.773 2.91187
729 1 6.97873 3.18037 0.937895
730 1 7.51462 4.48073 2.177
731 1 9.2782 8.06806 0.882514
732 1 1.31805 0.332038 5.74258
733 1 9.14541 5.5624 4.98006
734 1 5.5525 4.87474 3.53774
735 1 2.38339 5.54232 6.56952
736 1 7.66654 3.61987 0.575724
737 1 8.89586 0.686937 5.71081
738 1 9.3163 6.7782 2.29347
739 1 7.5166 2.33326 0.879849
740 1 1.73282 0.222895 4.11611
741 1 5.61589 1.95745 1.3134
742 1 8.67474 3.07841 4.42198
743 1 9.17717 3.43262 7.67222
744 1 0.268157 8.25984 4.4441
745 1 3.00866 5.30109 5.92462
746 1 3.1731 2.3729 1.26813
747 1 9.22366 4.44236 4.27753
748 1 3.90838 7.72807 1.79086
749 1 5.18128 2.90825 1.29144
750 1 1.15436 0.363612 2.64427
751 1 1.33403 3.16336 8.67532
752 1 2.39535 1.36425 4.9392
753 1 5.8334 1.24374 9.29703
754 1 6.21281 0.849769 5.37452
755 1 1.51142 7.23386 4.27717
756 1 0.485987 1.13805 1.58851
757 1 8.03851 2.37282 6.30209
758 1 5.9875 8.7117 7.75002
759 1 5.0698 5.61644 9.12427
760 1 1.27928 0.73315 0.251742
761 1 1.03774 1.02703 8.86817
762 1 8.45874 3.14448 6.68366
763 1 1.0179 1.66712 6.24058
764 1 3.97665 5.59459 2.74939
765 1 8.89647 0.970737 3.0332
766 1 7.68641 4.34711 7.97277
767 1 2.52012 1.81186 0.429345
768 1 9.08101 3.23437 3.39514
769 1 1.04405 8.50946 7.70067
770 1 1.85961 6.6179 0.288923
771 1 1.90022 0.300002 7.354
772 1 0.711608 0.569205 4.83969
773 1 2.61116 2.70746 0.718628
774 1 0.828184 4.6887 8.13898
775 1 4.73166 2.11407 8.70561
776 1 4.55704 6.39047 2.50967
777 1 4.85672 7.07774 6.0918
778 1 2.73915 7.23829 2.7229
779 1 0.384622 1.09356 0.598604
780 1 2.4255 5.19106 2.24098
781 1 1.3736 0.903027 3.54874
782 1 1.90451 5.50204 5.48723
783 1 4.07176 7.96369 4.65885
784 1 0.277319 6.19427 5.38943
785 1 1.53978 7.0532 8.20619
786 1 1.22407 9.24962 1.89058
787 1 5.67792 6.18695 6.87624
788 1 5.18462 7.89368 1.8156
789 1 0.540024 7.40578 4.22523
790 1 7.98536 1.43078 5.85989
791 1 2.81734 8.0818 0.299877
792 1 2.76919 3.84143 6.1746
793 1 6.95278 8.21457 8.37804
794 1 1.30135 1.70105 2.98827
795 1 9.08645 0.410288 4.74331
796 1 6.66613 5.54697 6.37093
797 1 9.02324 5.86479 3.96658
798 1 4.98385 7.9438 7.98499
799 1 4.56873 6.80771 8.29818
800 1 9.07395 5.04124 8.58074
801 2 4.71902 3.63899 0.105047
802 2 1.91272 7.95136 6.75791
803 2 7.87884 2.92523 3.95971
804 2 6.42258 5.01665 8.14699
805 2 1.59095 3.81634 4.07017
806 2 3.68419 0.1335 1.17033
807 2 7.46298 4.87863 4.87642
808 2 4.36374 7.16529 9.32836
809 2 1.36787 8.05901 0.747354
810 2 1.31717 9.03906 3.44194
811 2 3.4394 1.5082 0.582735
812 2 2.6296 0.5191 8.35701
813 2 7.71047 8.47613 7.8751
814 2 1.93449 3.64297 8.96032
815 2 6.82501 1.73103 1.3112
816 2 8.37587 7.1762 2.09028
817 2 3.94438 1.12249 3.88721
818 2 4.14009 3.67705 7.49229
819 2 0.702999 1.10098 2.60409
820 2 7.66339 2.81454 2.45488
821 2 2.17621 4.7353 4.28445
822 2 5.86012 6.88494 8.00433
823 2 0.471089 1.67699 8.7849
824 2 6.40541 1.39643 6.0994
825 2 4.02703 5.20725 4.35144
826 2 4.77798 6.34461 6.7079
827 2 2.65462 7.73841 3.39815
828 2 8.08224 3.55771 7.74169
829 2 8.78087 2.80367 2.0483
830 2 1.04196 7.76801 8.43099
831 2 3.55021 4.38886 1.32845
832 2 1.50853 4.85809 5.01324
833 2 3.08078 4.28564 8.09554
834 2 6.767 3.76932 3.28639
835 2 3.44438 7.27365 6.27141
836 2 5.19565 7.68279 6.57022
837 2 1.67859 6.95566 5.23248
838 2 9.18027 6.39573 1.19476
839 2 2.49032 8.95219 0.0631647
840 2 5.39162 2.71895 9.05324
841 2 8.6937 7.86696 3.73303
842 2 9.35774 4.74933 5.0799
843 2 6.19453 1.40986 0.776305
844 2 3.477 0.51607 7.93191
845 2 9.28683 4.22822 1.27694
846 2 2.93 5.1094 0.885996
847 2 4.04525 6.03533 1.92377
848 2 2.62234 0.331182 5.42407
849 2 5.93015 8.22151 4.02627
850 2 6.90379 6.18357 9.23093
851 2 7.47519 2.83131 9.35835
852 2 2.71471 7.42405 6.96547
853 2 1.32767 3.38798 7.15408
854 2 3.32641 8.01768 1.12887
855 2 7.64665 0.908395 4.46094
856 2 6.26058 1.98022 2.20035
857 2 3.4065 0.218553 8.89716
858 2 8.95985 1.66546 3.66508
859 2 5.04651 4.12898 2.27937
860 2 4.07597 7.78437 5.90778
861 2 0.369046 9.04828 3.19406
862 2 4.70668 1.83831 0.840731
863 2 1.94603 1.40218 4.0332
864 2 3.64417 8.85841 6.48733
865 2 7.16702 2.07764 2.57881
866 2 2.08447 7.84505 4.08737
867 2 3.16147 6.22639 2.8986
868 2 5.16426 4.01224 6.53707
869 2 1.84199 6.28742 1.58143
870 2 6.70886 6.88791 3.8122
871 2 9.0456 1.67031 7.37752
872 2 7.6546 2.13052 5.20214
873 2 5.22503 3.80445 0.996205
874 2 0.834927 0.209977 3.80806
875 2 8.66365 4.84941 5.78305
876 2 5.25909 0.700477 0.37709
877 2 6.76969 6.7591 4.81488
878 2 1.14432 7.33699 3.39731
879 2 0.694663 4.22039 5.35587
880 2 3.38091 8.29802 7.67029
881 2 1.54864 5.92785 0.833392
882 2 8.29334 1.19972 0.808136
883 2 1.91354 1.147 1.29091
884 2 8.37567 9.2829 3.17036
885 2 5.8526 4.91533 6.25073
886 2 2.69124 5.49187 7.81086
887 2 6.11892 4.24906 9.34618
888 2 9.2342 8.73485 8.88153
889 2 4.36953 6.19667 1.03172
890 2 3.13014 2.78442 3.94866
891 2 3.31147 5.51335 9.28817
892 2 6.89445 7.03169 8.40687
893 2 7.03349 3.65989 2.16604
894 2 7.12033 5.63627 0.754507
895 2 4.14629 3.73411 0.789455
896 2 7.63443 4.72762 8.79038
897 2 1.76216 3.865 3.24297
898 2 8.24812 6.13686 7.1811
899 2 8.4974 2.09725 4.66165
900 2 7.72591 5.71226 3.46935
901 2 0.520008 4.17863 2.20039
902 2 8.0501 5.60117 0.95238
903 2 6.22172 8.43387 3.20975
904 2 3.90144 2.90565 6.97669
905 2 1.94727 8.42109 3.31794
906 2 1.42151 1.96698 8.60765
907 2 6.9268 5.96724 8.23416
908 2 6.67677 2.04481 0.428656
909 2 4.86091 4.87828 6.0331
910 2 5.20197 6.4853 7.51339
911 2 6.78484 6.60625 0.825613
912 2 8.20301 4.43856 1.15597
913 2 4.26306 6.21611 4.12722
914 2 5.31917 1.36893 8.53569
915 2 7.40766 2.82382 5.69705
916 2 4.51933 1.85409 3.99956
917 2 4.46362 5.83829 8.40292
918 2 6.91407 5.9811 4.1315
919 2 1.00751 5.21885 3.07596
920 2 1.70907 2.84532 5.33426
921 2 8.5835 6.23807 0.385418
922 2 5.52663 1.62311 6.42877
923 2 7.33257 1.83143 7.46046
924 2 2.7013 4.06429 4.54647
925 2 7.31976 8.97558 1.36862
926 2 7.63873 6.46323 0.465463
927 2 6.88371 7.64948 4.42537
928 2 3.34585 9.03665 8.05187
929 2 2.22698 0.92357 6.75577
930 2 5.19573 8.40062 7.27599
931 2 8.59307 7.4471 6.32857
932 2 6.15889 0.358088 7.48383
933 2 9.11511 3.70113 2.50517
934 2 9.07272 7.32924 7.99869
935 2 6.74652 3.42748 4.22467
936 2 2.58992 7.28853 9.07416
937 2 4.50852 2.7238 4.6
938 2 9.35565 0.305969 3.84242
939 2 4.19615 9.12336 9.26453
940 2 8.3529 7.23904 3.15007
941 2 8.55042 3.32698 0.879377
942 2 3.20603 4.50302 2.4569
943 2 5.40656 3.12396 6.23868
944 2 0.161271 5.42599 0.231092
945 2 2.17292 2.76665 7.35694
946 2 4.51185 2.58534 1.89029
947 2 1.05685 8.21538 2.87791
948 2 3.05763 6.15176 4.22682
949 2 7.93762 9.356 6.18364
950 2 4.08501 2.47155 7.86709
951 2 3.9705 1.87864 1.6759
952 2 5.51028 5.80463 0.899268
953 2 1.12907 7.82205 4.81714
954 2 4.24165 8.36741 1.36025
955 2 6.15077 7.67038 1.78183
956 2 8.92672 3.51311 8.66504
957 2 0.254681 2.63229 5.87152
958 2 5.78027 6.0804 3.88069
959 2 1.25853 7.34985 1.28424
960 2 4.1355 9.06146 5.71276
961 2 5.16165 3.81668 7.60411
962 2 3.45992 2.58594 5.03865
963 2 4.48795 4.42626 0.463877
964 2 7.70105 9.09506 8.94503
965 2 6.04149 3.2539 0.320139
966 2 6.28405 8.18242 7.01312
967 2 6.61063 6.54912 7.50483
968 2 2.14698 0.744853 0.431537
969 2 7.86508 8.94631 7.216
970 2 0.287428 9.1958 5.55189
971 2 1.69149 3.39552 2.35083
972 2 5.80255 1.1998 4.58617
973 2 3.87093 0.351618 6.31935
974 2 0.8508 2.61431 8.05376
975 2 7.82608 8.11545 1.72843
976 2 5.19632 5.34095 6.76131
977 2 1.26449 6.38196 5.85916
978 2 4.22259 0.529664 4.46294
979 2 6.07953 6.06433 8.46936
980 2 7.51157 2.83503 7.67775
981 2 8.63837 4.94924 1.92675
982 2 5.74625 5.1448 8.81555
983 2 7.10111 1.28088 8.36211
984 2 6.78487 4.55558 4.12737
985 2 5.15627 0.803961 2.27951
986 2 7.50251 2.9515 6.7595
987 2 0.699008 5.80595 6.48385
988 2 8.8842 3.23791 5.92032
989 2 0.745827 4.53739 4.43312
990 2 8.26017 1.89129 7.98021
991 2 5.91195 6.91799 4.40296
992 2 5.59933 4.76399 5.45004
993 2 7.33939 5.87245 7.1872
994 2 4.66437 2.33524 3.20755
995 2 7.47099 3.93375 3.86846
996 2 5.8807 0.397223 8.9181
997 2 9.06346 2.42718 6.6266
998 2 6.30996 2.6058 1.18564
999 2 8.94168 6.27216 7.63743
1000 2 9.29751 2.45453 5.14419

Velocities
