#bin. KALJ data file T=0.5

1000 atoms
2 atom types

0 9.4 xlo xhi
0 9.4 ylo yhi
0 9.4 zlo zhi

Masses

1 1.0
2 1.0

Atoms

1 1 8.29371 0.0429088 6.33461
2 1 1.56568 6.54109 5.34054
3 1 6.79303 8.064 8.07062
4 1 8.77433 5.374 4.14992
5 1 0.609232 6.03127 0.902656
6 1 4.63922 3.27744 8.00575
7 1 9.1636 1.66819 8.3563
8 1 6.70548 8.9875 4.53058
9 1 2.00543 8.43698 2.03259
10 1 5.84101 6.25394 3.37683
11 1 1.81137 5.65887 5.79326
12 1 5.87908 2.28196 1.43139
13 1 8.5107 4.34203 4.37492
14 1 8.90186 4.54218 3.34581
15 1 5.7561 2.63532 8.57161
16 1 8.87918 7.06635 4.15916
17 1 2.28941 5.03825 5.07462
18 1 2.51338 5.39019 0.256675
19 1 5.0539 5.43983 0.817155
20 1 5.38776 5.09938 3.13683
21 1 9.10493 3.3372 2.27645
22 1 0.465668 7.32455 3.19532
23 1 2.00836 8.68422 8.83721
24 1 7.80633 3.18141 7.96275
25 1 7.05096 0.0674369 1.51692
26 1 1.50726 0.892948 3.92696
27 1 8.3004 7.65825 7.42688
28 1 7.25681 4.45676 7.81829
29 1 3.52338 7.43925 1.12418
30 1 5.66759 1.67187 3.52393
31 1 8.32118 9.27272 2.44111
32 1 4.44815 0.57474 8.82537
33 1 6.93416 8.90154 7.33534
34 1 0.910984 2.43347 3.9322
35 1 8.16653 0.67519 8.75
36 1 2.94229 4.4084 5.2535
37 1 0.0761377 1.96753 5.19654
38 1 9.35487 1.33876 0.556236
39 1 2.24763 7.38477 6.56668
40 1 7.15343 2.42832 7.17401
41 1 2.87311 5.64065 5.42136
42 1 1.01842 8.32864 1.89395
43 1 5.56856 5.27538 1.92353
44 1 8.09272 2.31766 7.77507
45 1 3.6567 1.76395 2.55642
46 1 1.91859 2.19265 8.56879
47 1 5.09401 5.85154 2.78935
48 1 8.90593 7.15117 2.93567
49 1 1.30091 5.61827 1.3001
50 1 9.02568 3.13795 4.06339
51 1 9.08874 1.03034 5.91669
52 1 5.92076 3.56021 5.97675
53 1 0.315363 2.85096 6.89642
54 1 5.84361 0.821791 2.17712
55 1 7.12564 7.81994 7.30391
56 1 3.43128 0.116976 2.37549
57 1 6.5019 3.63262 1.67664
58 1 0.0165897 5.84314 2.69411
59 1 4.14427 5.70922 9.13433
60 1 7.69575 6.06491 8.28272
61 1 5.55583 2.48535 2.86144
62 1 4.80863 4.62044 1.48041
63 1 1.77163 1.32907 3.22684
64 1 2.22847 5.20899 8.15284
65 1 8.72263 6.29566 7.04435
66 1 1.64864 3.32225 8.34526
67 1 2.51756 8.69345 1.12909
68 1 4.15995 4.51625 9.31943
69 1 6.52417 2.06047 5.56105
70 1 0.347017 8.55261 8.33293
71 1 5.22983 7.93561 8.53977
72 1 5.75544 4.53844 1.02686
73 1 1.01791 0.291564 5.76076
74 1 8.06904 5.73081 9.0433
75 1 0.940322 6.53533 7.9588
76 1 4.10803 9.30152 4.58852
77 1 1.88195 2.08885 3.67902
78 1 2.37752 2.0923 6.17387
79 1 1.20524 8.36339 8.54633
80 1 4.93954 9.28375 4.02477
81 1 7.81858 4.79797 2.28773
82 1 6.21648 2.24403 4.15125
83 1 7.49058 7.83836 8.61967
84 1 6.29022 5.2304 1.06199
85 1 2.46637 0.951224 0.0750066
86 1 8.68969 0.758694 1.92307
87 1 4.75302 4.41511 0.57235
88 1 9.12388 0.801231 8.47483
89 1 3.28754 6.32153 6.08894
90 1 9.04832 6.93978 8.77319
91 1 7.74186 1.44145 2.52974
92 1 4.82157 3.02288 8.84484
93 1 8.5572 4.05469 1.94732
94 1 7.71037 6.59432 2.43889
95 1 4.48793 7.90756 1.54541
96 1 4.25538 1.17007 5.76606
97 1 3.22467 1.0693 4.27374
98 1 7.20406 1.29172 8.59388
99 1 1.09864 4.49894 0.0685258
100 1 3.76681 3.51566 7.33725
101 1 3.48959 0.303487 9.41824
102 1 0.330693 2.84211 0.634529
103 1 0.747491 2.1689 8.05077
104 1 2.30662 3.31263 0.384932
105 1 6.50141 6.17318 1.27076
106 1 2.7297 7.21558 0.193671
107 1 4.3472 9.2358 2.18942
108 1 7.6131 7.38454 3.29186
109 1 5.22542 6.6658 5.07378
110 1 6.9006 6.91535 3.00025
111 1 8.88234 6.54066 6.27604
112 1 8.95689 0.230555 3.69165
113 1 1.69272 7.15279 7.36754
114 1 7.42044 0.536652 7.55978
115 1 3.93457 7.78026 3.32984
116 1 4.30976 3.81917 1.90491
117 1 4.5084 8.88278 1.23266
118 1 4.1073 6.77401 6.6243
119 1 8.91893 5.74663 1.06729
120 1 0.536118 3.18254 4.33701
121 1 8.89674 1.90848 6.02164
122 1 3.31526 5.5957 1.32883
123 1 7.82408 1.52042 3.75893
124 1 8.94142 7.29918 6.83554
125 1 7.09545 8.26803 1.7378
126 1 0.174037 7.98218 1.40063
127 1 0.982603 7.97487 4.69882
128 1 4.14522 0.932635 2.46613
129 1 8.77144 5.08291 2.00564
130 1 7.41168 3.01114 4.66341
131 1 3.63328 8.2443 0.83887
132 1 3.96787 1.32616 8.96522
133 1 9.05262 9.1554 2.96145
134 1 0.16397 3.83154 8.40572
135 1 3.59013 9.05375 6.29199
136 1 8.05909 8.41656 5.16795
137 1 2.58098 2.28854 3.00972
138 1 3.34931 3.57842 3.86712
139 1 5.84894 2.57804 5.83185
140 1 4.74204 6.09075 2.01411
141 1 8.07315 2.54179 5.29057
142 1 2.27088 0.280259 1.67789
143 1 9.30429 5.51538 7.50664
144 1 3.12393 7.81391 3.52803
145 1 2.36349 1.22373 3.88268
146 1 5.61998 4.63262 5.55552
147 1 4.98736 8.96703 3.1721
148 1 3.61561 2.19153 3.24992
149 1 1.23528 6.77809 6.14726
150 1 0.0707108 8.12259 7.06255
151 1 6.48945 0.427156 7.41301
152 1 5.19925 4.67784 7.24289
153 1 6.80164 1.24086 7.83514
154 1 8.20893 7.03022 0.66318
155 1 5.65713 7.46912 4.51484
156 1 0.364319 4.74744 7.91177
157 1 4.84245 4.37319 4.80776
158 1 6.14093 6.78192 2.53498
159 1 4.10067 5.00188 8.5394
160 1 3.92624 5.22538 2.08371
161 1 1.62556 5.81117 3.48933
162 1 6.104 2.40846 7.57208
163 1 3.55665 0.178954 5.25668
164 1 2.29098 1.87049 1.4484
165 1 6.97611 3.52062 3.57014
166 1 1.0617 4.76481 7.17791
167 1 4.27326 3.76192 4.09023
168 1 5.35375 7.89929 1.33403
169 1 6.86628 5.9494 2.14158
170 1 7.17857 6.95731 1.65925
171 1 0.0207675 4.04048 4.72
172 1 8.19528 1.7034 6.78973
173 1 8.72782 7.94136 0.813305
174 1 5.35793 3.33174 0.101309
175 1 0.970566 8.22879 6.62313
176 1 5.07397 6.87529 8.3845
177 1 2.03844 2.46337 0.849946
178 1 3.62416 7.50511 5.89668
179 1 9.36059 6.22005 3.68337
180 1 8.7059 3.65088 7.07409
181 1 7.29643 4.32218 9.11761
182 1 0.502631 1.3632 6.22175
183 1 8.26369 9.04008 3.50418
184 1 6.00886 1.43731 5.67734
185 1 1.62158 8.83164 6.16175
186 1 3.64172 7.95238 1.97484
187 1 3.92755 2.06904 5.60655
188 1 9.30831 4.89527 0.991396
189 1 7.48742 1.91764 0.85402
190 1 4.82219 0.152944 7.70773
191 1 4.36163 4.5241 5.8442
192 1 6.3736 5.54772 4.09584
193 1 2.76686 9.16099 9.30569
194 1 0.75586 2.41471 4.86097
195 1 1.01438 8.48988 0.0223594
196 1 6.24199 1.42248 1.41831
197 1 9.37437 2.58776 8.1738
198 1 2.46683 2.83867 5.17251
199 1 4.90027 2.25164 8.37824
200 1 8.27206 6.13957 5.64315
201 1 7.41941 6.27057 1.26697
202 1 6.90169 1.291 6.3845
203 1 2.69348 8.13747 7.42503
204 1 1.39739 0.328469 1.00429
205 1 3.05027 0.224903 1.32468
206 1 2.05227 6.99041 0.833397
207 1 0.77262 3.07619 8.15895
208 1 8.13166 6.67554 9.08262
209 1 0.15733 6.73331 1.96259
210 1 2.7309 1.25223 6.0904
211 1 6.16903 4.25533 6.61647
212 1 5.62168 5.25855 8.61437
213 1 1.5991 7.84875 2.51148
214 1 3.29062 8.05491 6.75514
215 1 1.94319 7.56027 3.76769
216 1 7.68311 4.0417 7.07027
217 1 7.83535 6.84431 5.00167
218 1 4.44677 7.32025 0.749194
219 1 0.262547 7.53741 4.40664
220 1 1.11912 1.84834 8.96458
221 1 8.43952 2.538 8.64153
222 1 4.77168 7.4767 4.74239
223 1 1.94464 6.63669 3.93417
224 1 1.89652 1.02834 0.948002
225 1 0.326237 9.10618 3.79409
226 1 5.816 6.42317 7.99296
227 1 0.248716 1.08364 5.16974
228 1 1.08606 1.45896 2.06437
229 1 8.04491 6.92023 1.67086
230 1 3.28827 5.0616 9.03012
231 1 7.75165 8.42286 2.46636
232 1 7.58043 4.77844 6.36274
233 1 3.9645 2.80893 6.72484
234 1 5.82656 6.00194 8.94002
235 1 5.40597 3.76424 7.18816
236 1 2.80601 3.83497 1.75315
237 1 0.157642 8.52838 4.52517
238 1 8.222 9.32164 5.41665
239 1 1.22365 6.58203 1.24561
240 1 4.46758 0.452247 5.23329
241 1 1.37335 8.99699 2.48767
242 1 8.21284 0.86185 3.21788
243 1 2.29768 9.04062 2.74984
244 1 8.84435 1.19984 9.21553
245 1 3.31382 1.92456 4.53675
246 1 5.09849 0.100107 1.69464
247 1 3.30194 4.4913 7.70624
248 1 1.9264 6.75518 9.33096
249 1 0.86538 4.2523 2.33535
250 1 6.57455 7.10625 7.78297
251 1 8.89789 4.65568 6.68564
252 1 9.07173 8.70257 0.525971
253 1 1.67186 7.07629 3.01054
254 1 4.63421 2.96604 1.90003
255 1 7.30826 5.31676 8.90249
256 1 3.28552 1.82611 1.57497
257 1 4.14158 2.24919 8.98566
258 1 0.76164 3.74867 0.711815
259 1 6.56946 4.33185 3.84415
260 1 1.7756 8.60891 0.501951
261 1 2.20592 4.32054 2.53993
262 1 4.79341 3.01523 7.0296
263 1 4.74378 6.32892 1.14825
264 1 3.30144 1.11537 5.42718
265 1 0.618437 8.87664 7.31296
266 1 7.79732 2.34985 2.14737
267 1 7.2884 2.74029 5.58402
268 1 4.89115 5.32838 5.36193
269 1 1.20641 1.21 7.31271
270 1 9.37611 3.6119 6.51633
271 1 8.55643 1.11753 7.84579
272 1 8.97891 8.60274 5.36307
273 1 5.75297 6.02731 0.907671
274 1 7.2301 3.72928 2.54842
275 1 4.59495 1.38616 7.16642
276 1 8.3152 4.83244 7.5109
277 1 5.15088 9.25199 5.06425
278 1 6.76314 6.27257 8.62961
279 1 2.42644 3.63768 8.99822
280 1 2.67313 0.690442 7.68862
281 1 0.35055 4.69867 4.0661
282 1 6.06823 6.43554 4.21779
283 1 8.92885 0.912142 6.78027
284 1 7.32406 9.17096 8.18049
285 1 4.78869 3.35224 3.4815
286 1 0.88849 9.21301 6.49922
287 1 8.34018 3.21738 4.66167
288 1 7.34604 2.70365 0.320629
289 1 7.4246 4.62734 5.29292
290 1 5.8449 2.42011 0.0384858
291 1 1.74791 8.24612 5.18547
292 1 1.03132 6.96896 2.34979
293 1 0.61017 0.0892662 2.71797
294 1 3.04348 3.42235 8.17473
295 1 3.32374 4.14957 9.33303
296 1 7.21178 5.97567 4.33903
297 1 1.17652 7.0906 4.43832
298 1 1.09399 2.86522 3.00362
299 1 5.28202 8.42888 5.80204
300 1 3.47921 2.42556 0.142075
301 1 2.43975 2.14444 4.3394
302 1 1.63341 2.61758 4.66172
303 1 6.36852 4.81094 1.99727
304 1 1.14816 8.22957 7.51056
305 1 6.92833 8.47485 6.47823
306 1 2.45582 8.9017 4.7655
307 1 1.8918 5.70885 6.70801
308 1 4.33578 5.94871 4.71453
309 1 7.96199 9.00715 4.47217
310 1 4.29162 1.9171 0.433482
311 1 6.31227 2.79213 2.14645
312 1 8.50198 9.3167 8.27508
313 1 2.63466 7.79652 0.826414
314 1 0.206624 3.97506 2.9672
315 1 9.39496 0.480248 0.068729
316 1 3.74338 4.17726 3.22247
317 1 0.822733 4.67992 3.25182
318 1 1.19189 2.54602 0.546069
319 1 1.38923 1.76687 1.25222
320 1 6.0023 0.149519 8.5475
321 1 3.40273 3.75454 6.42154
322 1 1.6605 0.666854 7.95991
323 1 2.43893 0.17987 3.48832
324 1 4.44738 2.41325 2.69426
325 1 7.59863 6.93285 7.56058
326 1 1.28959 9.22904 8.78614
327 1 5.55765 4.03753 8.2257
328 1 7.14102 5.06871 1.47035
329 1 5.71867 7.028 9.35778
330 1 5.69759 0.517813 3.12494
331 1 7.00382 3.3123 7.39224
332 1 6.45007 2.77952 0.821666
333 1 5.88214 5.24193 7.4033
334 1 3.03183 0.943937 8.55952
335 1 7.26342 8.25727 0.0376381
336 1 0.39772 1.60265 7.13468
337 1 5.14661 2.8682 5.25544
338 1 5.53808 1.99066 6.61521
339 1 3.15686 6.09763 2.093
340 1 8.16757 2.56279 6.24211
341 1 4.48987 8.41826 4.03428
342 1 8.06199 5.92818 0.739351
343 1 2.23568 3.74397 5.33528
344 1 6.0251 3.41887 8.72128
345 1 5.62481 6.66278 6.59879
346 1 3.77485 3.9054 5.16828
347 1 9.32749 7.86327 8.74515
348 1 5.26131 7.79312 0.0878138
349 1 4.96214 0.963255 8.10913
350 1 8.87047 7.31865 1.97017
351 1 2.68953 6.26361 4.65678
352 1 8.38474 2.58316 3.61738
353 1 8.90804 2.3054 4.42514
354 1 6.73504 6.22576 3.551
355 1 7.75786 3.53597 0.323035
356 1 2.79087 3.30915 3.16214
357 1 3.21622 9.00658 3.41989
358 1 1.0133 7.51296 5.3791
359 1 4.18172 1.41293 4.87574
360 1 2.99299 3.50883 4.72192
361 1 1.3184 1.73973 4.43417
362 1 6.44851 7.90353 9.14308
363 1 3.38112 6.96403 2.58007
364 1 8.81575 3.33381 3.14101
365 1 3.29338 -0.0130354 8.46466
366 1 5.0386 6.30794 0.321493
367 1 5.35388 0.752614 9.14484
368 1 3.10348 2.57791 1.15192
369 1 1.87714 2.73036 2.78074
370 1 6.11786 1.35241 6.98132
371 1 6.13762 4.10466 0.0871463
372 1 6.05372 7.7238 0.662728
373 1 5.91278 0.891007 4.02368
374 1 0.801931 5.61414 6.80708
375 1 8.06765 4.13579 2.92371
376 1 4.92934 7.44752 3.86271
377 1 6.16004 0.0804069 0.694242
378 1 2.79773 6.27896 0.669428
379 1 9.34578 0.0385547 6.89796
380 1 4.09238 5.0583 3.11953
381 1 5.25573 9.20855 0.858915
382 1 7.47919 6.87438 8.57121
383 1 1.58226 8.63935 3.32382
384 1 8.63046 5.45001 3.34857
385 1 8.48511 0.200601 7.35078
386 1 7.00865 8.67022 5.38507
387 1 8.16731 8.59718 0.465485
388 1 1.66039 3.4949 6.17025
389 1 4.91798 3.86759 2.60198
390 1 0.460888 0.697178 3.6366
391 1 5.67348 6.26301 1.79698
392 1 1.42367 3.7857 3.03897
393 1 6.81865 3.77252 8.32214
394 1 3.3481 9.28835 7.25399
395 1 7.87492 6.39727 6.76541
396 1 6.01136 0.933818 0.511879
397 1 0.283587 1.70834 1.5305
398 1 4.72618 7.73128 7.70363
399 1 8.73823 2.697 7.02746
400 1 7.76752 5.68154 2.73758
401 1 9.1468 7.26603 0.204426
402 1 4.79405 5.16348 9.10679
403 1 6.9884 5.61936 0.762386
404 1 5.14971 5.67644 7.9094
405 1 1.98136 3.54814 7.11857
406 1 6.034 8.45873 2.45247
407 1 6.88723 8.04811 3.1012
408 1 2.84221 1.7732 9.02929
409 1 0.919757 8.52013 5.48918
410 1 2.15082 6.28623 1.39766
411 1 4.30415 6.88713 4.26152
412 1 0.703674 9.21279 1.83629
413 1 2.45444 3.1855 1.27177
414 1 0.734903 5.68783 8.01359
415 1 2.63921 1.63486 2.35909
416 1 3.67922 5.49349 3.95217
417 1 7.26859 7.84712 4.85862
418 1 3.0315 3.16559 5.76955
419 1 5.77568 1.07154 8.1545
420 1 4.97108 1.39662 0.163752
421 1 1.62446 8.01372 1.31156
422 1 8.96846 7.93255 6.13262
423 1 8.62631 8.20802 8.2825
424 1 9.20397 5.86848 8.43711
425 1 1.06298 3.54692 7.46163
426 1 1.77981 3.98778 4.54294
427 1 4.90808 7.18949 6.80404
428 1 6.86416 1.57687 4.02924
429 1 3.27861 4.68234 6.1041
430 1 0.754051 7.37752 7.13564
431 1 1.70667 4.91321 2.95398
432 1 2.75486 5.02815 2.09808
433 1 1.79094 0.0447823 0.165758
434 1 0.892837 5.84253 5.88029
435 1 3.41107 1.28476 0.230729
436 1 8.2859 0.522455 4.59394
437 1 9.22679 5.02247 4.88619
438 1 6.81732 1.15406 2.21891
439 1 1.29974 5.09047 3.84954
440 1 2.5743 1.4533 4.89875
441 1 6.66703 0.306224 4.02781
442 1 3.9843 3.3153 2.72032
443 1 6.07094 7.18952 3.57782
444 1 3.40852 3.30961 9.01621
445 1 1.71691 4.84923 0.67026
446 1 3.84406 0.884882 8.03156
447 1 7.86787 5.28462 4.39022
448 1 6.98218 6.94417 5.52536
449 1 6.87336 2.85675 8.24978
450 1 1.42048 3.2996 3.8858
451 1 7.51261 0.0931604 9.06559
452 1 7.06013 2.21297 4.67101
453 1 6.81446 6.87608 4.65453
454 1 6.23426 5.11914 6.47337
455 1 2.69386 8.94574 7.99917
456 1 2.66464 0.554698 6.55713
457 1 6.44317 8.67831 1.01544
458 1 3.43885 0.712872 6.19807
459 1 4.3292 5.8956 8.10502
460 1 0.62062 9.21903 5.03501
461 1 4.95673 3.51126 1.15587
462 1 5.82354 8.59125 4.85125
463 1 6.48079 2.10161 3.12386
464 1 6.17039 7.81082 6.86522
465 1 1.45896 5.52296 7.59516
466 1 3.04567 6.14132 6.98304
467 1 2.59216 5.46461 7.39173
468 1 5.80642 8.1383 7.87512
469 1 3.41249 6.56739 4.14495
470 1 8.67937 0.535547 0.587209
471 1 8.45429 9.33656 9.18001
472 1 4.92848 0.546146 3.49934
473 1 0.781747 8.90366 1.04702
474 1 8.55744 5.52362 4.99278
475 1 8.60856 6.35327 2.59246
476 1 0.580938 1.21209 8.12885
477 1 6.15307 4.32831 7.59087
478 1 3.67317 3.07866 1.75644
479 1 6.77224 7.71876 4.08098
480 1 2.22337 2.17839 7.38529
481 1 1.8893 0.558096 5.80514
482 1 3.92754 3.81202 8.26146
483 1 4.20762 3.38191 0.0153412
484 1 7.49491 0.691256 6.1947
485 1 3.55694 8.59211 4.29547
486 1 8.03114 7.67327 6.5262
487 1 2.62172 7.74014 1.93382
488 1 8.67055 5.04969 0.328072
489 1 1.03105 0.954537 2.91674
490 1 4.24893 7.02567 5.24072
491 1 6.7645 2.24068 9.1973
492 1 1.85508 5.38342 2.07309
493 1 0.95267 5.04979 1.94877
494 1 1.71799 9.25082 5.00492
495 1 1.8283 0.479416 2.74134
496 1 1.68686 1.81759 0.30733
497 1 2.46171 0.324764 8.5596
498 1 7.54648 3.4227 8.83229
499 1 5.41774 1.63234 8.80685
500 1 4.15957 0.517811 1.61954
501 1 6.52702 3.04478 5.36049
502 1 4.77567 5.20076 6.30278
503 1 7.44258 2.01976 3.14654
504 1 7.45988 6.72689 4.02156
505 1 5.59539 3.0713 1.66487
506 1 2.27412 2.97538 7.78926
507 1 4.01893 1.25804 0.915274
508 1 1.36768 0.754558 6.42983
509 1 6.28809 9.06113 9.3686
510 1 1.87374 7.54599 4.70315
511 1 3.00778 5.29636 4.47676
512 1 4.62625 8.24964 0.527515
513 1 6.60985 4.34798 1.07782
514 1 8.38935 5.43543 6.42033
515 1 7.93059 3.50946 5.45983
516 1 6.97163 1.18414 5.45306
517 1 0.45609 2.5024 8.93146
518 1 5.86031 9.35819 4.33477
519 1 6.68302 6.14289 5.16018
520 1 4.45922 2.00398 6.52286
521 1 5.15515 6.54991 4.12685
522 1 2.66766 2.6344 8.47179
523 1 7.5438 2.51361 8.75084
524 1 8.87055 1.71457 2.0986
525 1 4.84533 4.75653 8.15401
526 1 3.75173 8.55026 9.37706
527 1 4.7921 1.28283 1.82616
528 1 4.83126 2.08898 3.50928
529 1 7.98763 6.31356 3.31226
530 1 1.84234 9.08877 8.035
531 1 3.66291 6.56558 9.22145
532 1 5.65489 8.5013 0.540531
533 1 6.63616 0.146489 5.59666
534 1 7.85754 3.24357 2.80997
535 1 6.29679 5.99778 7.3229
536 1 3.24782 0.562488 3.23667
537 1 2.3928 5.27542 3.82856
538 1 6.64504 8.63737 8.70238
539 1 5.39236 5.77368 4.69228
540 1 3.7795 6.86702 1.71564
541 1 4.36794 3.72273 6.35241
542 1 9.05385 2.22696 9.23436
543 1 5.07613 1.1026 5.3602
544 1 4.32596 9.20051 6.98599
545 1 1.01488 5.41481 2.83603
546 1 3.27757 5.48029 7.95577
547 1 2.20486 7.59212 8.81988
548 1 2.8869 7.93416 4.59048
549 1 8.50117 7.12064 5.78923
550 1 5.74658 1.81277 0.704955
551 1 1.93642 2.71253 6.58531
552 1 4.92143 6.06168 8.8115
553 1 1.05348 6.14712 4.0509
554 1 5.17937 2.18055 2.11496
555 1 2.72232 0.356111 5.30225
556 1 3.30585 4.73464 2.61428
557 1 0.539386 0.628599 6.81664
558 1 5.60413 7.24748 7.53138
559 1 5.2461 8.21147 6.84097
560 1 6.44869 9.35525 6.59509
561 1 3.47836 2.79572 4.64763
562 1 7.90875 2.26211 4.40123
563 1 6.92602 5.61635 5.7794
564 1 8.46942 3.10579 0.843047
565 1 4.40949 0.807317 4.18636
566 1 6.49566 8.93142 1.88015
567 1 8.93298 6.67773 1.16903
568 1 4.02519 5.10536 7.40279
569 1 2.37618 0.265966 0.794068
570 1 9.22485 6.96009 5.09987
571 1 0.336318 0.643302 1.95917
572 1 0.319044 3.04974 3.4667
573 1 7.06139 1.10253 0.734001
574 1 2.49317 7.04081 5.32182
575 1 5.84421 2.64824 4.7876
576 1 6.4042 5.2257 5.13785
577 1 3.91393 6.11304 7.30091
578 1 5.52046 6.90301 0.905604
579 1 0.591807 5.0526 5.52145
580 1 6.59123 0.308832 2.60958
581 1 3.34019 5.26111 0.512922
582 1 4.93894 6.42744 7.42633
583 1 9.26332 6.01104 4.66654
584 1 6.41448 6.22094 6.22185
585 1 6.0721 3.61088 0.898645
586 1 6.80837 5.09403 7.21361
587 1 2.55169 2.77265 2.14177
588 1 2.75903 5.57015 2.84963
589 1 1.45954 4.92224 4.65707
590 1 4.16714 7.97044 6.70847
591 1 6.45339 6.20377 0.207803
592 1 4.93616 7.04155 5.88034
593 1 5.70381 9.16436 7.23751
594 1 7.45693 7.35666 9.40762
595 1 8.73291 9.19799 1.3302
596 1 7.32386 2.08097 6.11393
597 1 7.97823 3.41827 3.7764
598 1 1.42387 3.25492 1.2303
599 1 1.69857 8.94053 1.40785
600 1 5.94781 5.70098 2.61576
601 1 1.26989 2.61693 7.37046
602 1 5.62056 5.82753 5.67407
603 1 2.25444 2.43905 -0.0451618
604 1 1.96621 4.45452 7.31914
605 1 0.733599 4.9643 0.980396
606 1 1.39585 4.19523 7.97768
607 1 5.16927 8.56447 2.07766
608 1 1.89059 0.744856 4.80437
609 1 5.89036 0.651511 6.22811
610 1 4.72712 4.08299 8.8837
611 1 4.04781 0.873169 3.34498
612 1 3.87086 2.01191 7.10507
613 1 3.1812 8.73831 5.24118
614 1 0.0551975 3.39188 7.49776
615 1 6.37291 1.2336 3.24087
616 1 5.437 4.61098 9.22913
617 1 3.70938 6.60848 0.793645
618 1 5.32391 6.98669 2.94458
619 1 5.4326 7.55881 5.32487
620 1 6.97196 2.86172 2.93656
621 1 4.79462 6.21995 6.38793
622 1 4.99085 8.64045 7.66282
623 1 3.46896 6.28083 5.15635
624 1 0.690298 6.34257 5.08402
625 1 5.14087 4.33773 6.358
626 1 2.20152 4.79628 9.07966
627 1 4.12053 8.97516 8.72929
628 1 6.59575 1.8305 0.621983
629 1 2.02661 4.43387 3.8423
630 1 6.99771 6.70119 6.8956
631 1 5.11544 9.13407 8.45342
632 1 9.28465 9.09507 2.10467
633 1 7.17558 6.13005 7.50853
634 1 2.90122 4.50426 3.51354
635 1 7.39286 8.86385 0.966955
636 1 9.404 2.12531 3.4789
637 1 0.383337 6.89862 0.680687
638 1 7.57315 5.47911 6.9274
639 1 2.00423 4.64904 1.65069
640 1 3.12897 1.40181 7.16107
641 1 3.10283 1.53877 3.45865
642 1 7.66826 1.40483 9.34458
643 1 7.29822 0.929014 3.12074
644 1 5.09292 7.99798 3.0448
645 1 3.09296 2.26769 5.40822
646 1 6.92896 7.47656 6.26987
647 1 8.31977 4.39604 9.1012
648 1 6.42558 7.73486 5.05008
649 1 5.83975 7.49992 6.09426
650 1 1.30358 6.48317 6.96237
651 1 6.05972 7.39887 8.41452
652 1 3.80214 0.736009 7.17658
653 1 3.75093 7.55016 0.0113427
654 1 7.44274 9.30704 2.76121
655 1 3.2594 3.82208 2.52512
656 1 5.8206 5.36293 0.248804
657 1 9.19804 0.0997176 5.46907
658 1 6.42578 2.07571 6.49
659 1 6.19665 3.39646 7.68427
660 1 4.26489 7.00228 7.59396
661 1 0.828481 0.222353 7.79258
662 1 6.3852 8.2168 5.79352
663 1 2.37985 8.6407 3.63254
664 1 0.364386 5.20091 0.0442613
665 1 3.37082 2.49056 2.29806
666 1 1.30951 2.36875 5.61355
667 1 8.7438 4.22089 0.991751
668 1 4.36068 0.186441 6.13784
669 1 1.11373 0.707489 8.75191
670 1 8.73914 1.55323 3.12309
671 1 3.34064 7.11707 5.10822
672 1 4.65108 8.33557 4.95644
673 1 8.89503 9.14358 4.50812
674 1 5.09023 3.06077 6.16431
675 1 5.02594 3.80862 5.54976
676 1 3.39493 1.03737 2.0486
677 1 0.190825 0.337515 1.00927
678 1 7.42301 9.29352 5.89216
679 1 9.35286 0.740938 7.52723
680 1 2.49255 6.62115 2.18414
681 1 1.97195 8.07703 8.08774
682 1 3.7027 4.51673 4.23931
683 1 1.06753 4.1152 1.41966
684 1 8.1938 5.97335 1.75181
685 1 2.79602 0.235058 4.27723
686 1 3.27066 8.37761 2.8878
687 1 2.86665 5.59011 6.32912
688 1 7.79332 0.568689 0.340115
689 1 7.63723 5.09506 0.272806
690 1 2.81299 1.78686 0.690259
691 1 6.43871 4.26137 4.75953
692 1 6.57403 7.02833 9.08916
693 1 6.1535 4.28592 2.6746
694 1 6.20546 7.98752 1.5903
695 1 5.00862 0.556268 2.56299
696 1 3.90291 6.00822 2.58879
697 1 7.12156 3.79552 5.35148
698 1 3.12252 2.35468 7.53609
699 1 3.37139 1.72474 8.04833
700 1 5.63138 4.67799 4.31814
701 1 0.89281 4.06845 4.99185
702 1 4.24877 6.68243 8.49191
703 1 4.0773 3.70926 0.944821
704 1 2.87635 7.20401 7.70424
705 1 1.20791 0.165182 3.35438
706 1 9.13585 8.77132 8.88005
707 1 4.44043 4.02833 7.37834
708 1 7.29751 2.0446 7.96923
709 1 7.95581 8.83344 1.71915
710 1 8.20229 3.86911 6.25957
711 1 8.29462 7.73454 0.0357619
712 1 1.47513 6.5538 8.61096
713 1 8.50187 6.2973 4.08462
714 1 5.89732 9.07417 3.54781
715 1 6.76201 8.79178 3.39661
716 1 6.41808 5.47493 8.19033
717 1 6.05806 6.80653 5.54991
718 1 2.60535 6.16575 3.67958
719 1 7.82208 8.57498 7.12784
720 1 5.21309 0.934507 1.0435
721 1 2.6893 8.84327 6.06601
722 1 8.88706 7.88409 4.53282
723 1 6.65297 4.865 0.339062
724 1 6.05747 1.92955 2.31519
725 1 3.33263 1.93809 6.35617
726 1 0.209531 4.96508 2.45186
727 1 5.86336 0.404749 5.20493
728 1 4.1495 2.80763 0.878506
729 1 5.82887 2.92115 6.80316
730 1 8.04394 7.38811 2.55068
731 1 8.72806 3.18421 8.02532
732 1 8.02823 1.6243 5.81628
733 1 0.156136 5.6399 1.80009
734 1 2.98073 2.73182 3.86587
735 1 8.37995 5.67235 7.56332
736 1 0.620271 6.6902 8.75725
737 1 0.919707 1.96297 2.73733
738 1 2.68997 4.49668 0.421557
739 1 6.5774 6.99115 0.64686
740 1 1.89138 1.17384 1.97124
741 1 4.93952 1.84875 1.05661
742 1 7.44834 4.53399 3.55815
743 1 8.69453 2.50389 2.77198
744 1 2.88484 6.88381 1.37189
745 1 0.921526 7.46604 9.10678
746 1 6.25769 1.43327 4.68857
747 1 2.35056 3.90571 7.98492
748 1 1.70273 6.19702 2.53005
749 1 7.66138 0.48408 3.92915
750 1 2.17047 4.0187 0.957216
751 1 6.33327 5.09819 3.22583
752 1 7.00586 2.01256 2.40164
753 1 8.94609 3.98212 5.70414
754 1 4.77766 4.67793 2.35219
755 1 1.14202 1.14922 5.36584
756 1 1.47857 3.34566 5.36304
757 1 3.83807 8.12553 5.12121
758 1 4.33604 8.42428 2.62
759 1 4.09585 9.25013 3.14046
760 1 3.7614 5.31555 6.46488
761 1 4.99188 1.50759 4.19868
762 1 6.11599 0.49679 1.40768
763 1 0.58302 5.47712 4.39092
764 1 2.98309 4.25232 8.59117
765 1 6.18456 3.00137 3.41772
766 1 0.911247 6.07979 2.07179
767 1 6.68062 3.39805 0.0222357
768 1 1.47829 2.96778 9.11569
769 1 3.21095 3.45356 0.752921
770 1 0.287975 7.70725 2.33239
771 1 1.85804 6.05687 0.57053
772 1 5.54386 7.66631 2.34222
773 1 7.44326 6.03549 0.12067
774 1 2.73669 4.32612 4.40995
775 1 7.84072 4.15299 8.36835
776 1 4.2978 2.49482 7.64573
777 1 2.37493 3.53857 3.98607
778 1 5.72346 3.70458 5.00667
779 1 5.93644 8.07623 3.26084
780 1 1.24091 5.08505 8.47489
781 1 1.33815 7.46375 8.17216
782 1 1.3634 5.21082 6.34439
783 1 0.240899 6.10022 9.31946
784 1 1.7906 7.67002 5.83675
785 1 7.3629 5.35097 7.97796
786 1 0.527314 3.38618 9.31664
787 1 5.62968 4.15047 3.39516
788 1 0.841521 8.40564 2.79727
789 1 0.726604 2.67211 1.42684
790 1 7.29048 0.201901 4.75138
791 1 1.29752 0.503193 1.89577
792 1 1.61995 8.83203 7.16985
793 1 8.69006 1.31594 4.10322
794 1 0.9269 5.70744 9.03568
795 1 4.18517 1.78904 4.07056
796 1 8.21809 0.825774 5.50591
797 1 7.85741 1.50336 1.57752
798 1 2.28237 6.83432 8.38793
799 1 9.2029 0.559029 2.7664
800 1 0.872452 3.33697 2.19417
801 2 0.291737 2.32018 2.29901
802 2 7.25173 5.44279 3.4834
803 2 6.66869 4.6172 8.5125
804 2 5.71321 8.6553 8.80291
805 2 3.6504 5.24549 5.09657
806 2 6.77371 0.515933 0.0384476
807 2 6.98987 4.62867 2.69273
808 2 0.621027 4.10679 5.99495
809 2 0.366414 7.71085 8.03537
810 2 4.33203 0.448949 0.551008
811 2 5.25044 1.2239 6.3522
812 2 3.13707 7.03026 6.74368
813 2 8.73302 8.80402 6.85952
814 2 0.827152 9.35586 0.155904
815 2 7.95455 8.61581 8.93369
816 2 5.94468 8.61044 6.51385
817 2 5.44849 2.68746 3.9704
818 2 7.03977 3.56736 0.803796
819 2 8.24337 1.6016 8.56508
820 2 1.81518 5.62925 9.14512
821 2 0.350077 0.137402 8.61568
822 2 5.72799 8.79132 1.50049
823 2 8.17262 3.28733 1.8356
824 2 2.99932 4.70835 1.34815
825 2 7.05988 4.86617 4.4597
826 2 8.89339 6.40561 0.307784
827 2 7.39794 8.49325 4.08725
828 2 9.22031 9.27302 7.81914
829 2 0.35233 6.89346 5.85694
830 2 2.36185 6.59071 7.15762
831 2 1.15486 6.50092 0.21824
832 2 8.28793 4.64484 5.41907
833 2 2.70356 7.09116 4.42882
834 2 2.5583 7.68495 2.93502
835 2 9.04499 5.02873 5.82617
836 2 5.64762 4.0447 1.83841
837 2 3.63707 7.63114 7.46174
838 2 4.94022 9.27577 9.3216
839 2 2.998 8.16737 9.38707
840 2 4.83454 3.38513 4.6334
841 2 5.11458 2.6977 0.69918
842 2 9.19035 3.09848 4.97366
843 2 2.42881 3.91703 6.35724
844 2 7.6414 3.15975 6.73149
845 2 8.15179 5.03899 1.2623
846 2 1.98818 1.23423 8.80781
847 2 2.52732 9.11957 7.05198
848 2 2.23562 8.19024 6.55274
849 2 5.72855 3.44303 2.67444
850 2 5.96543 3.7387 4.03801
851 2 7.31124 3.93808 4.34452
852 2 5.21326 9.2453 6.3422
853 2 6.23352 7.01438 1.59945
854 2 7.98753 8.48763 6.21562
855 2 8.32034 1.33011 0.733626
856 2 1.69897 4.13274 8.83346
857 2 5.91452 9.00291 5.61702
858 2 8.9066 2.62134 1.87737
859 2 4.43355 2.51476 4.63881
860 2 3.26866 6.45739 8.07386
861 2 1.93211 5.81432 4.39001
862 2 6.27707 1.9676 8.363
863 2 2.72416 0.582605 2.52782
864 2 2.77394 4.69837 6.84095
865 2 0.300133 7.88233 0.536186
866 2 1.63189 2.57748 1.86822
867 2 0.651218 3.21424 6.04306
868 2 4.1098 5.72151 1.07804
869 2 8.8483 4.21132 8.03659
870 2 0.444172 4.09254 7.07537
871 2 4.50207 7.85365 5.78245
872 2 8.73482 1.35384 4.97726
873 2 0.29642 1.71935 4.35908
874 2 3.72234 9.13028 0.883919
875 2 8.10965 5.01574 8.43678
876 2 8.07219 0.630802 1.26348
877 2 3.71629 0.222681 3.8806
878 2 7.57525 7.68026 5.73015
879 2 9.11204 3.14924 8.96743
880 2 4.33794 5.87485 3.56043
881 2 0.344035 6.47415 7.25389
882 2 9.10879 2.24761 1.07332
883 2 7.85828 0.644674 2.26076
884 2 8.28007 2.40608 0.359892
885 2 1.59927 4.37277 5.40559
886 2 9.0237 8.22191 2.69206
887 2 1.30547 5.74098 4.95048
888 2 1.85208 1.82113 5.25159
889 2 0.851627 7.48087 1.51142
890 2 7.18653 2.53451 3.84111
891 2 5.07802 1.82052 5.77835
892 2 5.18088 0.625421 4.56825
893 2 2.92164 8.77093 1.92707
894 2 4.04922 2.80262 3.91567
895 2 7.94962 7.50926 4.36097
896 2 2.6391 6.81987 3.07265
897 2 8.43639 6.45137 8.11257
898 2 1.5078 1.56614 6.17043
899 2 0.134879 1.47794 2.78225
900 2 9.36858 8.8731 6.26348
901 2 3.62911 4.33448 1.89659
902 2 5.77316 9.33654 2.33793
903 2 4.85534 4.44591 3.77322
904 2 4.61617 8.6247 6.34484
905 2 1.24481 9.05176 4.27231
906 2 9.29924 5.65167 6.61281
907 2 2.70954 2.99771 6.81343
908 2 2.36801 5.38412 1.15482
909 2 4.18121 5.86479 5.74933
910 2 6.76685 7.64415 2.30168
911 2 6.21927 1.08527 8.86723
912 2 9.22305 3.36002 1.38558
913 2 6.88101 2.23181 1.44082
914 2 1.9148 7.2016 1.78664
915 2 4.98497 2.31928 9.3085
916 2 0.222717 7.8821 5.26441
917 2 7.45303 2.90208 1.41036
918 2 5.37396 1.37207 2.731
919 2 4.66332 7.18819 9.27072
920 2 2.17535 6.09554 7.94562
921 2 7.63479 5.63928 5.12068
922 2 3.72351 7.63466 4.30562
923 2 7.06436 7.84076 0.90721
924 2 0.877583 2.23711 6.6601
925 2 8.00668 7.81673 1.37617
926 2 2.60522 7.8541 5.70445
927 2 3.93658 8.82496 7.82249
928 2 5.1365 6.97454 1.7556
929 2 0.811583 0.585342 4.58157
930 2 5.13241 5.59609 3.74312
931 2 0.249959 2.39355 6.04407
932 2 8.1903 7.46094 8.32564
933 2 3.63642 4.36922 0.707816
934 2 9.20424 0.659925 4.38626
935 2 6.76942 0.469778 8.34399
936 2 3.82752 4.45547 6.88761
937 2 8.77254 8.2388 1.68617
938 2 8.96977 8.62454 3.83189
939 2 9.3849 6.63394 8.02085
940 2 0.312987 1.31719 9.0717
941 2 0.16141 4.33904 1.81382
942 2 5.29917 2.73832 7.6439
943 2 9.03925 1.82194 7.46272
944 2 7.22502 4.06377 1.59815
945 2 0.764243 1.02105 1.13472
946 2 1.71169 3.71046 1.91629
947 2 7.02088 3.97565 6.34114
948 2 7.4389 1.36722 7.15749
949 2 8.76808 3.6741 0.199565
950 2 6.61708 4.61024 5.75292
951 2 5.39894 8.17909 4.03853
952 2 1.207 7.57742 0.534065
953 2 7.85616 8.41764 8.01756
954 2 3.54523 6.3899 3.29524
955 2 4.60509 5.13612 4.29221
956 2 0.656792 1.83912 0.407718
957 2 0.237693 5.38564 3.47004
958 2 2.22025 1.19172 6.96701
959 2 7.70938 1.23755 4.8104
960 2 0.394647 4.81596 6.53108
961 2 4.19318 3.05047 5.60948
962 2 0.741343 8.13825 3.65694
963 2 8.16427 8.06703 3.49613
964 2 8.94698 2.93379 6.07124
965 2 1.83142 1.9336 2.44575
966 2 5.47382 0.713328 7.2243
967 2 1.58399 3.78916 0.349543
968 2 9.20948 7.83795 3.49863
969 2 4.56143 7.50209 2.36868
970 2 9.31666 5.88909 5.64261
971 2 2.75666 1.06682 1.26898
972 2 4.37107 9.00943 5.46852
973 2 1.80358 0.248826 7.05683
974 2 0.917587 0.824828 0.223066
975 2 7.63138 4.30215 0.823224
976 2 5.40657 1.81063 4.94238
977 2 5.3227 1.70958 7.63634
978 2 2.20245 4.76247 6.01912
979 2 7.45597 6.40563 6.02547
980 2 7.53916 9.39161 6.79392
981 2 2.79728 6.10733 9.04059
982 2 2.81911 3.82719 7.25288
983 2 1.42786 4.2258 6.5565
984 2 0.119281 4.28864 0.308973
985 2 2.30383 6.485 6.10274
986 2 3.70398 2.63834 8.26488
987 2 4.32829 1.63965 8.08816
988 2 2.71103 8.27363 8.53884
989 2 4.56719 6.7362 3.38928
990 2 2.44637 1.55589 7.92723
991 2 6.48763 3.15115 4.4301
992 2 8.2387 2.24029 1.27336
993 2 6.79275 2.9713 6.31724
994 2 1.77154 8.31409 4.25943
995 2 4.18327 2.09125 1.89105
996 2 0.671284 6.34296 3.02788
997 2 5.41128 5.6683 6.75234
998 2 3.44092 7.39165 8.52666
999 2 3.7323 8.18486 8.55545