#bin. KALJ data file T=0.5

1000 atoms
2 atom types

0 9.4 xlo xhi
0 9.4 ylo yhi
0 9.4 zlo zhi

Masses

1 1.0
2 1.0

Atoms

1 1 8.09094 5.82439 0.633809
2 1 8.92958 4.17919 7.31393
3 1 7.40506 3.55464 7.26568
4 1 3.92144 1.69836 7.53882
5 1 8.89836 0.983833 0.495138
6 1 1.77068 6.27731 1.18485
7 1 0.571817 2.07338 0.499233
8 1 2.55803 6.8631 0.653974
9 1 8.75941 2.50328 8.00988
10 1 3.41446 1.8067 2.12041
11 1 4.82148 5.1665 0.579781
12 1 3.02716 5.76217 6.33818
13 1 4.32481 0.504559 2.40515
14 1 7.62684 2.12305 8.80172
15 1 2.65128 7.75802 6.90097
16 1 2.56238 7.61878 3.87071
17 1 3.68825 2.34653 8.77585
18 1 7.81957 2.50943 4.3907
19 1 3.50503 1.09665 3.681
20 1 5.76001 5.71423 1.92751
21 1 0.0724834 7.9723 0.529215
22 1 4.4041 4.97074 7.56162
23 1 0.498772 3.39828 0.30561
24 1 6.08859 0.681638 6.41437
25 1 5.80726 0.889729 8.24606
26 1 9.11124 1.21568 2.20689
27 1 0.464241 2.92211 8.24027
28 1 6.79755 4.78639 3.03042
29 1 2.89577 4.65525 1.09473
30 1 4.43428 7.14377 0.711037
31 1 1.07656 3.20794 1.83747
32 1 4.0188 9.02316 7.84153
33 1 8.69665 7.19945 7.65978
34 1 7.49042 5.26917 2.06669
35 1 3.9894 2.75196 5.2525
36 1 5.32862 4.78524 4.13187
37 1 4.35044 9.11028 3.14691
38 1 7.82185 1.22743 0.76525
39 1 1.57536 2.0476 0.876735
40 1 8.39956 4.40537 0.850318
41 1 9.24957 8.18342 7.20686
42 1 2.88246 8.43699 8.68715
43 1 3.68403 9.39561 3.68611
44 1 5.40134 6.22723 6.79434
45 1 7.74198 0.559903 0.134702
46 1 2.16223 3.60231 3.63111
47 1 7.97274 7.09482 1.44628
48 1 3.27956 4.01118 7.95654
49 1 1.13019 3.51533 7.76449
50 1 3.90359 5.92845 7.61059
51 1 6.19161 2.92069 8.08484
52 1 6.7314 4.35217 2.19704
53 1 6.37576 2.67659 0.645222
54 1 5.14122 0.32865 2.96645
55 1 2.63073 3.53938 1.00891
56 1 6.69201 5.85994 9.22488
57 1 5.01034 0.93829 8.92463
58 1 4.69698 4.04748 3.25124
59 1 4.79433 5.89488 7.35935
60 1 7.119 4.26788 4.48643
61 1 7.63025 6.03843 6.13795
62 1 0.852821 0.310674 0.658761
63 1 6.90094 5.43698 8.26438
64 1 8.94597 3.18756 2.02579
65 1 3.62623 7.41972 7.20501
66 1 9.06411 6.79144 1.43477
67 1 4.94142 0.188025 4.5013
68 1 7.00674 3.35054 0.575589
69 1 7.62273 0.86275 5.25157
70 1 5.86844 1.80363 0.532331
71 1 3.20103 6.7836 6.19587
72 1 1.28015 4.1138 9.35069
73 1 8.84235 1.36392 5.52849
74 1 7.12376 4.76262 0.819865
75 1 7.0766 5.23437 3.86967
76 1 0.405005 5.78948 8.52862
77 1 0.650995 7.16433 3.60187
78 1 0.836598 5.66623 3.81174
79 1 5.95905 4.86761 2.35212
80 1 7.37443 3.54983 5.3474
81 1 0.235495 0.381332 1.99317
82 1 5.58193 0.829622 4.69166
83 1 2.88101 3.94913 1.7688
84 1 3.35845 0.164121 0.670051
85 1 3.0204 3.02541 7.09684
86 1 4.70141 6.99596 3.78507
87 1 9.04629 6.20688 7.19912
88 1 2.34826 7.04979 4.81955
89 1 5.12199 2.7558 4.06974
90 1 6.88084 5.65579 5.79243
91 1 8.66566 4.21279 8.94699
92 1 5.7175 3.97687 2.67676
93 1 8.8933 2.74607 3.22678
94 1 6.05848 7.92297 8.00441
95 1 1.81093 8.0144 1.11353
96 1 7.36733 9.33127 0.788969
97 1 3.864 6.53533 2.45039
98 1 6.3679 8.73215 0.981894
99 1 0.092007 4.22774 8.56707
100 1 7.19668 8.24496 2.29166
101 1 0.960593 8.69301 8.3679
102 1 2.82925 0.260877 3.25568
103 1 2.84812 7.64196 1.12355
104 1 6.67899 7.56744 6.71005
105 1 1.64278 8.19886 2.26573
106 1 1.82348 8.98395 8.87761
107 1 4.92288 7.88965 2.21709
108 1 7.97275 8.73793 6.16933
109 1 4.42116 4.8995 9.19356
110 1 0.870466 6.89697 8.62357
111 1 3.09864 2.68337 4.80443
112 1 6.24684 8.71465 7.65677
113 1 8.48419 0.193426 6.88374
114 1 7.57256 3.48974 4.18193
115 1 6.83878 5.34529 7.37465
116 1 3.21799 1.18613 7.70385
117 1 1.15621 4.839 4.60985
118 1 8.81464 4.29678 2.02043
119 1 8.32851 0.794007 6.07321
120 1 7.0339 3.27695 2.40181
121 1 2.02858 2.44727 2.82986
122 1 5.72023 7.451 7.11696
123 1 3.20115 5.26885 1.8885
124 1 2.17699 2.75184 0.566189
125 1 8.33238 3.74352 1.52634
126 1 1.1251 6.99932 7.65919
127 1 3.25144 1.21795 1.0946
128 1 1.16918 0.930221 4.08457
129 1 4.30625 1.2812 9.37899
130 1 7.86937 8.17774 0.589885
131 1 1.82058 3.29881 2.55106
132 1 6.64135 1.88337 1.08721
133 1 9.18751 2.62683 0.269069
134 1 0.0797281 5.59301 0.00775835
135 1 1.6601 1.3493 6.5021
136 1 8.11458 4.06675 7.62597
137 1 4.25609 3.01089 3.12572
138 1 6.7423 6.36282 5.03088
139 1 8.03491 5.70336 7.12803
140 1 8.58319 6.78708 8.55855
141 1 2.65092 2.14266 1.43743
142 1 3.54442 6.67769 9.01771
143 1 7.47644 0.757727 2.36762
144 1 3.92849 7.43928 3.43944
145 1 4.79038 7.9231 6.53717
146 1 8.5941 4.59129 4.17676
147 1 0.933989 6.49021 2.87949
148 1 1.60212 8.10131 3.66819
149 1 6.25166 8.1071 8.98826
150 1 1.86232 6.58571 2.41977
151 1 5.14583 6.7745 1.18275
152 1 7.23948 4.00763 6.19148
153 1 1.31183 1.84172 7.75863
154 1 0.664728 6.87233 6.22487
155 1 6.2949 4.55128 8.52052
156 1 4.04852 0.677872 8.20349
157 1 4.61049 3.70264 6.38995
158 1 2.12743 4.75215 0.34767
159 1 4.62086 0.351094 6.66167
160 1 6.52752 9.11402 0.0835273
161 1 5.69325 2.99284 0.227728
162 1 0.395555 5.41362 6.78907
163 1 7.56841 2.58614 2.92468
164 1 5.60878 2.10582 2.22935
165 1 8.51104 1.97621 5.99556
166 1 4.37074 7.733 4.22591
167 1 8.61904 -0.0043374 5.98425
168 1 5.71718 7.4063 2.83488
169 1 8.60129 5.38114 4.77695
170 1 5.9991 6.38472 1.35456
171 1 0.763565 7.86744 8.07708
172 1 8.48069 2.40234 9.0621
173 1 6.72371 4.64331 6.29037
174 1 9.30704 7.74359 8.02335
175 1 1.08538 3.76764 0.975667
176 1 2.42397 8.69696 7.97396
177 1 4.8125 1.12748 4.1883
178 1 9.25473 2.24325 2.1451
179 1 8.33455 6.19926 9.22453
180 1 4.67891 3.38072 0.365799
181 1 8.73262 1.15467 8.68725
182 1 6.48796 3.07813 6.62021
183 1 3.98911 2.39519 6.89579
184 1 2.99691 4.78648 4.53863
185 1 6.19697 3.822 0.825321
186 1 3.636 7.15052 1.40337
187 1 7.85081 1.70052 5.11878
188 1 4.90503 2.95728 5.40714
189 1 5.96626 9.27051 2.54252
190 1 3.919 0.215795 6.07874
191 1 7.54916 2.9878 9.25691
192 1 7.62874 0.228083 7.59402
193 1 3.22111 8.87011 7.31535
194 1 4.80038 4.22821 2.37371
195 1 7.41607 6.59587 3.43525
196 1 0.494445 1.30133 5.78825
197 1 5.64305 5.09833 6.221
198 1 4.72586 8.47152 4.10114
199 1 5.59319 4.8788 1.53847
200 1 6.91455 0.0511416 5.65519
201 1 8.6369 0.681979 7.70966
202 1 2.13801 9.27608 2.86854
203 1 3.66519 8.1908 6.66848
204 1 0.171047 7.42834 9.09853
205 1 2.64523 0.959068 3.83303
206 1 5.07501 6.56392 4.46196
207 1 9.15053 5.9312 0.767955
208 1 6.85391 7.89046 4.76263
209 1 4.78586 7.05106 6.08809
210 1 7.71292 7.15858 7.76666
211 1 5.54785 0.772321 2.3199
212 1 5.34669 9.35504 6.21874
213 1 6.81617 5.96878 6.67395
214 1 3.0462 4.61423 2.55513
215 1 3.15065 1.05604 8.63188
216 1 3.32634 7.6135 2.41152
217 1 6.60351 1.7887 7.45458
218 1 3.63605 7.11035 4.21959
219 1 2.68998 1.66214 6.01534
220 1 3.71955 1.92614 6.1608
221 1 6.02518 8.32127 2.68699
222 1 5.79399 3.30253 8.82352
223 1 3.62144 4.53093 9.03791
224 1 2.38808 0.220433 5.32833
225 1 6.22894 8.97716 5.99837
226 1 0.0740035 0.904887 7.31792
227 1 1.90671 9.11627 3.84431
228 1 2.7567 6.84396 8.3629
229 1 7.76576 3.11242 2.01554
230 1 7.80351 7.67183 6.90633
231 1 3.15198 9.16696 8.20454
232 1 4.48015 2.84725 8.95088
233 1 1.37785 8.79911 1.13189
234 1 8.51906 8.06515 4.61764
235 1 8.89719 5.14858 1.55474
236 1 8.663 8.6612 0.571724
237 1 1.84271 0.39701 1.30361
238 1 0.871558 7.94455 9.01294
239 1 0.482231 4.06383 3.15418
240 1 1.25696 4.71606 0.617652
241 1 9.31862 1.2882 4.79715
242 1 0.591656 4.87585 8.77401
243 1 2.58724 3.03173 1.84485
244 1 5.46491 8.8246 0.915377
245 1 2.24545 4.76695 1.96469
246 1 0.637446 8.64418 7.28805
247 1 9.22356 2.84113 8.79312
248 1 4.64279 1.6731 6.82837
249 1 7.26202 4.84101 8.85322
250 1 3.92186 7.40711 6.26264
251 1 4.86111 9.1106 7.40707
252 1 0.0339687 3.96105 4.5652
253 1 3.06531 1.14304 4.60183
254 1 3.69761 3.48153 1.66914
255 1 3.73333 8.50097 0.250149
256 1 8.76103 4.34464 6.15245
257 1 5.36579 8.20892 5.82739
258 1 1.80002 4.86509 8.91317
259 1 6.60615 0.479904 2.06011
260 1 1.18928 4.85743 3.54896
261 1 2.51565 4.40034 6.5755
262 1 6.68432 1.35767 2.04645
263 1 3.6567 8.89152 4.38953
264 1 9.38216 7.06839 4.64149
265 1 4.35181 5.79056 2.84107
266 1 7.6554 4.3457 3.7571
267 1 9.25524 3.76791 1.30945
268 1 5.00459 9.26449 2.1985
269 1 1.54288 4.42241 8.12221
270 1 7.60223 5.67026 9.13933
271 1 4.84609 4.26707 0.471018
272 1 4.85823 8.11206 0.432389
273 1 5.47317 5.88546 0.665025
274 1 3.9344 4.38348 0.512926
275 1 5.93654 2.39314 1.33609
276 1 8.45235 6.94866 5.01666
277 1 0.556011 8.94269 4.72581
278 1 0.957243 0.426571 5.97678
279 1 3.09423 2.81535 0.0273241
280 1 3.77553 7.79368 0.707613
281 1 6.47621 0.411065 4.73702
282 1 2.13773 7.7664 0.252363
283 1 8.57782 0.720683 5.07431
284 1 0.730083 4.03257 6.99213
285 1 2.78711 9.27704 1.97971
286 1 1.53093 2.65183 6.01544
287 1 7.76864 0.379652 1.50766
288 1 2.48061 5.82339 1.69901
289 1 1.69332 8.30437 5.93275
290 1 5.63373 3.50593 7.64705
291 1 5.38726 8.73034 9.36942
292 1 3.39073 1.18608 5.85495
293 1 4.46544 6.46758 8.03152
294 1 3.37805 8.23437 1.61179
295 1 6.06462 0.393045 8.93004
296 1 1.72186 0.161084 6.95914
297 1 6.82447 6.09597 1.96909
298 1 9.34507 5.42897 5.88056
299 1 6.45562 7.26508 8.466
300 1 5.96084 1.96953 8.93009
301 1 0.301256 2.53523 6.6611
302 1 1.04863 5.17183 7.75359
303 1 9.39488 0.995106 3.20955
304 1 1.0817 7.73439 1.74941
305 1 1.51103 7.02683 5.7987
306 1 6.53955 3.79724 5.34031
307 1 4.44782 2.64688 1.25076
308 1 2.90113 3.96815 4.08499
309 1 8.57503 3.11397 0.694936
310 1 7.1165 9.23079 1.68843
311 1 9.05 3.56146 6.45687
312 1 1.92722 1.3937 8.2846
313 1 1.6679 5.60603 3.19564
314 1 6.47355 4.06313 3.70376
315 1 4.71176 3.38044 7.74682
316 1 4.87054 1.8493 1.3519
317 1 3.57427 6.74988 7.81691
318 1 0.25114 0.60615 6.52789
319 1 9.4339 5.10746 3.49939
320 1 5.70985 8.4064 3.95926
321 1 8.99385 2.57664 4.06483
322 1 5.96051 6.24466 7.98032
323 1 3.11059 3.62534 3.17099
324 1 5.00322 2.15238 9.09998
325 1 1.74677 2.69192 7.69102
326 1 0.520734 6.16399 7.58987
327 1 7.33641 6.45727 1.38802
328 1 0.701626 8.34862 6.38848
329 1 3.92093 4.16891 5.78233
330 1 6.69271 2.08412 8.35991
331 1 0.835026 6.28529 0.402298
332 1 5.00851 2.23043 2.95152
333 1 3.76167 9.27531 1.34617
334 1 3.93384 -0.0160678 8.96335
335 1 3.00009 4.33581 5.53062
336 1 3.71815 1.9219 4.37102
337 1 4.36414 1.10432 5.86164
338 1 5.01357 8.52915 1.5544
339 1 5.705 3.50816 4.74085
340 1 5.01466 5.24516 2.26569
341 1 5.81758 8.14198 0.429907
342 1 2.32042 5.64441 9.25667
343 1 8.18269 8.02908 7.61264
344 1 4.85681 5.62891 1.51244
345 1 8.76328 1.7242 3.30659
346 1 6.35242 9.12791 8.51296
347 1 5.13741 6.8274 2.9622
348 1 6.98795 2.62222 7.49259
349 1 0.822155 5.92713 5.85238
350 1 3.24099 5.73423 8.8114
351 1 1.75718 9.15276 1.959
352 1 4.93827 3.62634 8.98832
353 1 0.181716 7.15978 7.26033
354 1 0.0779909 2.15096 4.96781
355 1 7.866 5.19993 1.27048
356 1 9.17274 0.832028 1.42653
357 1 4.96946 1.56625 8.35586
358 1 1.86659 8.94889 5.04486
359 1 9.16538 3.71555 5.44931
360 1 5.99606 2.64514 4.19945
361 1 6.63659 5.26483 1.7239
362 1 8.98239 2.83914 5.8657
363 1 7.23904 9.31339 4.82114
364 1 0.938803 8.09332 0.60116
365 1 0.189968 3.0589 2.67968
366 1 4.65832 2.01352 4.73178
367 1 4.3624 6.48116 1.39719
368 1 7.79208 4.78197 0.199045
369 1 1.43633 3.05874 6.83809
370 1 2.03591 6.13023 7.38955
371 1 0.831208 4.06309 4.10055
372 1 6.94115 2.13033 6.69903
373 1 4.50612 3.28843 2.09487
374 1 3.59472 3.14477 0.718394
375 1 0.240962 7.39112 2.75721
376 1 2.54455 3.06847 4.22956
377 1 0.179949 6.56315 9.15231
378 1 5.41369 4.71331 8.79908
379 1 7.30655 8.32688 3.20243
380 1 8.84199 5.80255 8.37728
381 1 9.4264 1.97795 5.94453
382 1 8.35865 7.80612 5.77224
383 1 7.38466 5.18179 6.58822
384 1 5.49994 9.38392 8.03677
385 1 6.87795 8.6799 4.17041
386 1 3.9731 3.51865 9.33328
387 1 4.81285 4.02694 4.10823
388 1 5.96371 6.46371 8.84265
389 1 7.34754 7.72069 6.0235
390 1 8.0575 3.5133 6.29183
391 1 7.26322 7.64566 9.02315
392 1 4.44162 9.00629 5.06429
393 1 7.79076 4.50318 1.9902
394 1 1.2011 8.91187 3.1313
395 1 4.91447 0.0207346 9.23109
396 1 1.95502 2.09484 4.84554
397 1 3.8743 3.32593 8.34761
398 1 4.35865 2.40537 2.3652
399 1 3.32271 5.02357 0.382357
400 1 2.47645 6.34411 6.49294
401 1 9.04414 7.0379 5.72798
402 1 1.5714 5.75684 1.97714
403 1 7.23625 0.96105 4.42643
404 1 5.15827 8.61056 2.92217
405 1 1.04209 2.14657 5.31149
406 1 6.98897 0.379216 8.74397
407 1 8.4489 6.85591 6.88317
408 1 1.08427 2.76735 2.74384
409 1 1.51763 8.1542 4.97881
410 1 0.759355 7.67536 5.84541
411 1 3.97181 5.88028 6.0206
412 1 0.222754 5.14153 0.906101
413 1 7.18388 3.90006 1.43867
414 1 6.22336 8.05199 5.59977
415 1 2.37202 2.57086 6.52948
416 1 1.00974 1.00486 9.2236
417 1 3.11187 3.50514 5.402
418 1 4.33144 3.58376 4.77029
419 1 2.74535 0.879288 6.89293
420 1 9.34841 3.38935 3.95276
421 1 7.32382 8.52465 1.22548
422 1 2.34676 8.66702 6.87632
423 1 4.72239 6.3967 2.32621
424 1 0.782653 3.65015 8.61706
425 1 7.3065 2.8111 8.30636
426 1 5.40069 2.89309 1.86243
427 1 3.30443 7.94548 5.70937
428 1 9.06506 6.05689 1.92696
429 1 9.16769 3.93271 2.73207
430 1 7.59118 0.274626 6.6113
431 1 4.40218 2.05497 3.74207
432 1 4.03403 1.5119 8.44252
433 1 9.20906 4.25201 3.64345
434 1 2.08384 4.69096 4.53417
435 1 2.74654 4.73405 9.00652
436 1 7.3396 7.186 2.22426
437 1 4.11928 8.20368 2.6724
438 1 1.66253 5.26605 5.46558
439 1 0.360918 8.12589 2.34984
440 1 5.34787 4.21824 5.99834
441 1 7.68634 6.6769 8.59147
442 1 4.32693 7.22288 5.08069
443 1 2.323 5.39011 6.66038
444 1 4.32085 9.11396 0.427929
445 1 3.08105 4.1766 0.404659
446 1 4.16256 2.80127 4.28116
447 1 4.33588 1.34402 3.01788
448 1 0.307497 1.12923 0.775708
449 1 2.60048 1.78749 0.0861731
450 1 3.07237 1.28437 2.83004
451 1 8.63153 8.57973 8.51343
452 1 0.446704 4.42007 1.55973
453 1 1.35925 2.65621 8.52561
454 1 7.88775 1.49002 6.35542
455 1 7.47805 8.00471 3.96387
456 1 3.882 6.6639 5.53158
457 1 3.07836 4.44438 7.23288
458 1 3.20244 1.84816 6.91767
459 1 7.62061 6.51924 4.71609
460 1 2.36319 6.74433 5.67144
461 1 5.06121 8.12054 4.94139
462 1 3.46758 5.91853 5.1675
463 1 6.72682 8.10775 0.301695
464 1 2.81687 0.238059 4.4105
465 1 5.65505 3.93434 0.0794621
466 1 5.24157 9.11684 3.76061
467 1 6.3159 3.18371 3.31299
468 1 3.788 3.79521 2.43707
469 1 4.92091 6.74517 8.87436
470 1 8.60612 1.90987 4.60196
471 1 6.45323 8.61414 1.97839
472 1 1.95701 4.0682 1.16015
473 1 0.172329 4.4923 6.40914
474 1 6.91826 2.24375 9.20944
475 1 4.51033 3.67116 1.21009
476 1 8.14304 1.43838 9.31534
477 1 6.32797 5.17655 4.62828
478 1 9.27615 7.99983 5.48971
479 1 7.48231 1.17121 8.76092
480 1 7.94297 3.34919 8.09689
481 1 2.29948 4.87436 8.05519
482 1 1.21112 3.57823 3.40962
483 1 6.37038 7.21068 9.37233
484 1 0.296123 9.00431 2.75892
485 1 2.62311 8.56684 5.87951
486 1 2.71159 6.46707 9.22457
487 1 5.24073 5.44308 8.15929
488 1 8.93121 9.25646 1.34335
489 1 1.84259 8.5946 0.269564
490 1 9.01856 0.255605 2.82966
491 1 2.0966 7.42248 1.7044
492 1 6.86657 0.334009 3.8493
493 1 6.3755 6.13092 3.41799
494 1 6.97545 5.65344 0.612027
495 1 0.0745431 8.97978 3.73951
496 1 2.0314 7.08585 7.68884
497 1 0.901183 0.912107 2.91837
498 1 3.91357 0.761145 4.67837
499 1 8.28624 3.76836 2.49851
500 1 0.731244 3.83981 5.94012
501 1 8.82891 7.84659 2.48726
502 1 0.419399 2.16231 2.88199
503 1 9.22877 0.0559392 5.30173
504 1 1.04935 1.41069 1.41407
505 1 3.86954 4.73347 3.27869
506 1 7.66663 5.86254 3.95076
507 1 8.04224 0.329745 8.47409
508 1 8.78203 2.318 6.88563
509 1 4.80572 4.87186 5.643
510 1 5.76641 9.25903 7.12954
511 1 8.33514 0.286115 0.848273
512 1 4.21637 6.01364 9.11844
513 1 5.5917 4.29513 7.1055
514 1 7.54536 0.93224 3.26674
515 1 9.02808 8.46503 1.65984
516 1 7.88903 5.6652 8.17258
517 1 1.70367 7.93891 6.91935
518 1 2.62682 5.9355 8.18142
519 1 4.00111 4.66132 2.13994
520 1 8.48713 3.44669 4.31581
521 1 5.20985 5.6267 9.23677
522 1 1.10601 1.64708 3.47377
523 1 5.8636 6.37029 4.97745
524 1 2.10213 1.23571 7.38723
525 1 6.4304 5.64874 2.65816
526 1 6.78555 0.59163 0.28369
527 1 4.17704 2.39659 0.256858
528 1 5.80284 0.756285 1.04183
529 1 1.88737 7.02995 6.70512
530 1 6.36384 1.13072 4.27055
531 1 9.22824 6.54627 2.76193
532 1 8.05773 0.128453 5.36354
533 1 8.48914 1.44755 1.42986
534 1 3.0593 7.102 3.25944
535 1 8.3466 5.27881 5.92462
536 1 3.87946 1.14701 6.71703
537 1 9.19118 8.39889 3.13541
538 1 0.860285 7.62765 6.94671
539 1 3.18122 5.35568 7.41722
540 1 1.75053 3.9475 4.28658
541 1 5.99169 0.558502 5.54677
542 1 1.91755 4.78767 7.20727
543 1 4.61764 4.81608 4.75854
544 1 8.51425 3.34959 9.19519
545 1 3.1119 0.112097 6.44319
546 1 2.38335 8.40363 1.64705
547 1 7.36711 1.15157 7.01152
548 1 3.50726 6.21406 1.60766
549 1 2.64053 2.03416 8.57572
550 1 2.42912 4.09428 8.33363
551 1 1.53866 2.97928 4.03568
552 1 4.76509 0.444206 5.46442
553 1 7.98601 0.0370734 3.00383
554 1 2.02309 4.47369 3.55124
555 1 5.09876 7.66023 1.22137
556 1 6.64767 3.65296 8.41553
557 1 3.68711 7.99158 4.86035
558 1 2.94038 4.79937 3.5055
559 1 4.59199 4.67387 1.37866
560 1 7.53545 2.05509 3.59102
561 1 9.18156 1.7456 0.0105842
562 1 8.63631 6.28821 3.56537
563 1 3.58892 0.488154 3.02768
564 1 8.03364 4.47659 6.82257
565 1 5.02717 6.26017 5.27226
566 1 4.63479 5.01799 3.59947
567 1 9.21487 8.62308 9.1487
568 1 3.82709 8.37974 8.44719
569 1 2.50163 0.871366 9.35822
570 1 5.96674 7.80156 4.73421
571 1 7.35884 6.44817 0.122544
572 1 4.67628 6.94853 7.00771
573 1 1.80425 3.22984 1.36799
574 1 6.68848 3.20908 1.41555
575 1 8.51488 4.55248 3.13788
576 1 7.74634 5.03593 3.20126
577 1 6.7226 1.32815 5.31007
578 1 3.75762 8.44726 3.53393
579 1 4.14582 6.42313 4.6499
580 1 0.148412 4.78502 2.594
581 1 6.11552 1.47862 3.00128
582 1 7.41913 1.7747 7.91469
583 1 1.804 1.79815 5.72719
584 1 9.09466 4.97271 8.45823
585 1 0.899541 8.87478 9.34896
586 1 1.16589 4.70969 6.40867
587 1 0.223444 1.64951 3.87646
588 1 6.36918 2.87106 5.26057
589 1 5.03884 4.11204 5.00574
590 1 8.29378 2.23524 0.645223
591 1 2.4446 1.64432 4.2277
592 1 7.02964 8.42848 6.48701
593 1 4.74064 7.68413 3.32782
594 1 3.33065 0.371973 5.41156
595 1 5.72315 4.74031 0.689956
596 1 0.049206 6.85377 8.13411
597 1 3.38305 5.0979 5.37773
598 1 3.8074 5.96074 0.67086
599 1 7.17024 2.70306 4.931
600 1 1.15556 2.85557 0.828671
601 1 5.62358 3.71643 3.68481
602 1 5.88167 9.29714 4.35392
603 1 0.625613 1.21515 2.12983
604 1 2.5765 2.91592 7.86482
605 1 9.2979 5.76729 4.31397
606 1 7.80994 9.09182 9.19755
607 1 4.32982 7.30159 8.20851
608 1 2.33754 3.7441 4.91799
609 1 7.24374 7.1591 4.31119
610 1 4.88057 2.67388 7.09841
611 1 5.19268 1.27785 3.34593
612 1 9.31975 1.81904 8.562
613 1 7.10971 4.47915 8.10652
614 1 6.5439 2.23904 2.57243
615 1 2.75339 6.64875 4.07123
616 1 5.49576 7.08445 8.04437
617 1 0.57436 6.28947 1.26723
618 1 8.0954 6.05063 2.79653
619 1 4.7154 0.0946931 8.34928
620 1 7.19418 5.81007 3.09545
621 1 0.770196 8.11778 3.26932
622 1 8.44261 6.97014 2.81957
623 1 3.81213 6.49249 6.87644
624 1 4.98235 5.58956 4.40339
625 1 0.726227 2.4028 3.79226
626 1 9.19579 8.64347 6.38953
627 1 2.34447 7.50963 8.89302
628 1 6.21575 2.4468 6.00952
629 1 8.59334 5.06843 7.69618
630 1 7.90585 9.15261 2.20051
631 1 0.211397 6.28533 3.55818
632 1 0.963026 9.29115 3.87693
633 1 6.36354 7.08819 1.70001
634 1 9.29305 9.23348 7.24142
635 1 7.36699 9.08561 3.61976
636 1 8.44704 9.11023 7.74449
637 1 5.42272 2.2249 5.08657
638 1 2.95125 1.96528 3.49462
639 1 8.50117 2.442 1.50175
640 1 8.13606 1.66444 7.19942
641 1 9.36389 7.56779 1.74282
642 1 7.96634 2.53279 7.61403
643 1 2.43778 3.85675 7.33459
644 1 6.15098 1.62933 6.62221
645 1 3.43082 2.8984 3.71077
646 1 0.263762 0.857553 8.34979
647 1 8.1962 6.15114 1.62949
648 1 1.59163 2.30686 1.828
649 1 1.3392 7.25228 9.36272
650 1 8.7003 7.92005 9.18614
651 1 5.59054 8.56074 8.46678
652 1 8.01904 4.4778 5.59372
653 1 0.996161 3.8833 4.97097
654 1 2.96444 8.64471 2.86409
655 1 4.90807 4.73706 6.65177
656 1 4.01278 1.20965 1.89139
657 1 7.28099 7.39456 0.582047
658 1 6.74924 1.04572 8.10692
659 1 5.50738 7.76283 8.77043
660 1 6.26546 6.9958 4.511
661 1 8.52458 8.92603 3.44839
662 1 0.514896 0.13524 8.00749
663 1 6.9431 4.44264 7.20696
664 1 8.01368 7.97562 1.80797
665 1 1.44086 7.25947 4.81036
666 1 1.12262 7.47317 2.54722
667 1 4.03807 1.74642 0.979785
668 1 3.14175 7.14604 5.204
669 1 8.34856 5.41279 2.21332
670 1 5.31121 3.25793 0.970743
671 1 8.27808 3.6706 5.26499
672 1 2.52452 0.356827 8.52486
673 1 6.20126 8.88646 3.46855
674 1 8.6299 8.68479 5.34718
675 1 8.11473 7.68241 8.57333
676 1 7.6514 1.59517 1.61186
677 1 7.60001 2.73926 0.967696
678 1 5.46555 5.51744 2.96911
679 1 0.698493 4.8142 5.56173
680 1 0.916321 1.69448 8.64402
681 1 8.4893 3.65543 3.32939
682 1 4.38402 5.40582 8.32216
683 1 1.43198 0.429221 5.20806
684 1 2.513 2.95232 8.7783
685 1 0.132307 0.487681 4.00194
686 1 7.63392 3.37622 3.27763
687 1 0.239673 3.79527 7.72857
688 1 1.80227 4.34027 5.34431
689 1 7.29959 5.64149 4.79456
690 1 4.93405 5.88945 3.57493
691 1 7.40395 1.62825 2.6833
692 1 0.988579 2.04815 6.19487
693 1 4.09636 5.59585 1.97237
694 1 7.07775 7.18459 5.22999
695 1 2.06655 5.34817 3.91918
696 1 5.96594 4.63333 5.37529
697 1 4.82977 1.62248 2.22398
698 1 5.02058 1.31696 5.20515
699 1 5.48672 4.62017 3.25025
700 1 0.881815 2.55169 7.40891
701 1 -0.0079306 8.14468 4.03594
702 1 7.77391 8.61042 8.23158
703 1 1.66808 7.89349 7.97313
704 1 1.21865 1.30138 5.20252
705 1 6.54324 0.539646 2.95876
706 1 0.244685 4.82333 4.59303
707 1 3.87349 3.90906 3.82913
708 1 0.139002 8.71518 0.91561
709 1 8.18115 6.71884 0.690135
710 1 5.98563 5.64114 7.18697
711 1 1.83243 5.10563 1.24885
712 1 8.3022 7.2035 4.08161
713 1 1.03403 1.81191 4.40784
714 1 6.75638 7.29215 7.52558
715 1 1.21139 0.840429 7.34647
716 1 8.805 8.91935 2.51284
717 1 7.79323 7.6818 4.82219
718 1 1.27954 6.8232 1.88868
719 1 5.79128 5.81843 4.19789
720 1 2.32766 1.29644 1.30652
721 1 5.88238 1.19655 7.38549
722 1 5.85861 6.49097 2.62813
723 1 3.38705 5.75558 2.56539
724 1 4.29493 2.8662 6.09052
725 1 5.8274 9.37717 1.67098
726 1 7.15124 1.06257 6.05094
727 1 1.57703 3.21083 9.37868
728 1 8.02818 4.75691 8.3687
729 1 8.44958 3.38219 7.22359
730 1 5.25978 3.09823 3.10945
731 1 2.30568 3.74297 9.22254
732 1 9.03205 6.97692 0.487099
733 1 9.3035 9.37158 0.396105
734 1 0.798638 9.2456 6.57543
735 1 2.45557 7.90003 2.35451
736 1 4.31773 4.32758 8.25828
737 1 8.6295 5.28882 9.15186
738 1 8.60245 0.32336 9.27894
739 1 0.552223 8.76853 1.77865
740 1 1.30157 1.70837 2.51804
741 1 1.5246 8.59244 7.48708
742 1 6.54378 1.36623 9.2534
743 1 2.36745 3.96921 2.69727
744 1 5.96667 3.06951 2.45882
745 1 0.481946 7.24191 0.587336
746 1 3.60606 6.30132 3.62461
747 1 5.45726 1.97237 7.35561
748 1 6.04912 2.6615 7.19228
749 1 6.60216 1.84551 3.72009
750 1 2.16249 1.01471 4.92345
751 1 0.571739 6.60442 5.0237
752 1 7.02013 9.0604 2.60941
753 1 0.981277 5.48896 0.0331072
754 1 7.28653 1.76833 0.412827
755 1 4.09063 9.00489 6.90621
756 1 3.75179 4.2818 4.8636
757 1 5.83492 0.597815 3.57476
758 1 9.17491 2.03514 1.05986
759 1 4.76 6.36472 0.33542
760 1 5.87811 8.46542 6.58979
761 1 8.19439 6.4127 7.76747
762 1 3.45303 0.700639 9.32911
763 1 7.79601 4.02109 8.79522
764 1 5.02193 0.805974 7.74725
765 1 1.91059 6.4227 3.52988
766 1 2.75096 7.9277 5.00981
767 1 1.56952 0.909697 0.585373
768 1 5.07884 0.956832 1.59127
769 1 0.339394 5.58954 4.99952
770 1 6.95451 6.80801 6.2435
771 1 3.67761 0.41553 7.36901
772 1 7.56617 6.67516 7.07618
773 1 2.71897 5.96105 3.42925
774 1 5.07142 2.40037 0.580275
775 1 2.41218 2.86448 5.58661
776 1 3.2605 2.72637 5.84988
777 1 7.10261 4.89574 5.35969
778 1 1.68884 7.22367 3.94458
779 1 7.55018 7.45784 3.21041
780 1 6.5358 6.97376 3.66794
781 1 5.90488 2.33671 3.34156
782 1 4.43723 7.41303 9.26745
783 1 8.63819 5.47381 3.09641
784 1 6.51006 3.45635 4.43367
785 1 6.51127 6.39998 0.554179
786 1 5.40434 9.16626 5.22166
787 1 7.61953 4.96138 7.55302
788 1 6.39425 8.80147 5.01209
789 1 2.75368 6.65351 7.32414
790 1 7.92809 1.07819 7.94549
791 1 6.31225 3.8597 6.27171
792 1 8.29176 1.20392 2.7851
793 1 8.69744 5.18303 0.623282
794 1 8.81299 3.59216 8.32551
795 1 1.89867 6.57795 8.55045
796 1 5.2067 0.886057 6.13458
797 1 4.32046 7.22385 2.05059
798 1 4.54398 2.52945 7.97179
799 1 4.09263 3.244 7.11848
800 1 5.14517 4.43378 7.93968
801 2 5.42024 2.51711 8.2698
802 2 1.57654 0.585094 3.36857
803 2 6.50976 0.240541 1.02258
804 2 4.22411 8.72662 1.92917
805 2 5.56492 3.2294 5.85469
806 2 2.95105 8.71672 0.813127
807 2 3.31608 2.94931 2.59724
808 2 8.01137 6.82455 5.83712
809 2 7.80924 2.56514 6.58126
810 2 1.22946 7.09277 1.01814
811 2 0.184327 4.73508 7.52237
812 2 6.95047 2.78832 3.94656
813 2 2.49793 5.63937 2.52373
814 2 8.57273 7.99291 6.67869
815 2 5.77438 6.43383 5.85817
816 2 1.47761 6.37297 5.30508
817 2 5.64873 6.80793 3.8223
818 2 2.41849 7.48235 6.11346
819 2 3.42738 7.49082 8.76075
820 2 6.30743 6.63579 7.20718
821 2 1.84993 6.46919 0.0635847
822 2 4.31365 0.894769 0.943441
823 2 8.05069 0.246948 4.06745
824 2 1.38182 4.32986 2.86191
825 2 0.648504 2.64193 9.17587
826 2 9.06168 3.87254 0.397609
827 2 3.16753 3.68577 8.77553
828 2 0.230332 2.84223 1.18279
829 2 1.47197 5.70421 4.6371
830 2 0.562056 0.718672 4.98079
831 2 3.91188 1.51157 5.11324
832 2 0.027731 3.03076 7.45295
833 2 8.56294 0.566231 2.02481
834 2 0.944745 9.0121 5.54253
835 2 1.9257 1.45008 3.1427
836 2 3.74693 2.06949 3.1397
837 2 1.91861 0.459895 4.2858
838 2 2.73829 7.75871 7.85215
839 2 9.15213 7.03832 3.60591
840 2 6.42421 4.52036 1.35585
841 2 8.1376 8.78082 1.2608
842 2 4.11124 5.63677 4.12139
843 2 1.26974 0.72588 8.2779
844 2 9.1508 4.74546 5.34678
845 2 6.77072 9.17078 6.93572
846 2 4.36245 0.615464 3.66022
847 2 2.12973 8.33572 3.05633
848 2 5.74658 7.30089 6.20497
849 2 7.04404 2.14103 5.68941
850 2 2.64456 5.78606 0.679046
851 2 5.99699 7.35384 0.889877
852 2 8.05739 8.45602 2.72824
853 2 7.30766 2.36261 1.94466
854 2 9.07933 2.89328 4.93695
855 2 0.0443678 8.69668 8.03837
856 2 7.08726 7.94244 8.23429
857 2 6.97496 4.17544 0.118104
858 2 7.19458 8.60853 8.84962
859 2 5.06449 0.914371 0.426478
860 2 7.26912 3.11617 6.08327
861 2 4.55775 2.05903 5.88597
862 2 2.24 6.1382 4.88632
863 2 0.328253 4.44486 0.190207
864 2 5.64441 0.184441 0.366132
865 2 1.27288 3.03392 5.11001
866 2 5.80952 7.94854 1.82428
867 2 5.2008 7.6309 4.17403
868 2 6.75705 7.78685 1.5745
869 2 9.04773 6.17667 5.30128
870 2 0.726531 1.60917 6.91707
871 2 5.62428 1.74825 4.15158
872 2 6.71325 3.04793 9.05474
873 2 6.0279 4.30749 4.40031
874 2 5.89781 1.49473 5.73816
875 2 2.71142 2.78798 3.28888
876 2 2.91474 1.85597 5.15024
877 2 1.61447 3.93759 6.83744
878 2 6.87483 6.57758 2.69511
879 2 6.14369 7.72969 3.77466
880 2 7.08184 8.13548 7.43815
881 2 6.99861 0.94473 1.08335
882 2 8.7896 0.966419 3.8424
883 2 1.31321 6.06724 8.93587
884 2 0.945168 5.33648 2.79974
885 2 3.96807 4.12189 6.92348
886 2 0.0952217 2.09556 7.62541
887 2 2.81681 8.86221 3.99776
888 2 6.23955 5.51512 0.983818
889 2 3.70107 2.63346 7.74335
890 2 3.06007 5.8217 4.34058
891 2 5.3531 3.42306 6.79018
892 2 8.04457 1.31725 4.26068
893 2 3.67898 9.27683 2.40672
894 2 4.31787 8.00034 5.51942
895 2 4.66168 9.34182 1.34306
896 2 8.56698 6.12309 6.14773
897 2 2.74857 0.402682 7.62101
898 2 7.92173 8.91228 7.03511
899 2 8.34568 7.97586 3.54585
900 2 4.38915 5.65797 5.18359
901 2 2.97698 7.93084 0.220558
902 2 9.40997 6.36655 6.38193
903 2 7.91638 3.62621 0.386245
904 2 4.70247 8.46037 8.09063
905 2 1.15656 4.84203 2.04746
906 2 7.59381 8.51582 5.32907
907 2 1.75101 5.98618 6.31316
908 2 0.64436 5.62523 1.91176
909 2 1.07318 5.58275 1.13495
910 2 8.06993 8.73463 4.29837
911 2 1.70902 0.547271 9.1376
912 2 3.58711 4.88069 8.16169
913 2 2.64205 0.558134 1.04997
914 2 0.000176272 7.58661 6.40508
915 2 2.41446 1.67847 2.35817
916 2 8.31766 1.871 8.36083
917 2 4.94303 7.65305 7.50235
918 2 1.83052 9.44029 8.10603
919 2 3.53982 3.51631 6.33311
920 2 1.24843 6.45314 4.13394
921 2 1.83824 1.51175 9.1621
922 2 7.8732 4.88918 4.6705
923 2 3.11433 0.658661 1.84661
924 2 2.17443 8.3237 4.35381
925 2 1.33188 5.47899 6.99002
926 2 4.74278 4.07495 7.23809
927 2 6.12985 4.86308 7.69907
928 2 5.86493 1.43223 1.65192
929 2 0.160449 5.7314 2.72629
930 2 4.26166 8.5156 1.03447
931 2 1.56008 3.57881 5.9028
932 2 5.43695 8.38611 7.4025
933 2 3.49431 2.49489 1.41927
934 2 1.51579 4.05822 1.97544
935 2 2.57658 5.29448 5.6383
936 2 8.8068 5.31871 6.71797
937 2 8.88174 1.56131 7.73954
938 2 1.5328 2.27225 9.34059
939 2 7.02921 6.50573 7.87872
940 2 5.44816 2.31063 6.48981
941 2 1.62081 5.60526 8.19461
942 2 3.32521 4.67692 6.25763
943 2 3.44177 1.71135 0.208314
944 2 2.71746 6.81513 1.67555
945 2 1.72087 2.12796 7.01416
946 2 6.82983 6.19667 4.18343
947 2 8.03754 7.45713 0.123826
948 2 9.0466 0.0841254 8.55386
949 2 1.7428 5.70258 0.534221
950 2 5.21602 7.09408 2.01324
951 2 4.01713 5.23375 6.77471
952 2 8.35719 2.35043 2.3914
953 2 9.14694 1.42128 6.61899
954 2 1.9963 7.36848 3.11935
955 2 4.84422 5.57757 6.48004
956 2 0.0356236 0.715327 9.19921
957 2 6.19384 7.16572 5.45237
958 2 5.21403 7.20546 5.24042
959 2 2.40997 0.864717 5.91796
960 2 0.795115 3.75658 2.43122
961 2 4.64756 8.37253 8.95008
962 2 3.416 8.94514 5.66308
963 2 0.602049 3.05289 4.42471
964 2 1.13257 6.44358 6.86605
965 2 5.34402 4.02417 1.61435
966 2 1.93968 2.18692 3.76121
967 2 6.16155 1.9984 4.78281
968 2 0.83465 0.155817 8.82938
969 2 3.8283 5.16551 1.15912
970 2 2.30868 0.714061 2.60167
971 2 0.74404 2.31162 1.8791
972 2 2.05744 4.90587 2.80966
973 2 7.36131 4.17564 2.84886
974 2 2.82284 9.30926 9.21901
975 2 3.48703 6.90145 0.527487
976 2 8.07133 2.70967 5.50672
977 2 6.50636 3.55704 7.50357
978 2 0.620547 8.04849 4.73965
979 2 1.97579 9.23166 6.13547
980 2 3.44313 3.49977 4.52307
981 2 8.60766 6.35892 4.43958
982 2 5.61152 5.59446 5.48503
983 2 6.70953 0.63202 7.24936
984 2 8.56922 7.66699 1.06686
985 2 4.18945 8.26898 7.33747
986 2 6.0715 5.25801 9.02383
987 2 0.468104 2.8885 5.37988
988 2 5.40574 7.26667 0.23557
989 2 6.59846 7.62417 2.74504
990 2 6.06061 5.13263 3.63522
991 2 0.396072 6.76144 2.07107
992 2 2.62801 2.03939 7.59784
993 2 2.13359 0.123803 0.350717
994 2 1.7798 3.50022 8.51055
995 2 8.15753 6.09896 5.2986
996 2 1.03746 0.0874673 2.32234
997 2 2.49267 3.52471 6.18664
998 2 2.78823 8.87127 4.98436
999 2 8.79675 9.2814 4.49731