#bin. KALJ data file T=0.5

1000 atoms
2 atom types

0 9.4 xlo xhi
0 9.4 ylo yhi
0 9.4 zlo zhi

Masses

1 1.0
2 1.0

Atoms

1 1 1.73485 7.50684 1.96005
2 1 9.13012 5.54996 1.00646
3 1 8.70803 6.91116 6.0284
4 1 6.76813 0.114284 6.42826
5 1 7.03687 2.53438 5.96346
6 1 3.6909 6.80459 8.46899
7 1 4.3486 8.98066 2.89879
8 1 3.26293 5.94473 3.34558
9 1 3.09726 2.30055 8.22626
10 1 9.27362 7.61445 0.395331
11 1 5.29736 4.28551 4.29355
12 1 2.87491 8.51279 3.67402
13 1 7.02943 4.90924 7.80102
14 1 7.61697 0.448059 4.07436
15 1 0.0694881 4.15378 7.30012
16 1 7.95331 4.38779 0.378621
17 1 5.29 0.922085 8.61772
18 1 0.6508 7.85386 1.92617
19 1 4.03586 4.07063 6.4351
20 1 2.48662 1.29755 0.669381
21 1 3.38545 2.67527 1.08224
22 1 6.79806 5.9284 8.5587
23 1 6.15443 8.08528 3.86561
24 1 2.20538 0.649172 1.3781
25 1 5.80202 3.72866 8.63847
26 1 8.84537 1.6161 0.976607
27 1 7.28976 0.857557 2.91763
28 1 1.28364 7.19054 5.57168
29 1 1.24969 2.31975 7.32184
30 1 1.35991 3.41306 2.69447
31 1 8.86248 3.07688 8.33509
32 1 3.64692 5.41784 3.97697
33 1 7.04703 0.220481 9.01622
34 1 0.15009 6.67797 0.731007
35 1 9.0052 7.21264 3.97288
36 1 2.70523 6.00429 2.46458
37 1 7.21811 5.81974 9.40892
38 1 2.56274 1.59969 7.51703
39 1 1.56049 4.34144 1.09147
40 1 5.87694 9.3954 9.03722
41 1 4.39516 6.22837 8.27945
42 1 7.05738 8.6099 8.92711
43 1 1.94098 3.90015 5.05995
44 1 8.01244 1.05234 0.510123
45 1 0.710257 4.76166 7.20362
46 1 8.59227 0.371858 3.44729
47 1 7.30309 9.2364 4.67458
48 1 7.13004 5.96188 6.04224
49 1 0.66437 1.52652 7.38631
50 1 0.847204 5.47415 1.21384
51 1 6.13859 0.0170288 7.27392
52 1 6.61332 4.14877 8.26296
53 1 3.59019 1.12829 0.091892
54 1 4.04291 7.81938 5.15123
55 1 7.3839 0.833039 6.34346
56 1 0.907759 0.773884 7.73546
57 1 1.08173 1.32579 8.52562
58 1 8.28209 6.54216 6.68477
59 1 5.1848 3.99292 5.15639
60 1 7.50454 4.74008 3.28848
61 1 2.61003 4.93735 5.8789
62 1 5.96548 8.95095 2.55124
63 1 3.27333 5.64192 5.68569
64 1 5.59422 5.51162 7.18219
65 1 3.76172 1.52555 6.68419
66 1 3.06995 0.531612 6.74286
67 1 9.23716 6.09827 4.45239
68 1 0.731514 0.548748 0.605879
69 1 7.85701 8.51071 4.06535
70 1 8.95116 1.55036 2.14645
71 1 7.91419 6.98108 5.34075
72 1 6.68583 0.984728 0.527652
73 1 6.43026 2.91217 4.61669
74 1 2.25515 7.50888 7.70858
75 1 1.09462 8.08629 2.81457
76 1 2.60545 1.00841 2.31574
77 1 3.62418 3.25267 3.8394
78 1 2.16159 8.19182 0.777146
79 1 8.37218 8.8172 3.44398
80 1 8.30829 9.20922 6.55419
81 1 4.29896 8.12424 4.05984
82 1 1.96304 3.43358 8.59387
83 1 5.78827 6.50269 1.18236
84 1 0.112176 4.02938 5.37089
85 1 6.71763 0.922309 3.8776
86 1 2.44876 3.35587 0.00212404
87 1 2.99597 7.53222 4.87689
88 1 9.35717 9.10849 3.8459
89 1 4.27649 6.48046 9.31374
90 1 0.410435 6.72437 4.98348
91 1 4.39195 4.1068 8.85433
92 1 5.26953 0.17432 5.27476
93 1 8.77006 5.00962 1.67698
94 1 6.43795 6.21608 0.466114
95 1 1.10602 8.04011 6.33661
96 1 4.36344 0.359302 6.13217
97 1 7.80453 0.667979 5.11718
98 1 3.60137 2.00016 3.43528
99 1 2.50087 3.97704 5.81191
100 1 3.48644 4.12878 8.99999
101 1 1.47787 5.67368 4.53859
102 1 7.30093 4.21285 8.87934
103 1 8.68702 4.79792 4.08704
104 1 3.49769 4.42741 6.99809
105 1 5.55698 5.53452 1.053
106 1 5.79638 1.59868 1.08268
107 1 5.02669 0.0345356 8.56117
108 1 9.26198 3.08818 0.579694
109 1 8.47336 6.06623 0.892083
110 1 2.94864 6.60543 1.0309
111 1 6.01215 8.88717 4.49952
112 1 5.65871 8.44673 7.0854
113 1 3.37367 4.4593 0.577368
114 1 2.06041 3.66605 3.62123
115 1 7.59673 0.111311 5.82037
116 1 4.2641 1.64343 4.16219
117 1 2.84746 8.50586 4.85807
118 1 4.29985 6.969 5.0345
119 1 7.82924 7.91675 8.90098
120 1 0.637795 9.03806 0.739385
121 1 6.40744 4.2645 6.03038
122 1 2.59269 4.8965 8.37304
123 1 0.604927 7.09295 3.96724
124 1 8.55198 2.86381 4.08013
125 1 7.62407 3.17558 4.11933
126 1 9.27541 2.82963 2.51005
127 1 6.99599 4.77103 2.42752
128 1 8.21642 0.317404 2.4996
129 1 0.313727 1.47116 0.201769
130 1 3.64264 1.76722 5.61057
131 1 0.284704 1.85305 2.78689
132 1 9.22113 2.30493 8.12401
133 1 8.43275 4.17398 2.21095
134 1 6.30899 4.43484 9.17799
135 1 7.75977 0.440792 8.24678
136 1 0.603949 7.1508 9.43785
137 1 6.84737 0.557465 5.38165
138 1 9.20105 3.61279 2.76093
139 1 2.84766 6.37324 5.71723
140 1 7.67357 0.875124 2.13093
141 1 9.07287 7.0202 7.11983
142 1 8.74404 8.24115 2.64277
143 1 6.84225 0.313233 2.30734
144 1 2.69149 7.85375 3.01459
145 1 6.59425 3.29534 7.00995
146 1 3.91553 5.35587 6.77555
147 1 8.51886 3.19487 6.59334
148 1 4.36892 3.85931 0.351432
149 1 4.71422 3.26859 7.6097
150 1 4.613 3.67949 3.29605
151 1 7.17602 6.82181 6.47776
152 1 0.898444 6.85733 3.13923
153 1 7.91614 2.65003 6.24311
154 1 8.34191 7.12263 9.07387
155 1 4.61108 7.2268 0.168278
156 1 4.96221 5.63618 2.36066
157 1 5.07439 9.1519 2.09899
158 1 0.318503 8.77745 7.61223
159 1 4.37417 0.637415 8.30983
160 1 2.06065 8.39855 4.16589
161 1 7.92353 5.54244 8.03429
162 1 6.61726 8.42535 4.81686
163 1 8.16959 3.7549 8.74269
164 1 3.72217 9.09637 6.05321
165 1 7.06353 3.51127 6.36509
166 1 0.748584 4.91475 3.61685
167 1 7.7829 2.01066 0.774151
168 1 2.749 4.79195 1.15245
169 1 7.86669 3.45117 5.90501
170 1 5.91198 4.67657 2.7847
171 1 3.64274 7.34445 9.31823
172 1 2.48924 9.08824 1.67313
173 1 8.26682 0.960267 9.05056
174 1 1.94389 5.54499 6.44888
175 1 6.3038 1.90786 9.05361
176 1 0.575321 8.07475 7.12707
177 1 2.55494 1.03168 5.52
178 1 5.18627 0.734088 6.16818
179 1 4.83508 1.13353 4.80342
180 1 2.48013 1.89845 5.78612
181 1 1.73677 6.856 3.7039
182 1 8.41021 1.21195 2.87012
183 1 3.7186 2.33821 4.44608
184 1 7.29605 1.54003 0.167894
185 1 7.42413 2.98135 5.01728
186 1 9.00881 3.19567 5.47279
187 1 0.565123 5.54836 7.54654
188 1 2.15195 6.7016 7.33
189 1 6.36331 5.68111 7.75577
190 1 0.935491 3.82822 3.38114
191 1 7.33152 6.9946 4.55666
192 1 5.9027 4.54839 7.70098
193 1 0.111996 2.69788 6.25375
194 1 7.19671 2.60074 6.96323
195 1 1.23932 3.61232 6.41827
196 1 1.66332 4.53261 6.23909
197 1 6.35443 5.45387 9.38322
198 1 4.6434 6.67888 4.18011
199 1 5.67031 9.14998 1.18845
200 1 1.44306 2.24309 4.01742
201 1 6.66908 6.26145 4.44744
202 1 2.85158 9.40829 5.94946
203 1 1.36141 9.09907 7.97483
204 1 5.66589 7.03703 6.10998
205 1 5.25471 2.90914 5.64812
206 1 6.76181 3.463 1.90136
207 1 0.0705172 6.53279 3.52378
208 1 0.208814 5.4141 1.78193
209 1 8.56779 2.05448 4.73885
210 1 7.13127 2.71249 3.52254
211 1 1.88054 6.63981 2.59406
212 1 1.36536 1.19995 0.702027
213 1 3.45361 0.812442 5.93908
214 1 6.18253 7.86956 0.448668
215 1 9.03691 0.835723 7.68419
216 1 1.63691 2.62736 1.30072
217 1 5.47192 2.25865 6.4193
218 1 0.605863 3.81127 2.09848
219 1 8.5094 4.31251 1.13004
220 1 8.41963 6.28839 3.58657
221 1 6.90861 6.49282 2.00043
222 1 4.25833 0.338623 3.20022
223 1 3.36916 9.28455 5.14233
224 1 5.542 3.76239 1.78283
225 1 6.90695 1.41407 2.1734
226 1 3.76005 1.77295 8.56187
227 1 4.07548 3.97564 5.46063
228 1 0.198463 2.01793 1.57515
229 1 6.91569 7.28652 1.54846
230 1 6.79878 1.76321 0.942708
231 1 8.12562 0.861358 7.07311
232 1 7.87729 4.40975 8.20725
233 1 6.37484 4.89207 0.730391
234 1 8.97861 3.81569 4.52045
235 1 4.09686 4.72844 9.45276
236 1 2.67997 6.52037 8.1274
237 1 7.28604 7.67287 6.97779
238 1 4.73559 1.3071 0.476755
239 1 9.35894 2.65574 4.55881
240 1 5.21187 2.77996 2.07656
241 1 0.0966583 6.50825 6.26041
242 1 7.77579 7.55974 2.02496
243 1 5.70648 4.28918 1.03694
244 1 4.84786 2.47001 8.63171
245 1 3.96289 3.35612 1.04534
246 1 1.79117 8.41848 1.74717
247 1 8.40671 2.15686 8.20664
248 1 0.776772 2.61978 1.97482
249 1 5.08654 5.58395 8.04216
250 1 6.83289 3.31025 2.72926
251 1 1.14389 8.73482 7.13917
252 1 6.0289 8.01684 5.57782
253 1 0.372849 0.456284 9.09173
254 1 4.87493 6.26736 0.859102
255 1 6.53981 7.23747 2.41132
256 1 4.48708 3.71396 4.29045
257 1 6.45654 7.42677 4.99015
258 1 1.85203 5.45834 8.89403
259 1 7.40849 0.953778 7.51144
260 1 4.86094 7.74499 4.61794
261 1 4.88272 2.4227 7.64001
262 1 4.81239 5.07822 5.435
263 1 6.76569 1.23279 4.84339
264 1 6.11751 0.25032 0.590693
265 1 3.46855 5.01959 8.66242
266 1 1.56686 0.125803 7.16473
267 1 8.27786 3.38734 4.90583
268 1 3.8697 7.1862 5.80701
269 1 1.31957 8.94275 0.0394315
270 1 9.20658 8.31151 1.27604
271 1 9.35923 6.68656 7.92196
272 1 3.90813 3.33139 4.87023
273 1 0.519704 0.174208 2.59636
274 1 9.30627 9.36509 6.45674
275 1 2.26878 0.392969 3.10506
276 1 5.5713 7.22965 7.31623
277 1 8.23675 2.10135 3.42101
278 1 4.57777 8.41952 1.80175
279 1 3.46766 0.524619 8.48193
280 1 4.36583 6.1725 1.8022
281 1 6.88562 2.27917 2.38133
282 1 4.32687 4.52234 4.81771
283 1 5.61955 8.67794 0.293403
284 1 8.91341 2.46532 1.70107
285 1 6.72748 8.8605 1.89789
286 1 1.5123 2.50103 2.44972
287 1 1.80494 4.82192 4.58929
288 1 8.80429 4.9807 7.95555
289 1 2.93624 5.30966 6.57177
290 1 8.69064 7.8089 5.37182
291 1 2.57826 3.03136 1.10125
292 1 7.00215 1.01893 8.33845
293 1 8.4717 4.57396 3.08658
294 1 4.03695 5.96929 6.0313
295 1 4.06591 8.02058 3.15021
296 1 4.47929 1.9425 5.14866
297 1 8.09691 3.98839 6.76925
298 1 2.01088 1.83702 8.58717
299 1 9.32845 6.95555 8.79539
300 1 5.75138 3.76393 6.92298
301 1 8.22387 6.51503 4.55025
302 1 4.90893 4.29661 1.47882
303 1 8.70994 8.32582 4.50152
304 1 6.287 7.14661 9.03143
305 1 1.65759 0.877178 9.21683
306 1 3.91751 4.92337 1.12693
307 1 8.66332 7.23309 8.20997
308 1 2.99466 0.760141 7.61823
309 1 3.00785 7.80117 8.04862
310 1 7.62082 2.58194 2.66242
311 1 4.60094 9.38738 0.795765
312 1 5.20693 7.78664 0.498404
313 1 2.18821 3.41169 7.60865
314 1 7.04754 6.51627 1.00009
315 1 2.99817 9.20858 8.2924
316 1 1.00533 5.89262 0.286605
317 1 8.92073 8.13629 3.68911
318 1 4.62928 7.61737 7.58561
319 1 4.26429 3.06355 8.98237
320 1 8.28492 3.95027 3.97937
321 1 5.58161 3.44308 7.75625
322 1 8.20192 8.70106 8.9989
323 1 1.21033 1.68354 9.30928
324 1 5.9353 7.15402 8.24876
325 1 3.75595 7.50923 4.40167
326 1 5.72524 6.93844 0.376429
327 1 1.055 7.11981 2.38538
328 1 1.47254 0.15159 4.59595
329 1 7.91297 2.24359 5.35065
330 1 1.6743 6.57495 9.05618
331 1 5.37722 4.7207 6.85756
332 1 6.94405 2.01774 7.55153
333 1 2.87789 7.84128 0.194103
334 1 4.85328 6.46339 2.80262
335 1 3.07147 3.84996 1.35071
336 1 7.76943 5.74853 4.27344
337 1 2.27286 6.28257 1.70416
338 1 8.83098 5.73442 6.10151
339 1 7.99115 6.05801 5.84407
340 1 7.49189 8.58802 6.49687
341 1 8.21622 1.65557 7.48902
342 1 2.70434 1.65494 4.86181
343 1 1.74134 3.01008 6.96119
344 1 4.51811 7.78766 8.87947
345 1 6.34855 3.10193 8.10949
346 1 8.08638 2.47254 1.83958
347 1 8.1302 7.13891 3.49534
348 1 1.92311 0.322842 6.343
349 1 2.86251 3.46517 2.42876
350 1 1.67131 1.26232 2.76578
351 1 5.86202 5.42626 6.34335
352 1 3.1915 4.74183 4.70358
353 1 2.96916 3.73949 3.34484
354 1 8.79138 3.53659 1.52265
355 1 1.6661 9.13159 1.24223
356 1 5.56873 5.86417 2.9564
357 1 7.99596 8.36166 7.23349
358 1 1.46652 6.18966 1.36378
359 1 0.720324 9.32853 1.51815
360 1 0.668255 4.64799 1.57799
361 1 9.09939 1.36068 3.58805
362 1 8.22921 7.45625 7.37138
363 1 0.224943 2.55755 7.20154
364 1 2.90736 3.62788 4.26852
365 1 5.36439 6.92683 5.03505
366 1 5.62547 2.68358 9.2099
367 1 8.41203 1.20596 4.15339
368 1 6.17627 5.06393 8.40183
369 1 1.9786 2.25554 0.385335
370 1 3.78207 1.04804 1.00079
371 1 8.3538 5.5009 4.9408
372 1 5.16556 8.49859 5.2519
373 1 3.44118 8.33079 5.59401
374 1 4.28189 2.76122 3.37718
375 1 0.822447 9.31143 3.51896
376 1 2.60411 4.02872 8.88554
377 1 8.10524 0.349388 1.21346
378 1 3.36245 2.82633 2.82702
379 1 9.00235 0.767524 6.76042
380 1 8.05494 8.66829 5.13459
381 1 0.535513 8.80163 4.54312
382 1 9.37787 8.86327 5.22827
383 1 7.32447 7.84816 4.52307
384 1 4.7302 6.13091 5.14512
385 1 2.9915 3.2899 8.01855
386 1 3.52401 6.8683 6.56917
387 1 6.72694 4.1625 3.02311
388 1 6.33049 9.04198 5.40212
389 1 5.76795 0.631836 3.68119
390 1 2.48098 9.42518 7.42977
391 1 0.899461 8.06008 0.0696723
392 1 0.948427 3.88983 8.02638
393 1 6.25697 0.956321 1.62289
394 1 0.185132 1.47793 8.43393
395 1 3.82667 5.7475 9.04731
396 1 6.46852 5.10302 6.94444
397 1 3.10855 2.02485 2.67321
398 1 1.12915 3.30574 4.0123
399 1 5.11305 1.88456 2.23714
400 1 3.75354 5.57342 4.99143
401 1 8.72766 2.15865 5.6937
402 1 7.58517 5.62608 1.52023
403 1 2.00632 8.42912 8.05248
404 1 1.26592 6.81069 0.741387
405 1 7.19805 4.01175 3.8238
406 1 1.66093 1.4704 5.22735
407 1 3.34138 1.86221 7.45546
408 1 7.41961 2.27807 8.24287
409 1 0.943437 5.98491 2.0533
410 1 0.654216 0.390379 6.37638
411 1 4.08455 7.30824 2.02017
412 1 1.41025 4.1609 7.13502
413 1 5.25888 4.74061 2.10622
414 1 2.42332 4.87182 3.38255
415 1 2.51232 3.14025 5.24718
416 1 7.26633 8.09562 7.80109
417 1 5.52818 0.671923 7.00388
418 1 9.21479 0.655037 5.88184
419 1 4.97965 1.76694 3.67895
420 1 2.23787 5.91143 3.40032
421 1 0.223547 4.43448 3.06574
422 1 4.94369 6.91609 8.2451
423 1 5.69095 1.12545 0.126929
424 1 0.332318 8.51884 3.21485
425 1 9.24892 6.00765 5.38767
426 1 4.17836 5.51803 3.02231
427 1 2.09664 3.63094 6.46657
428 1 6.56547 5.44078 5.49733
429 1 2.89234 8.95031 0.775535
430 1 6.12065 1.89804 1.90359
431 1 3.19256 4.31577 2.66072
432 1 7.343 6.51178 3.74556
433 1 2.55116 4.49217 4.18994
434 1 4.59531 3.35253 6.11263
435 1 2.17623 3.84561 2.68125
436 1 2.86459 2.68229 7.3564
437 1 2.40102 2.05025 1.19839
438 1 3.06565 6.00031 4.5974
439 1 5.48148 1.56064 4.47972
440 1 4.5334 7.07313 1.17902
441 1 6.18952 4.61537 4.67115
442 1 0.497834 7.35572 6.70499
443 1 5.67809 6.34311 4.52089
444 1 4.09033 3.88859 1.85967
445 1 3.09093 7.33273 1.62392
446 1 7.29018 8.16352 1.24563
447 1 9.35751 0.0363866 0.334346
448 1 1.21564 5.55173 8.21001
449 1 5.2013 6.3861 6.60857
450 1 5.89566 0.183046 1.90306
451 1 2.17821 9.37802 8.78681
452 1 6.32407 3.16585 5.6078
453 1 6.41707 6.10765 6.56991
454 1 5.83642 6.69101 2.43817
455 1 6.36791 5.91905 1.41498
456 1 7.83224 1.4822 8.37312
457 1 4.92768 8.3758 2.77131
458 1 0.893198 1.86762 6.34498
459 1 3.84686 4.99808 5.63719
460 1 1.53712 1.39735 7.71126
461 1 8.93381 0.513521 1.89726
462 1 3.23257 3.2293 8.97207
463 1 5.45283 3.26721 3.91598
464 1 7.12872 3.13354 1.07785
465 1 1.89857 1.39435 3.65305
466 1 3.09533 2.22735 6.59697
467 1 6.46573 8.43961 1.0966
468 1 5.55977 9.07201 7.87424
469 1 0.338899 0.286803 4.92503
470 1 4.88828 3.47743 8.45538
471 1 6.50429 7.22012 4.06406
472 1 6.55235 6.45162 3.06989
473 1 7.44516 1.0822 1.23745
474 1 7.9841 2.67818 7.38905
475 1 1.1659 2.74149 0.51769
476 1 7.39161 0.22367 0.489776
477 1 0.490818 8.69299 6.50727
478 1 9.32191 3.57745 6.35047
479 1 7.28205 1.58818 5.53025
480 1 2.08863 1.88918 6.74665
481 1 7.19632 8.72013 5.6076
482 1 1.81412 4.25876 7.87736
483 1 5.46222 7.31571 4.19641
484 1 2.25872 7.30639 8.53703
485 1 1.92003 2.55181 3.33465
486 1 7.63427 1.43672 3.85337
487 1 3.83206 0.147738 7.58782
488 1 4.97488 3.99877 2.60108
489 1 2.63359 1.71297 9.17071
490 1 7.16312 4.06148 7.20415
491 1 1.48035 4.51898 3.26894
492 1 0.802871 4.16258 9.04317
493 1 2.51933 5.49153 5.18069
494 1 6.29331 1.75121 5.62589
495 1 0.344597 7.74667 8.66648
496 1 5.57556 3.81285 5.94036
497 1 5.96702 8.87599 3.46627
498 1 2.70872 4.14396 7.8257
499 1 7.7801 8.85392 8.12054
500 1 1.9748 8.29116 3.19398
501 1 1.46325 7.64078 0.959095
502 1 9.15806 5.38139 2.64149
503 1 5.74025 8.01398 4.60303
504 1 3.68115 4.35569 8.09666
505 1 8.5837 7.22911 2.76781
506 1 6.35638 4.13436 2.15815
507 1 1.03034 4.08372 5.31085
508 1 0.209597 5.76405 8.3893
509 1 8.26048 3.31919 2.30868
510 1 7.50708 2.04049 4.49108
511 1 4.04307 8.84978 8.60068
512 1 2.11277 9.09859 5.58794
513 1 6.31946 7.38235 3.25646
514 1 8.27606 0.743371 6.15337
515 1 0.59309 4.49453 6.19291
516 1 1.1102 1.98441 3.11867
517 1 0.385159 6.32827 2.68362
518 1 2.36779 7.90769 5.35762
519 1 3.64671 6.83893 2.76495
520 1 2.76216 0.439845 0.49427
521 1 8.5173 4.97061 5.72551
522 1 1.8388 8.09585 7.13819
523 1 1.08029 8.04877 8.1834
524 1 8.28286 8.08699 1.28131
525 1 1.21821 2.78004 5.1059
526 1 9.21024 6.8444 2.06431
527 1 1.98903 3.31937 1.80701
528 1 3.86364 7.56752 7.2376
529 1 0.768543 1.09241 5.8019
530 1 3.04644 5.09887 7.43015
531 1 5.64142 6.34168 7.67169
532 1 5.16583 7.55933 5.69077
533 1 4.967 5.0142 2.96034
534 1 2.66248 6.9491 9.3107
535 1 2.51259 6.73668 3.22326
536 1 1.07808 5.26759 6.45121
537 1 6.91432 7.5608 8.51683
538 1 0.05868 1.58326 4.40465
539 1 1.83861 3.27874 0.639385
540 1 9.13241 7.7358 1.95898
541 1 7.77879 4.62989 1.83971
542 1 0.688914 3.23343 5.72886
543 1 0.0541581 4.10669 0.185876
544 1 0.869745 1.90754 4.85832
545 1 1.53459 9.1487 2.75419
546 1 1.63797 5.21378 3.76139
547 1 8.78217 8.90186 1.93119
548 1 6.38269 0.759708 8.91611
549 1 7.19922 6.63313 8.97842
550 1 8.3857 6.43627 7.76023
551 1 2.70575 8.1325 1.96656
552 1 4.7952 8.59301 7.92788
553 1 5.77108 7.5982 2.54966
554 1 3.28044 2.747 5.28268
555 1 3.15507 0.649092 4.85398
556 1 3.99977 1.06839 7.63082
557 1 7.71533 9.34944 3.16932
558 1 2.20237 0.919504 7.02401
559 1 1.70679 0.337985 2.17196
560 1 4.19371 4.59092 3.65344
561 1 9.28325 5.45996 3.60509
562 1 7.10984 3.31538 7.77689
563 1 3.09302 8.05687 1.05759
564 1 4.41203 2.0767 6.88619
565 1 4.81322 5.92805 3.60544
566 1 3.9042 6.31546 7.38398
567 1 1.0332 8.40455 1.27455
568 1 5.27514 1.5876 5.57768
569 1 9.39609 4.23309 3.88785
570 1 0.133967 1.56269 5.55513
571 1 7.02845 6.9991 5.56299
572 1 8.64249 2.97324 9.26605
573 1 6.9923 3.21327 9.13584
574 1 9.09151 5.84333 7.30643
575 1 4.88564 6.61295 7.42972
576 1 4.88381 4.44717 6.11483
577 1 4.55108 5.48789 4.5232
578 1 5.49861 7.96225 8.03236
579 1 1.86652 0.242559 0.297583
580 1 7.00373 5.64912 2.44601
581 1 7.87857 2.86392 0.292457
582 1 3.30659 9.13321 6.9179
583 1 3.36534 1.47144 4.06842
584 1 1.93174 9.13905 3.64692
585 1 5.21635 1.12352 7.66565
586 1 4.81881 5.60491 0.117803
587 1 3.70927 8.70071 4.59384
588 1 1.89763 5.08055 7.25606
589 1 0.957269 2.17058 8.23367
590 1 4.3659 1.98519 9.27219
591 1 8.43453 4.36588 4.94479
592 1 8.9854 5.91951 0.145797
593 1 0.58149 5.6004 4.82007
594 1 8.26851 8.38444 6.00654
595 1 7.43756 5.06613 8.64804
596 1 6.62875 0.140431 3.2343
597 1 8.51875 2.58979 0.841524
598 1 3.97626 6.42971 3.50834
599 1 2.52186 4.29474 6.89241
600 1 6.18566 6.6346 5.31604
601 1 0.638568 6.19182 6.94244
602 1 0.251037 8.58771 2.28713
603 1 2.47218 5.81546 7.39833
604 1 1.65496 7.01236 6.39056
605 1 7.16205 5.91484 7.13474
606 1 1.93211 7.8122 6.19728
607 1 8.39943 0.205185 7.60339
608 1 9.14428 0.599167 4.30767
609 1 4.35788 1.2788 6.00788
610 1 3.91199 9.05906 3.78868
611 1 5.55879 5.76076 5.45546
612 1 2.77184 0.77211 3.96665
613 1 8.16101 5.36524 3.40104
614 1 7.71614 3.80087 1.51229
615 1 6.8649 8.67653 4.01545
616 1 0.943598 2.78504 6.59377
617 1 8.2826 1.20999 1.52739
618 1 4.20814 9.23359 1.85055
619 1 0.857293 4.56503 0.648503
620 1 0.109547 3.37816 8.83884
621 1 7.49155 3.84664 4.71046
622 1 1.03065 1.99024 1.20105
623 1 0.971071 5.7126 3.05987
624 1 6.6535 2.13146 3.97662
625 1 5.27938 0.17545 0.240997
626 1 4.39608 0.137928 9.28401
627 1 1.72982 3.01782 5.91533
628 1 0.35025 0.308046 8.24882
629 1 6.38821 5.3851 3.02392
630 1 1.33533 8.46247 4.59683
631 1 6.83258 4.0673 0.998894
632 1 8.92426 6.95394 4.85529
633 1 3.62534 3.08528 1.81215
634 1 6.76185 6.7568 8.12185
635 1 8.012 1.78273 6.08681
636 1 4.00754 2.71219 5.69477
637 1 6.83553 7.72294 6.02305
638 1 0.577023 8.00209 4.15979
639 1 3.54719 0.854236 2.00642
640 1 6.89593 5.05749 1.56403
641 1 4.85368 6.6614 5.86806
642 1 2.48481 8.9116 2.80803
643 1 5.1714 8.58289 3.89846
644 1 8.69067 6.30452 2.59079
645 1 3.40147 8.70969 1.82381
646 1 8.02531 2.9383 8.46616
647 1 0.20065 7.68707 5.05573
648 1 8.1654 5.85794 7.22189
649 1 7.78788 8.38676 2.34955
650 1 8.63579 4.8892 0.183534
651 1 4.82624 3.81207 6.81552
652 1 5.55274 6.81993 3.29762
653 1 0.4226 2.97599 8.0679
654 1 2.8708 2.47696 0.316133
655 1 0.326005 0.893803 1.29778
656 1 6.4353 3.53695 3.83628
657 1 1.38883 3.01307 8.02793
658 1 5.40177 3.2351 4.85537
659 1 7.33646 7.22615 2.90653
660 1 3.24238 0.0813343 3.36419
661 1 3.43324 8.70257 3.00003
662 1 3.87165 8.76718 1.10229
663 1 2.87493 2.67222 4.5042
664 1 2.62079 7.41728 6.71047
665 1 8.54819 9.30735 5.72618
666 1 3.07621 7.58172 5.97932
667 1 9.07476 2.36466 3.41287
668 1 1.34353 0.592205 5.57986
669 1 0.579483 7.49282 0.932824
670 1 3.95163 8.55969 7.39204
671 1 4.40546 3.06548 2.36311
672 1 2.58875 4.45816 1.91595
673 1 4.45566 5.12017 8.7124
674 1 0.416574 7.25242 5.8145
675 1 0.810298 6.09893 4.03758
676 1 2.65131 1.89189 3.38583
677 1 8.32619 5.11165 8.73599
678 1 3.34381 4.63488 3.62701
679 1 2.00856 7.56153 0.226664
680 1 7.71488 7.17347 8.30738
681 1 5.42385 0.164337 4.3741
682 1 2.60299 2.58719 2.22335
683 1 1.04703 1.69436 2.10968
684 1 5.20284 5.02662 3.83878
685 1 4.64423 2.23342 6.05082
686 1 8.70006 0.466533 5.038
687 1 2.08736 2.47442 7.78012
688 1 6.32177 3.76719 4.94346
689 1 5.79443 2.53471 7.29899
690 1 0.437583 4.43778 4.57989
691 1 4.2537 8.11996 6.05259
692 1 3.43778 3.49457 6.06502
693 1 4.70143 5.46989 1.32523
694 1 5.99289 5.48972 4.71158
695 1 1.42473 7.39248 7.4048
696 1 0.0752893 5.04409 0.358133
697 1 3.74919 0.251927 0.516685
698 1 2.86348 1.33131 6.5528
699 1 8.7721 5.86914 1.82793
700 1 9.32313 8.18303 5.98679
701 1 7.80544 4.38751 5.80608
702 1 5.38368 2.17962 0.388895
703 1 0.657978 8.67124 8.7017
704 1 5.53731 8.3354 6.17278
705 1 7.51924 6.8286 7.35624
706 1 5.4274 1.02279 2.13233
707 1 1.95447 0.924866 8.354
708 1 1.48105 2.53046 8.98202
709 1 2.41967 6.37534 6.53277
710 1 2.9331 8.57657 7.45066
711 1 6.57437 1.97297 6.61999
712 1 8.4998 0.0508389 8.6509
713 1 5.86535 2.30669 8.26614
714 1 6.08387 0.672611 6.17643
715 1 7.72953 4.82391 4.18926
716 1 3.83739 3.36842 7.52874
717 1 8.58088 6.8851 1.43931
718 1 6.71771 8.97162 0.318849
719 1 4.92739 0.00969572 6.76349
720 1 1.50632 4.94648 0.252538
721 1 0.320893 0.214816 7.28628
722 1 7.60948 7.90654 5.55345
723 1 3.48993 7.4463 3.50501
724 1 7.68292 6.29489 2.97615
725 1 0.261762 6.23336 1.43424
726 1 6.32029 3.62737 0.379209
727 1 3.12711 3.89121 5.21697
728 1 3.49288 6.55839 1.79449
729 1 1.40362 4.32692 1.99682
730 1 3.78132 1.76023 2.10429
731 1 3.3177 0.193376 1.37466
732 1 2.74845 7.15088 2.44646
733 1 0.758772 5.22429 9.1123
734 1 7.05421 5.60163 0.812734
735 1 5.23521 1.75364 7.0836
736 1 1.56353 1.25937 6.30766
737 1 2.88394 2.77471 3.62099
738 1 4.19186 5.24702 2.04058
739 1 0.769616 3.54823 0.4937
740 1 7.95606 3.52188 7.73495
741 1 4.69635 2.92278 0.573412
742 1 2.07214 2.30286 4.93319
743 1 3.80617 6.63819 0.759184
744 1 9.12748 0.766254 2.83189
745 1 7.89276 6.33615 8.51494
746 1 6.96894 9.33213 7.8939
747 1 9.20626 8.9516 8.87354
748 1 4.41785 2.38944 1.62739
749 1 3.0668 0.118441 2.42471
750 1 7.05226 4.63091 5.15109
751 1 6.47397 6.90302 7.13668
752 1 7.42214 1.73815 6.8056
753 1 2.71816 5.94424 8.98456
754 1 5.43599 4.189 3.42525
755 1 7.87178 5.40629 2.49759
756 1 2.95632 3.58379 7.07369
757 1 4.75015 4.67176 0.600961
758 1 3.1669 1.04996 3.14837
759 1 5.67644 4.63576 5.5011
760 1 5.08716 6.62783 9.14591
761 1 1.25799 0.196202 8.74021
762 1 2.4836 8.56228 9.35548
763 1 8.11306 5.92888 9.38444
764 1 5.99036 0.564766 8.16691
765 1 6.00769 4.91321 1.75267
766 1 3.44487 5.12447 2.80796
767 1 5.30077 2.29909 1.30999
768 1 8.91632 9.24775 2.74725
769 1 2.59479 5.76522 0.931063
770 1 3.48384 5.72124 1.20665
771 1 4.65564 8.8886 5.92279
772 1 7.76544 8.73311 0.678879
773 1 6.1294 4.66005 3.66999
774 1 8.61954 2.17361 6.77908
775 1 5.73236 2.29373 5.19172
776 1 9.16516 8.59244 0.301801
777 1 8.10748 3.71213 3.12998
778 1 7.06906 2.41267 0.211867
779 1 5.6821 3.32871 0.992665
780 1 4.6469 8.50635 6.79818
781 1 1.73156 6.28076 8.14329
782 1 8.09136 2.92065 3.33302
783 1 9.24958 4.47834 2.25481
784 1 8.31136 8.099 8.13758
785 1 1.22592 4.15081 4.40429
786 1 6.8635 1.66538 3.26867
787 1 0.522901 3.50742 4.75647
788 1 0.751066 6.08418 5.67553
789 1 5.18112 4.54746 8.80882
790 1 0.0253579 7.54782 2.97722
791 1 2.3964 0.0307514 4.72365
792 1 3.90815 5.42533 7.80416
793 1 3.19626 6.82862 4.08793
794 1 8.10152 7.42278 6.49705
795 1 5.65012 5.91287 8.94572
796 1 5.41515 7.46623 8.85517
797 1 0.36354 2.40302 8.91788
798 1 3.88887 6.2518 4.37195
799 1 0.764118 6.73639 8.38785
800 1 7.74316 9.01079 1.50624
801 2 3.07032 9.27516 4.12762
802 2 1.67211 2.12685 5.79691
803 2 2.60302 2.92658 6.30926
804 2 9.20926 7.93913 7.58783
805 2 8.93322 3.94452 8.09731
806 2 0.737162 4.9984 5.3972
807 2 3.09161 5.71075 8.21441
808 2 5.44723 1.17739 3.06094
809 2 1.43776 6.54909 4.96893
810 2 1.9432 1.38828 1.776
811 2 0.392943 2.38503 0.561805
812 2 8.02058 2.05696 9.22498
813 2 1.12366 9.15618 5.33504
814 2 4.72049 0.161742 7.63172
815 2 7.35568 7.19439 0.168081
816 2 1.79258 8.08881 8.87287
817 2 4.66697 1.06408 6.88812
818 2 0.581488 2.24406 3.82651
819 2 9.25897 5.03302 4.99791
820 2 8.9863 9.02296 7.21559
821 2 8.04759 4.61579 7.41991
822 2 5.55422 2.43251 4.26561
823 2 2.20244 6.4105 4.361
824 2 2.72549 0.819686 9.05024
825 2 7.13322 4.84211 0.102168
826 2 7.83903 6.49345 1.90084
827 2 0.685734 0.981903 2.92161
828 2 6.18435 2.73673 3.39095
829 2 7.51702 5.28046 5.52905
830 2 7.84521 6.62209 0.566768
831 2 2.31088 7.11567 5.78624
832 2 3.99199 2.93737 6.69639
833 2 8.08559 7.72505 0.486138
834 2 1.89659 6.23345 0.558746
835 2 6.78056 0.981879 6.95344
836 2 6.33744 1.03748 2.91743
837 2 6.49949 8.68214 6.42219
838 2 3.18285 6.09512 6.94356
839 2 4.80531 0.7301 3.9599
840 2 6.30211 8.57646 8.37386
841 2 0.301201 2.9929 1.32585
842 2 4.81051 3.35839 1.51001
843 2 0.28049 2.49558 5.38373
844 2 5.31176 0.814303 1.1239
845 2 3.16657 5.3222 0.300433
846 2 1.21567 1.22731 4.25251
847 2 1.31341 9.08839 6.30512
848 2 4.09162 4.45238 2.57919
849 2 7.36592 2.81388 1.81159
850 2 7.02871 5.74681 3.61099
851 2 4.82131 7.38137 2.69576
852 2 6.05285 1.47994 3.71554
853 2 3.49849 3.61913 0.313608
854 2 3.97718 5.70149 0.514286
855 2 1.28718 3.50257 1.37312
856 2 3.57892 8.52081 0.334102
857 2 5.15269 9.4534 3.03901
858 2 7.42997 3.66947 0.364854
859 2 5.51224 8.28139 1.11903
860 2 5.97538 3.59756 2.98146
861 2 2.26094 8.86654 6.72555
862 2 4.43353 6.86394 6.65395
863 2 3.84456 3.59226 2.75318
864 2 6.19798 7.75211 1.73042
865 2 4.72457 5.62925 7.22586
866 2 3.73981 5.96462 2.42648
867 2 1.22994 0.950435 1.57545
868 2 1.98831 5.26468 1.50864
869 2 6.01829 3.1168 6.43398
870 2 6.03139 2.88439 2.28546
871 2 7.47499 0.0742627 7.17536
872 2 3.13912 1.45808 1.52994
873 2 1.78073 5.0212 2.3613
874 2 6.59239 8.60632 7.38488
875 2 7.35751 6.15791 5.15966
876 2 3.49309 8.16083 6.57408
877 2 6.47621 2.68057 1.43027
878 2 0.0682062 3.96236 1.16972
879 2 4.52683 0.977392 2.4733
880 2 2.0393 0.850937 4.58638
881 2 7.64271 1.62757 2.71988
882 2 6.91431 8.88072 2.76596
883 2 6.31356 0.422315 4.5882
884 2 4.59736 1.4645 1.6166
885 2 8.71687 4.07731 6.00436
886 2 3.40515 6.50881 9.29477
887 2 3.79101 0.663986 4.17675
888 2 0.223306 0.632928 3.60905
889 2 1.52422 6.08778 7.17439
890 2 8.93334 8.07063 8.79161
891 2 7.00041 5.34017 4.49894
892 2 7.81134 7.30013 1.15805
893 2 4.45749 1.11657 9.10756
894 2 5.13733 3.03368 6.928
895 2 8.74092 4.85669 6.8658
896 2 1.0946 8.78 2.08816
897 2 4.61847 8.67167 -0.018014
898 2 2.52533 4.64652 0.113652
899 2 5.66895 9.20571 6.14005
900 2 5.15214 7.66351 6.64489
901 2 2.39126 7.44989 3.77271
902 2 3.85983 3.51095 8.40639
903 2 3.37481 8.18942 8.80039
904 2 7.44319 1.95847 1.62546
905 2 9.41021 3.27986 3.91794
906 2 3.51591 7.7607 2.41682
907 2 0.725348 2.85022 3.33536
908 2 6.96506 7.96429 2.19551
909 2 2.10655 2.86554 4.1343
910 2 1.77995 4.5967 8.70734
911 2 8.9886 0.0980326 1.14599
912 2 4.11475 1.23767 3.34119
913 2 0.821017 1.02433 4.95051
914 2 6.13841 7.69647 6.7283
915 2 6.10155 5.92786 3.78987
916 2 2.72643 8.47304 6.06373
917 2 0.234875 5.35282 6.18378
918 2 1.42365 7.70022 3.77307
919 2 1.70304 5.10512 5.51702
920 2 8.26736 7.38999 4.51237
921 2 7.17154 4.57689 6.46886
922 2 2.35334 4.01195 0.757217
923 2 3.2535 4.35399 6.16602
924 2 8.43136 1.3658 5.20527
925 2 0.775186 5.04754 2.49975
926 2 8.54035 2.13266 2.59706
927 2 1.92868 7.41134 4.76882
928 2 4.15412 7.88715 0.684039
929 2 8.41818 0.167758 0.229948
930 2 2.51682 2.60688 8.85905
931 2 4.22867 2.01671 2.88065
932 2 6.11577 5.65802 2.21803
933 2 8.194 9.2312 4.39183
934 2 3.71078 1.35172 4.86425
935 2 6.25343 2.50485 0.626496
936 2 4.10828 2.44626 8.04074
937 2 7.99601 5.37021 0.645089
938 2 4.37093 4.65143 7.05962
939 2 8.80526 8.00573 6.68202
940 2 0.86568 6.89692 1.61955
941 2 0.593971 3.33563 7.26877
942 2 3.42691 6.70138 5.1291
943 2 7.00613 0.220388 1.35659
944 2 2.63867 5.40068 4.05252
945 2 6.79841 2.2442 5.0905
946 2 3.88377 1.96684 0.913632
947 2 0.733095 8.44534 5.62825
948 2 3.96553 7.66695 8.20787
949 2 6.17082 1.46473 8.22256
950 2 1.86445 6.36793 5.66698
951 2 4.51763 9.22692 5.00265
952 2 3.22867 9.2406 9.26765
953 2 1.59282 0.560067 3.59022
954 2 0.935405 3.23348 9.07329
955 2 8.84099 4.32471 8.83877
956 2 0.370542 4.71145 8.09184
957 2 5.18655 6.44254 1.82499
958 2 7.13499 3.79478 5.46809
959 2 4.49247 7.14075 3.46781
960 2 5.31578 7.81832 3.38527
961 2 9.09449 3.26092 7.40289
962 2 8.08241 5.27141 6.44005
963 2 2.27722 1.93248 4.19527
964 2 0.96858 7.48333 4.73776
965 2 5.39126 1.82711 8.96072
966 2 9.2105 5.13938 8.8267
967 2 2.90603 1.39985 8.35981
968 2 5.86059 0.907854 5.22991
969 2 6.26777 8.22628 2.92657
970 2 7.53097 3.9028 2.44472
971 2 1.85316 7.44442 3.02564
972 2 3.00849 5.34338 1.8944
973 2 5.21536 3.49547 9.27726
974 2 4.83953 5.37475 6.29241
975 2 4.09185 0.514003 5.26454
976 2 4.53224 0.525066 1.41952
977 2 8.54506 3.68066 0.389904
978 2 8.81459 2.0872 0.1745
979 2 6.98837 7.83575 3.61773
980 2 5.38439 8.58124 8.86607
981 2 5.83188 1.45432 6.46965
982 2 2.34118 7.34722 1.07414
983 2 5.1464 7.48289 1.76934
984 2 8.87734 0.836405 0.591872
985 2 4.60846 1.65548 8.29929
986 2 5.32783 2.20655 3.0379
987 2 0.0805694 1.64328 6.56029
988 2 6.37145 7.66203 7.59205
989 2 5.50644 4.95462 0.0904697
990 2 7.00296 8.11662 0.275195
991 2 4.91733 4.2563 7.68374
992 2 0.627381 7.0202 7.50753
993 2 4.75859 2.84604 4.31933
994 2 8.95787 8.78471 8.08956
995 2 8.74643 5.90697 8.52547
996 2 8.65122 7.01711 0.474778
997 2 3.84856 2.74075 0.337536
998 2 5.97201 1.45922 7.36651