#bin. KALJ data file T=0.5

1000 atoms
2 atom types

0 9.4 xlo xhi
0 9.4 ylo yhi
0 9.4 zlo zhi

Masses

1 1.0
2 1.0

Atoms

1 1 1.14971 6.81954 7.34653
2 1 3.36727 7.08561 0.673525
3 1 4.50335 2.04645 1.07163
4 1 0.701126 2.86217 1.32772
5 1 6.86973 4.24378 5.19733
6 1 8.92496 6.47763 7.31424
7 1 7.66245 6.66558 0.145853
8 1 6.82899 5.47095 3.98707
9 1 5.84487 2.34372 4.29776
10 1 3.29579 5.0028 3.50277
11 1 3.15518 8.58835 7.53133
12 1 5.41997 6.37634 0.982327
13 1 5.48041 7.78321 7.28114
14 1 3.93043 3.84808 4.18094
15 1 5.40316 3.47214 0.540198
16 1 1.92547 1.22718 4.45507
17 1 9.35373 5.85673 8.04319
18 1 2.13234 7.15394 6.83614
19 1 7.97987 7.91388 7.93498
20 1 1.30215 2.192 1.72622
21 1 5.30862 4.16621 9.26424
22 1 1.80584 1.19824 3.12531
23 1 1.57877 5.57098 5.85548
24 1 7.392 5.33212 1.10299
25 1 0.2525 8.26108 4.55749
26 1 7.51167 3.17001 2.05634
27 1 6.33162 2.9905 4.73445
28 1 5.00931 7.46685 1.54163
29 1 4.67219 8.80694 8.07601
30 1 1.25087 3.94032 5.74038
31 1 0.848511 0.598356 6.8893
32 1 5.39298 8.68332 7.27453
33 1 4.26726 8.30367 8.74876
34 1 4.93474 2.10896 6.71405
35 1 2.5657 0.733483 4.73141
36 1 5.83981 5.78657 6.68443
37 1 1.70161 3.03985 1.783
38 1 4.15979 0.566277 0.185728
39 1 7.30393 2.86835 8.62982
40 1 1.45628 1.85695 5.38125
41 1 7.63704 6.41152 6.72115
42 1 0.200142 4.98264 9.0281
43 1 5.65389 1.12528 0.912618
44 1 8.70754 4.136 9.02844
45 1 2.40353 2.60607 5.7928
46 1 9.24503 2.26199 4.61739
47 1 0.472152 6.99978 9.15973
48 1 7.78529 3.82215 8.15418
49 1 4.2577 5.5538 8.49456
50 1 7.84045 3.71725 6.58405
51 1 2.51035 7.32154 2.68536
52 1 3.63685 1.81797 1.34736
53 1 0.653887 1.16557 7.66498
54 1 8.29986 0.470778 1.65789
55 1 4.71824 3.52147 4.5244
56 1 4.71103 6.96469 7.52623
57 1 6.47749 4.6276 4.32915
58 1 2.45973 5.33508 5.43429
59 1 2.1826 4.07564 3.19693
60 1 4.83738 4.14347 5.25987
61 1 6.43292 7.9224 3.29251
62 1 0.944145 4.55268 7.09414
63 1 8.94202 6.71993 8.78159
64 1 6.46324 1.41302 8.03684
65 1 0.215159 0.929847 8.49944
66 1 4.86432 5.48447 2.28848
67 1 2.35119 0.586683 8.43034
68 1 5.90978 0.17652 0.609995
69 1 6.51654 1.88441 3.42339
70 1 0.144736 8.32899 7.59421
71 1 7.31432 7.78599 1.79101
72 1 4.81476 3.89468 1.16582
73 1 6.08296 7.49185 4.14817
74 1 1.67314 9.25798 8.34381
75 1 2.15265 6.62283 5.80787
76 1 6.80958 8.37664 2.50408
77 1 0.0251114 6.1433 4.24559
78 1 3.99361 4.35154 6.06169
79 1 7.75061 2.33055 5.82687
80 1 1.40857 8.35519 7.33235
81 1 0.53188 3.60693 0.851362
82 1 7.05884 1.15311 7.31778
83 1 7.28683 8.14611 6.83266
84 1 3.85737 7.34674 5.82615
85 1 2.8482 4.51893 8.94824
86 1 6.06651 4.67866 0.306524
87 1 4.03829 8.06401 1.76429
88 1 3.06509 7.33779 7.72244
89 1 7.30856 5.7305 6.21821
90 1 8.78567 5.81901 3.34586
91 1 7.57876 6.0456 7.62326
92 1 3.93292 6.46298 8.7173
93 1 3.35229 5.36383 1.62963
94 1 3.02715 7.88728 3.10067
95 1 8.31579 5.57845 8.01747
96 1 3.71732 4.92257 0.899604
97 1 5.58608 8.28651 5.57275
98 1 2.47966 3.70638 5.89628
99 1 2.55027 8.31945 0.39578
100 1 7.83887 6.77871 4.68609
101 1 7.00283 4.88796 7.26442
102 1 2.70844 0.934275 6.37133
103 1 1.69088 2.62508 4.67688
104 1 0.38342 0.371701 5.14523
105 1 7.85039 0.311481 7.15194
106 1 5.26422 8.00047 4.51769
107 1 8.51952 7.2221 0.0654965
108 1 2.33259 4.65244 0.331656
109 1 0.55421 6.15752 2.23614
110 1 6.34852 5.62857 2.77868
111 1 2.91014 4.37978 1.54772
112 1 0.23877 7.46831 8.3444
113 1 3.68276 8.25219 5.66586
114 1 9.31686 0.600376 0.857068
115 1 5.4632 1.38152 6.44192
116 1 0.459094 6.00198 0.163311
117 1 4.8465 6.20746 0.282038
118 1 0.865525 1.66566 8.61272
119 1 8.7011 6.54824 5.07865
120 1 0.987964 4.91458 5.69574
121 1 7.67393 4.41222 2.84044
122 1 3.67947 4.97149 2.58016
123 1 7.36527 2.89978 5.1046
124 1 3.51187 5.8544 7.83978
125 1 0.108127 1.97323 3.79382
126 1 3.21429 1.36144 5.08593
127 1 9.06472 5.47875 7.06103
128 1 0.572654 0.689269 1.48204
129 1 4.06255 3.49266 5.40325
130 1 0.0823756 3.77628 8.65989
131 1 8.4147 5.09955 1.21814
132 1 6.53098 7.00262 3.28898
133 1 7.2089 2.98852 6.26009
134 1 7.89818 3.90706 3.74138
135 1 3.09766 1.92056 7.6621
136 1 2.57388 4.89807 6.99277
137 1 5.25815 0.754458 5.27455
138 1 8.50786 3.82456 0.956272
139 1 9.0658 2.88337 0.747347
140 1 3.32308 2.56761 6.38168
141 1 3.98193 6.60399 5.20638
142 1 4.74781 4.00578 8.11407
143 1 5.9617 5.40343 7.47697
144 1 6.01755 2.3764 2.4301
145 1 3.22868 1.20159 3.84292
146 1 7.65179 8.53131 4.57726
147 1 2.2938 4.76872 3.84858
148 1 8.84426 4.52522 3.07875
149 1 1.71828 9.3663 2.10781
150 1 0.976134 7.43293 4.41761
151 1 9.06108 3.14794 6.25462
152 1 6.01096 0.517475 2.07364
153 1 6.95277 0.762652 2.10905
154 1 2.57768 7.92863 7.05468
155 1 7.04741 6.56567 5.67188
156 1 3.66645 4.0901 8.07672
157 1 7.1399 8.18759 0.632774
158 1 0.328016 7.33541 6.61563
159 1 5.00372 0.732879 9.058
160 1 6.9243 2.11723 8.31016
161 1 2.94423 8.48805 8.49632
162 1 0.407954 7.78617 1.28577
163 1 7.63527 9.34396 3.87755
164 1 4.2474 4.15117 1.7077
165 1 8.1821 1.446 6.03918
166 1 3.30048 9.3357 0.596133
167 1 8.36056 5.81958 2.39301
168 1 3.25006 6.185 9.30761
169 1 1.09977 7.68714 6.92541
170 1 8.94477 1.58802 6.9113
171 1 3.46138 8.55366 4.67052
172 1 6.74884 5.6621 1.83961
173 1 1.68369 2.23951 3.03972
174 1 7.06958 5.1512 4.93504
175 1 4.06217 0.386735 2.0589
176 1 1.61929 6.01092 3.27372
177 1 3.34218 2.09683 4.01918
178 1 2.11487 5.15902 8.74263
179 1 4.37756 1.75819 4.57858
180 1 3.28389 6.17376 2.26709
181 1 7.9333 1.15356 9.25375
182 1 6.91096 7.47076 5.86596
183 1 1.1368 4.17687 8.00541
184 1 1.33068 5.5609 2.60515
185 1 7.04457 7.70827 8.56668
186 1 8.67376 1.21808 8.65824
187 1 4.74999 2.4121 9.40684
188 1 0.354597 3.89622 7.70172
189 1 6.2669 3.58516 7.48898
190 1 3.83925 7.02155 4.21889
191 1 5.56932 2.15167 8.21319
192 1 9.12011 6.5161 0.319371
193 1 3.16316 2.63224 1.36639
194 1 0.742649 1.67763 1.14297
195 1 0.972308 7.00091 8.34518
196 1 9.17777 4.98506 5.88164
197 1 3.64047 0.304391 3.80795
198 1 4.51795 4.69944 6.77497
199 1 6.43424 2.86665 3.78781
200 1 2.2566 2.04583 6.44288
201 1 9.20742 7.3615 7.32424
202 1 6.73584 8.98462 8.82583
203 1 7.66576 0.483208 0.415738
204 1 3.97587 5.48829 6.8373
205 1 0.738081 5.4494 1.84649
206 1 4.24305 7.72452 -0.0103742
207 1 7.58574 4.95809 7.90833
208 1 8.15269 5.22194 2.9818
209 1 0.881116 2.36807 3.48311
210 1 8.95978 4.52039 0.67782
211 1 8.36743 6.02082 0.162739
212 1 8.08089 3.51582 2.83055
213 1 3.79549 4.7576 7.51222
214 1 3.66723 2.48326 4.8896
215 1 9.21049 8.31113 5.38665
216 1 0.786182 0.188381 8.25982
217 1 2.57006 6.18599 1.55256
218 1 8.78816 2.74138 2.31674
219 1 3.63489 2.13734 2.51384
220 1 4.53094 7.4325 8.4043
221 1 4.81255 1.84903 8.5173
222 1 8.75155 4.03545 3.90171
223 1 0.200556 0.924455 6.19603
224 1 4.31047 8.2555 4.28143
225 1 5.74134 7.47777 5.26429
226 1 6.35455 8.08094 9.32671
227 1 8.37865 3.30333 7.57403
228 1 5.45759 6.19068 7.76954
229 1 0.403948 1.45487 1.90916
230 1 8.6674 0.147779 3.96676
231 1 6.54194 2.04382 1.04561
232 1 2.44104 3.65952 2.13562
233 1 2.31361 5.64401 0.836662
234 1 6.14376 5.03067 3.49507
235 1 8.68915 4.58551 5.06886
236 1 5.61676 6.1434 3.96272
237 1 3.3168 4.99644 5.49991
238 1 4.0936 2.62494 5.75592
239 1 6.17478 0.091286 3.00407
240 1 8.25904 4.06645 5.82672
241 1 4.99969 2.01814 2.94096
242 1 1.9211 4.7517 7.87184
243 1 9.0089 1.14423 3.26267
244 1 1.357 6.09936 8.91998
245 1 7.7349 9.22766 5.73913
246 1 1.43274 8.53126 3.94719
247 1 2.94161 2.9399 3.80464
248 1 2.91026 1.2696 2.86331
249 1 5.41566 3.23531 3.83105
250 1 0.343058 4.29307 2.81527
251 1 5.0672 3.38299 1.80322
252 1 4.03634 2.06766 3.45148
253 1 0.209091 8.87022 3.66786
254 1 5.32055 5.10133 6.67688
255 1 3.25635 0.185207 1.44251
256 1 0.910052 8.71372 8.15685
257 1 3.27921 7.89616 0.0337641
258 1 2.235 6.11225 8.89299
259 1 3.89656 9.03357 7.18886
260 1 6.22738 4.28594 6.30822
261 1 4.96887 4.80331 3.744
262 1 3.40453 1.26616 8.50445
263 1 5.60298 6.84161 4.55657
264 1 1.10504 4.76747 8.98012
265 1 5.56952 7.91205 0.818734
266 1 5.01409 0.045902 6.23207
267 1 8.16793 1.55405 3.48467
268 1 3.80681 8.95386 8.21285
269 1 7.12122 6.53509 8.42978
270 1 5.96232 6.11426 0.23903
271 1 7.36802 4.54264 6.33054
272 1 8.48779 8.21633 9.27069
273 1 7.77973 4.36565 4.80031
274 1 0.154712 7.87212 0.149919
275 1 3.86495 0.40523 7.80822
276 1 9.19796 6.652 3.50696
277 1 7.13471 4.91999 8.8659
278 1 2.07871 7.78533 1.84658
279 1 8.97291 6.46246 2.70622
280 1 0.249781 1.23293 4.31875
281 1 8.089 1.89956 6.86102
282 1 2.60466 9.2203 8.86182
283 1 3.03379 1.94958 9.19271
284 1 2.20717 8.8329 7.71733
285 1 6.92063 6.99826 4.65634
286 1 5.4069 0.638344 3.22745
287 1 4.02737 0.490018 6.8707
288 1 3.07092 6.89313 5.50143
289 1 0.63696 2.51088 0.44143
290 1 3.46789 3.51777 6.26739
291 1 2.86368 4.28417 7.78854
292 1 8.34056 8.03961 3.67238
293 1 8.17233 3.08441 0.647932
294 1 1.0281 8.35119 0.783634
295 1 8.87134 5.93861 1.09563
296 1 3.617 2.80243 3.23478
297 1 1.66384 5.24982 0.336432
298 1 7.09318 0.413197 3.18736
299 1 0.277416 9.12331 7.51303
300 1 8.14864 1.38137 1.74553
301 1 5.29976 0.490401 7.00723
302 1 9.28786 1.59161 0.649635
303 1 3.50057 3.19431 8.38586
304 1 9.17675 7.6726 3.76431
305 1 3.01112 6.66583 3.07925
306 1 6.21743 1.81962 6.93595
307 1 6.22018 7.5292 8.52263
308 1 5.71057 1.6189 3.77853
309 1 4.1288 2.88441 1.73836
310 1 6.18073 4.09342 2.11655
311 1 5.31043 6.74349 6.80676
312 1 0.599164 3.28622 6.47057
313 1 9.19965 7.1981 0.877158
314 1 8.54523 7.42619 5.38497
315 1 2.07296 1.69589 0.338742
316 1 7.1637 7.55236 2.83503
317 1 6.82658 2.48945 6.96894
318 1 9.13694 5.77304 9.00444
319 1 5.97597 0.356783 6.34673
320 1 6.79249 8.28679 7.48169
321 1 4.66128 1.64758 6.00592
322 1 4.57255 3.68722 6.35994
323 1 5.27592 1.73519 5.12684
324 1 4.58034 8.49203 1.32009
325 1 8.62116 2.21745 3.96303
326 1 5.30577 5.42705 3.2329
327 1 1.59965 3.5338 2.60701
328 1 5.75528 2.5348 5.23701
329 1 7.34782 5.98513 4.63092
330 1 5.69357 4.57068 5.26662
331 1 8.09891 4.4935 1.92749
332 1 4.02543 7.12499 3.16139
333 1 4.90564 3.97499 7.22627
334 1 1.11097 5.1668 3.42551
335 1 0.5032 6.00911 8.68292
336 1 8.41542 7.04334 3.94763
337 1 0.277788 7.00275 1.83013
338 1 6.01483 8.73197 0.72065
339 1 1.50648 2.89722 5.5519
340 1 9.26765 4.00727 6.10046
341 1 4.18169 0.0716354 0.968964
342 1 6.19874 0.813866 7.11278
343 1 4.6243 6.70761 5.97801
344 1 5.33181 3.26431 7.6889
345 1 6.71261 6.48699 2.62769
346 1 4.0509 1.04555 3.44717
347 1 7.48496 8.99047 2.91324
348 1 2.5422 5.46846 9.41107
349 1 0.268857 3.42453 5.40626
350 1 3.74574 9.07471 6.31535
351 1 0.765592 3.21335 8.50399
352 1 8.90755 0.689001 5.329
353 1 4.76531 1.07648 0.725793
354 1 6.70737 8.25702 4.13703
355 1 7.98587 6.3774 1.74016
356 1 0.415438 9.34881 0.257787
357 1 0.693386 4.03704 9.2175
358 1 5.10388 2.42663 2.08893
359 1 8.85744 6.67571 1.75416
360 1 9.13021 8.61433 6.38962
361 1 6.07081 3.66231 3.55833
362 1 2.57571 5.27201 4.53014
363 1 3.98404 1.80372 8.85151
364 1 5.42272 3.06329 2.71221
365 1 5.33609 7.11951 2.39694
366 1 6.2502 3.71228 0.311304
367 1 2.51196 3.36061 1.26028
368 1 2.86794 5.15406 7.76679
369 1 4.83128 7.17541 4.96802
370 1 4.14083 9.29087 4.50493
371 1 3.62356 6.20445 3.40255
372 1 3.38003 5.26801 0.0568125
373 1 6.33957 8.83038 5.57691
374 1 6.84683 2.43442 0.180794
375 1 8.27433 6.81141 8.02783
376 1 1.35609 5.88023 0.952725
377 1 1.59347 3.5093 4.79747
378 1 4.71456 4.07237 3.35512
379 1 2.67527 7.45065 1.30379
380 1 3.97594 2.59599 0.589376
381 1 3.62814 1.21361 7.4193
382 1 1.03715 1.82347 2.63031
383 1 8.26516 4.8334 3.84475
384 1 2.06965 7.45177 0.564231
385 1 3.43251 4.86165 6.61442
386 1 8.56241 8.66914 8.08623
387 1 0.0578362 0.0396806 1.88256
388 1 6.84148 9.03432 0.348324
389 1 1.12651 2.7985 2.4765
390 1 2.85587 6.9718 9.25413
391 1 8.16278 8.45005 6.29902
392 1 0.190185 0.790515 2.69869
393 1 6.34757 3.22985 2.26106
394 1 6.62602 6.20437 1.04213
395 1 0.247865 4.35142 5.38186
396 1 8.28871 5.19529 8.87195
397 1 0.237806 0.327332 4.00825
398 1 6.72197 4.78103 1.43875
399 1 6.97833 3.31445 0.156493
400 1 4.38501 8.93957 3.63968
401 1 1.62947 1.01686 7.66984
402 1 0.172567 7.24218 2.99642
403 1 2.12529 1.63975 2.51384
404 1 5.9264 7.88706 1.69884
405 1 7.0974 9.08298 4.98236
406 1 6.8473 2.96018 1.43499
407 1 9.28138 2.85515 7.97323
408 1 1.87119 6.78842 2.87597
409 1 2.1755 5.99972 4.97538
410 1 9.08583 8.87633 9.31744
411 1 2.0131 9.02077 2.97857
412 1 2.19774 8.22308 3.67919
413 1 8.8666 0.806083 0.096694
414 1 4.85809 6.17648 5.0462
415 1 0.197378 1.97874 7.39487
416 1 5.44955 5.44716 8.35576
417 1 1.29266 5.30037 8.19608
418 1 7.74622 1.64735 4.39443
419 1 1.45795 2.25963 0.578256
420 1 6.32096 7.48812 2.40116
421 1 0.546513 6.95227 3.82864
422 1 5.16382 0.0632254 2.2116
423 1 8.46428 3.09564 3.88678
424 1 3.19613 6.25038 0.949392
425 1 4.42209 9.05633 2.66862
426 1 8.15427 0.124026 9.22109
427 1 1.64957 6.33669 8.11303
428 1 1.70754 8.99694 6.77443
429 1 7.34804 9.14669 1.90722
430 1 2.57274 8.01687 7.90089
431 1 9.39755 1.63484 9.06949
432 1 6.40353 9.14923 2.13696
433 1 3.79017 2.40861 7.4267
434 1 1.38571 0.832452 8.49682
435 1 1.28719 7.7111 1.59018
436 1 5.85312 0.181167 7.85057
437 1 5.1635 4.82098 7.5363
438 1 1.56048 6.11723 1.80959
439 1 3.09683 6.37347 4.49465
440 1 6.853 7.06529 9.14778
441 1 6.51464 8.76788 3.41463
442 1 7.10621 5.11101 3.1768
443 1 1.85747 8.13624 6.56949
444 1 3.00117 5.87203 7.03933
445 1 0.745635 2.73768 7.24628
446 1 4.05906 6.65943 0.193778
447 1 3.37872 3.48821 9.24334
448 1 3.55229 0.557381 2.92773
449 1 1.2928 1.0945 2.09773
450 1 9.3194 8.34848 8.49573
451 1 3.41257 8.82584 2.10734
452 1 5.21096 0.530637 1.42121
453 1 3.30979 3.36347 7.37331
454 1 0.685621 2.7175 5.7679
455 1 1.43363 6.85562 1.17706
456 1 4.30387 0.477244 5.05475
457 1 9.17797 2.43914 5.54233
458 1 0.324869 6.47245 6.4332
459 1 3.10492 3.44252 4.68623
460 1 6.04445 1.00829 5.72681
461 1 0.431036 4.48225 0.607576
462 1 0.329306 5.34833 5.29163
463 1 2.45865 2.66038 8.70936
464 1 8.23451 7.23821 7.21256
465 1 4.80449 8.70527 6.59998
466 1 7.9669 2.08241 8.8633
467 1 2.95255 4.00111 0.734829
468 1 2.7042 0.335754 3.81865
469 1 6.16851 6.5179 8.64413
470 1 9.35321 3.46197 4.42086
471 1 8.1192 2.57455 3.1337
472 1 4.6384 2.67872 5.02028
473 1 3.25808 2.33862 8.41253
474 1 0.710414 8.6003 6.68081
475 1 1.50838 3.16316 0.777469
476 1 6.18796 6.62045 5.4854
477 1 0.0344285 5.12631 3.57315
478 1 0.190525 2.36995 1.74535
479 1 3.9012 7.86983 7.88506
480 1 5.84648 8.69992 4.68924
481 1 8.78648 5.55502 5.18854
482 1 5.90086 5.29274 5.91169
483 1 3.22243 7.2442 6.78045
484 1 6.86026 2.0978 4.44366
485 1 7.83613 5.36565 6.90417
486 1 7.92035 3.3908 8.98044
487 1 2.44026 5.77038 8.09918
488 1 2.48723 1.85302 5.36785
489 1 2.82113 7.04936 3.89059
490 1 3.9677 5.75942 0.628024
491 1 6.70906 5.78045 6.98378
492 1 1.5533 6.80549 4.93236
493 1 8.21117 8.82643 3.37783
494 1 8.66458 2.80439 9.21506
495 1 8.34576 3.20387 1.54511
496 1 5.57335 6.20127 5.86178
497 1 6.34567 2.76599 8.87333
498 1 0.206704 8.43979 2.16561
499 1 4.92647 5.85387 6.47521
500 1 8.43116 1.97408 0.204072
501 1 2.43478 3.51647 9.34169
502 1 8.55588 2.46385 6.32166
503 1 8.97946 1.99925 8.25246
504 1 4.58426 6.39361 8.11412
505 1 3.35026 0.303695 4.58877
506 1 7.48216 5.67758 9.38519
507 1 0.206525 2.59289 8.97408
508 1 4.91507 7.34393 0.595876
509 1 8.90595 5.38359 4.27254
510 1 3.20026 0.877208 0.590076
511 1 0.646023 1.49432 6.6547
512 1 1.91253 0.426179 6.98588
513 1 5.26966 6.7553 9.08632
514 1 2.094 8.97785 0.573361
515 1 0.7563 5.27058 4.36492
516 1 6.90147 4.88535 2.39815
517 1 7.11962 3.95544 2.06801
518 1 7.87054 8.70889 7.42647
519 1 4.85237 4.76811 4.62548
520 1 2.03042 3.9759 0.999173
521 1 4.63947 1.20969 6.86494
522 1 3.93147 1.22632 2.55534
523 1 2.67667 1.05746 9.15031
524 1 1.58949 8.19854 2.56233
525 1 8.00496 0.502157 3.13209
526 1 8.00109 6.13527 8.70214
527 1 0.802127 1.03856 3.271
528 1 3.91325 0.887735 1.20225
529 1 5.64975 7.2131 7.86991
530 1 6.53011 1.18283 2.84019
531 1 8.24734 1.83174 7.75098
532 1 3.05937 4.14734 5.46392
533 1 7.05521 1.36127 9.03552
534 1 1.46541 7.66972 3.2929
535 1 1.93206 7.39462 4.01319
536 1 1.18762 0.310804 9.23762
537 1 2.85265 7.91239 5.22009
538 1 4.57958 4.62147 2.37388
539 1 8.44387 1.06549 0.971021
540 1 1.82346 4.19884 8.80034
541 1 3.19354 7.70851 4.28093
542 1 6.69524 0.827916 0.297052
543 1 3.41192 8.8007 9.21609
544 1 7.59789 7.64839 5.18806
545 1 5.35343 9.03731 2.9569
546 1 0.687198 4.37031 6.27405
547 1 3.87157 7.23671 1.42129
548 1 2.49005 4.41688 4.65086
549 1 6.55945 0.315692 5.68158
550 1 9.28331 3.3334 1.77946
551 1 7.52588 5.93524 3.49628
552 1 0.115822 4.52927 4.40249
553 1 2.25876 0.0787723 5.48078
554 1 -0.0341372 1.8992 2.82263
555 1 5.20441 0.960663 4.29783
556 1 3.13823 7.98641 1.90883
557 1 7.28246 1.80272 6.43001
558 1 1.47888 6.30151 6.55413
559 1 6.12257 2.89051 0.493553
560 1 3.35186 2.12623 5.5455
561 1 8.64437 9.39507 0.504918
562 1 3.26515 5.96528 5.29605
563 1 0.458392 8.96048 1.30179
564 1 5.66857 9.36285 5.40683
565 1 7.30936 1.8113 2.81525
566 1 7.09882 6.73242 1.57729
567 1 7.20181 1.99122 7.54007
568 1 1.29345 1.9662 7.79586
569 1 6.61263 9.30028 1.31917
570 1 5.11063 9.40517 4.70641
571 1 4.55189 6.85547 2.17196
572 1 8.27547 1.04349 6.97988
573 1 8.12359 9.37705 4.80305
574 1 7.97862 4.92674 5.54454
575 1 4.44913 4.41802 0.59484
576 1 8.60166 3.38227 8.47158
577 1 7.39862 8.26266 3.45236
578 1 5.40165 7.37608 3.57361
579 1 2.34796 7.92881 8.94077
580 1 5.53088 3.84384 5.8421
581 1 5.98896 8.50888 8.50697
582 1 4.06945 2.74237 4.09735
583 1 7.85155 7.18847 8.76997
584 1 1.94458 8.50948 5.59257
585 1 7.3178 0.603564 5.21092
586 1 0.547604 6.48477 4.84417
587 1 5.4763 5.30631 1.5554
588 1 7.19835 7.23719 0.825587
589 1 5.68337 3.56017 5.03787
590 1 7.23862 3.16448 7.63633
591 1 3.59321 7.25456 8.64979
592 1 4.08415 5.85949 2.48723
593 1 4.87145 2.39582 3.82393
594 1 6.4599 7.66211 0.888817
595 1 4.80054 2.97754 8.56323
596 1 8.44578 4.7458 6.42876
597 1 9.01756 4.95744 8.32675
598 1 8.65941 8.42935 2.39171
599 1 4.73242 2.27321 7.49558
600 1 8.08815 7.8723 0.772331
601 1 4.47914 2.88216 6.89644
602 1 6.00474 6.95059 0.444704
603 1 1.79224 5.51705 4.14569
604 1 7.25556 9.00224 6.525
605 1 7.65052 7.60389 4.21551
606 1 0.874097 6.34305 5.69835
607 1 2.41313 1.71705 3.71447
608 1 7.00007 3.85253 2.99362
609 1 0.460724 5.54671 6.26332
610 1 5.34214 5.39753 5.09599
611 1 7.0808 1.34757 3.75107
612 1 8.81103 4.10785 7.84902
613 1 1.49118 4.41467 4.22321
614 1 1.66586 7.5397 5.57044
615 1 7.81376 2.54099 4.06395
616 1 2.96548 3.46145 2.92923
617 1 4.67799 5.81722 1.49124
618 1 7.31888 0.289219 8.89557
619 1 0.681467 7.96685 3.60822
620 1 8.92405 9.15141 1.24529
621 1 2.05786 5.01279 2.95245
622 1 4.25039 5.07531 -0.00527591
623 1 4.52271 9.08934 9.1204
624 1 6.14182 6.5534 7.29062
625 1 0.73276 3.86801 4.75381
626 1 4.75841 5.66127 4.29157
627 1 1.27867 9.31628 0.937472
628 1 5.7765 6.18579 1.982
629 1 4.75915 2.88294 1.06271
630 1 3.44898 4.06353 2.37138
631 1 3.75302 4.04582 7.0445
632 1 7.58774 3.41297 1.2088
633 1 0.459278 5.28209 2.76042
634 1 9.18985 0.751721 7.1669
635 1 1.85492 5.60627 7.41539
636 1 0.0289027 4.85986 2.07076
637 1 6.77792 2.11961 2.24208
638 1 2.70563 7.62636 6.01119
639 1 5.52438 3.00529 6.072
640 1 2.59298 4.57264 2.50951
641 1 6.33954 4.44223 8.80426
642 1 7.13814 3.99777 8.83961
643 1 7.6717 0.568339 6.27189
644 1 8.17539 9.24519 2.41904
645 1 3.28028 8.42251 3.77155
646 1 4.43732 0.765075 5.97064
647 1 0.0976187 1.38788 5.21865
648 1 7.5794 6.19777 0.847788
649 1 5.6704 2.66922 7.0693
650 1 2.4187 6.86585 4.86624
651 1 7.99451 8.59635 1.38107
652 1 0.61178 5.94807 7.18629
653 1 9.08816 0.92818 1.72112
654 1 5.61671 2.40271 9.33427
655 1 3.00677 5.52787 6.12968
656 1 5.72602 5.29972 4.18437
657 1 5.68822 2.18822 0.892928
658 1 5.6283 2.47607 3.38221
659 1 5.30302 4.61844 0.952764
660 1 9.16897 9.37206 8.33727
661 1 1.23355 5.37113 6.65194
662 1 2.15841 5.72192 6.59859
663 1 3.72367 6.45785 6.09252
664 1 4.78326 5.39526 0.708823
665 1 2.72714 8.87696 6.75567
666 1 8.95167 9.15387 3.03749
667 1 7.99667 6.77979 5.91916
668 1 0.962091 7.4948 0.555353
669 1 2.21425 2.74102 2.407
670 1 0.777625 5.28106 0.300116
671 1 4.0231 1.59917 0.446849
672 1 2.3481 9.36395 1.45249
673 1 2.73446 4.04653 6.89332
674 1 5.13085 9.16606 0.940285
675 1 9.01844 8.42602 0.635172
676 1 3.83063 4.72658 8.70456
677 1 3.56957 4.31739 0.0375446
678 1 2.47833 8.60635 2.1469
679 1 1.62817 3.43525 6.39392
680 1 6.47379 1.63251 5.33984
681 1 2.10224 2.92048 3.42314
682 1 2.75451 2.20255 3.03036
683 1 1.62078 1.40624 6.85861
684 1 2.59977 1.03161 7.5828
685 1 4.59573 8.18805 5.17235
686 1 4.01253 7.96773 3.38645
687 1 1.67948 2.84415 8.34194
688 1 5.87005 3.92788 1.12781
689 1 4.104 8.71521 0.409454
690 1 7.0979 0.476068 8.01368
691 1 5.59877 4.35622 3.18288
692 1 6.7876 4.02266 6.90315
693 1 8.7964 7.48661 8.08434
694 1 8.25539 6.71158 0.91325
695 1 4.22729 7.26604 6.66804
696 1 9.23275 9.19016 4.82415
697 1 4.02726 6.37704 6.97493
698 1 4.85017 1.41837 3.65904
699 1 7.00501 4.62008 0.398292
700 1 6.29557 8.93075 6.87914
701 1 4.17024 2.49902 8.24047
702 1 8.73841 0.567662 6.32948
703 1 5.35684 1.17773 2.51277
704 1 2.42189 2.95201 6.6794
705 1 0.519161 5.01074 7.97452
706 1 0.430013 6.1765 1.21957
707 1 2.13921 6.52783 0.738451
708 1 7.93674 5.98558 5.37623
709 1 4.05081 1.02092 4.34063
710 1 1.48417 0.687566 1.19706
711 1 6.29655 7.5753 7.0889
712 1 7.53605 2.38842 1.12703
713 1 4.27699 1.54251 7.96871
714 1 1.77979 7.49102 7.55056
715 1 7.85495 3.44391 4.61132
716 1 9.03757 2.67355 3.34138
717 1 4.7682 7.82255 6.0795
718 1 7.68867 3.86682 0.354182
719 1 9.29068 3.69524 0.145439
720 1 1.76051 8.0389 8.34397
721 1 8.37782 7.64778 2.78587
722 1 8.25831 2.61667 8.20099
723 1 2.74614 3.71431 8.4875
724 1 8.90199 1.84046 1.47943
725 1 5.92774 7.02401 6.22936
726 1 4.09006 5.44046 5.9125
727 1 0.759831 2.9523 4.53421
728 1 4.62115 5.64511 7.52801
729 1 1.25534 3.13069 3.46242
730 1 5.29501 8.0553 8.13801
731 1 3.43408 3.6156 1.53052
732 1 8.02487 5.33745 4.56325
733 1 6.64684 2.58186 5.61911
734 1 2.53215 9.06498 4.81317
735 1 0.0921294 2.32245 6.50708
736 1 7.80622 6.95674 2.54639
737 1 1.60949 8.42064 9.32323
738 1 3.56344 8.19102 6.58475
739 1 6.19094 1.82601 0.101237
740 1 0.0950575 5.27019 1.21203
741 1 3.44309 0.33988 8.63362
742 1 1.33619 1.20583 0.0422733
743 1 5.96816 1.37018 4.59341
744 1 9.15178 5.35762 0.336418
745 1 8.80559 2.43294 7.20231
746 1 4.21192 3.70873 8.91697
747 1 4.31972 3.59414 2.45816
748 1 7.86547 7.52233 6.32303
749 1 6.33356 2.60212 7.81413
750 1 4.34372 8.1669 7.1955
751 1 1.69233 8.65248 1.44216
752 1 6.61841 5.87886 5.38056
753 1 2.04973 2.76376 0.0825113
754 1 7.92053 4.44788 8.85549
755 1 2.03244 6.43607 3.99851
756 1 6.84464 6.97078 6.59684
757 1 4.04484 5.40522 4.99967
758 1 2.12848 6.90971 1.87114
759 1 1.02892 9.38012 3.59286
760 1 5.94866 3.07531 1.39767
761 1 0.35311 3.23149 3.42071
762 1 5.8834 8.26568 2.70136
763 1 0.960404 0.287444 2.72123
764 1 8.88569 4.19803 2.24259
765 1 5.96515 2.18406 6.20101
766 1 0.901699 9.15802 5.98954
767 1 3.77203 6.82461 7.84464
768 1 3.11993 7.04236 2.05106
769 1 1.22074 9.35143 7.3922
770 1 5.72171 3.47374 8.8768
771 1 1.34726 4.34852 2.84671
772 1 3.8536 7.73747 2.48991
773 1 7.60222 4.39135 1.16181
774 1 7.32286 1.5241 5.2369
775 1 0.941715 7.9507 8.9386
776 1 8.75151 8.23113 7.18425
777 1 6.54354 6.07508 7.88617
778 1 6.51299 8.16521 6.25478
779 1 4.29583 4.81403 3.23173
780 1 5.69959 8.24106 3.74113
781 1 3.64305 8.75865 1.241
782 1 2.28388 0.628092 0.876309
783 1 8.77568 3.54904 5.13256
784 1 8.8576 7.67388 6.39423
785 1 0.761676 7.74019 2.63538
786 1 5.79897 0.934789 9.38844
787 1 5.98037 0.463037 4.73575
788 1 2.96847 2.92138 0.445846
789 1 8.11736 0.887291 5.39199
790 1 1.17699 4.84949 1.00353
791 1 2.89457 -0.005265 7.83223
792 1 2.87892 1.75843 0.749621
793 1 2.35232 1.79846 8.28391
794 1 8.49419 4.8527 7.49054
795 1 6.54445 5.01846 8.06903
796 1 0.722883 9.04588 4.4657
797 1 2.7774 8.5927 5.82051
798 1 1.29408 2.3209 6.26353
799 1 1.76444 1.96698 8.96019
800 1 1.95923 5.062 1.35284
801 2 6.59601 7.97394 4.979
802 2 4.81579 4.84285 8.56258
803 2 6.22957 5.55507 8.86362
804 2 6.66639 1.00381 1.21134
805 2 1.93746 3.81409 7.9781
806 2 6.67541 5.0128 5.70695
807 2 6.51316 6.17933 6.24876
808 2 1.44739 4.25407 0.2735
809 2 2.41391 2.60119 7.75692
810 2 4.5637 6.68168 1.24655
811 2 4.41332 3.28861 0.286289
812 2 1.05697 2.50524 9.11207
813 2 0.591804 1.8216 5.77256
814 2 3.16205 0.465326 5.5818
815 2 0.728062 2.22926 5.00205
816 2 1.20906 7.06326 2.09732
817 2 2.43672 7.11669 8.43252
818 2 2.94176 9.32219 2.84985
819 2 6.9208 0.243554 7.04705
820 2 5.28094 4.37444 1.84202
821 2 9.22355 5.80831 1.91681
822 2 7.93815 4.80695 0.437545
823 2 3.98719 1.35579 5.37394
824 2 6.86734 3.71688 4.49552
825 2 8.7172 4.16374 6.95249
826 2 2.36326 4.78729 6.12615
827 2 0.479671 5.97991 3.41743
828 2 5.64818 4.12873 8.18907
829 2 2.83323 2.08142 2.02783
830 2 1.66801 4.33282 6.60419
831 2 0.241824 2.95623 2.54733
832 2 7.15299 5.68907 8.43407
833 2 6.51178 5.38964 0.797131
834 2 9.31774 3.25503 7.09236
835 2 6.87278 4.16108 7.98227
836 2 2.36022 3.55792 4.0807
837 2 8.31808 1.94406 5.27607
838 2 9.07093 3.64529 3.02168
839 2 1.07252 6.36315 4.02079
840 2 0.0126523 4.74168 7.22585
841 2 7.72123 8.1938 2.40196
842 2 0.938476 8.61101 3.026
843 2 0.810474 4.48565 2.0291
844 2 2.9466 4.17966 3.76664
845 2 7.96763 0.812262 4.32987
846 2 3.89133 9.22445 5.50759
847 2 3.99807 4.3279 4.98035
848 2 2.70152 5.66959 3.72974
849 2 1.16013 6.54053 0.39454
850 2 3.19977 2.89209 2.20094
851 2 4.7682 6.53364 3.72154
852 2 4.77813 4.96568 5.65152
853 2 5.60682 3.73892 6.84447
854 2 8.69783 7.88343 4.53268
855 2 8.70178 8.67139 4.13363
856 2 2.11899 8.19231 4.73674
857 2 5.54983 8.134 6.44834
858 2 8.81041 9.14614 7.12192
859 2 8.72915 0.54647 2.48553
860 2 5.59539 1.23614 8.55324
861 2 5.3025 8.44407 2.01981
862 2 8.16948 6.51691 3.19292
863 2 1.95311 9.27172 3.97685
864 2 0.521672 7.53307 5.18095
865 2 7.25899 2.84263 3.25729
866 2 1.37289 9.33916 5.25935
867 2 5.39601 5.18845 9.26501
868 2 7.21647 1.4516 1.72425
869 2 1.7863 4.23712 1.91386
870 2 9.05211 1.63304 5.94909
871 2 4.32574 5.75598 3.30309
872 2 7.72716 1.20314 8.28864
873 2 6.53544 3.45501 5.6406
874 2 3.86894 7.65187 4.95419
875 2 4.56017 3.11341 3.32292
876 2 3.65171 3.82057 3.2818
877 2 9.07638 9.24212 5.68589
878 2 7.2297 8.73742 8.17718
879 2 8.34426 5.75784 6.11533
880 2 0.700317 4.07022 3.78406
881 2 5.77834 9.20469 3.85943
882 2 3.12305 5.40383 8.58097
883 2 5.34151 7.82564 9.14453
884 2 5.27587 1.6336 0.208256
885 2 2.40331 3.19416 5.06956
886 2 3.9335 6.15936 4.48888
887 2 3.0734 1.68359 6.8193
888 2 6.30494 3.27508 6.53054
889 2 4.32461 0.72722 8.5592
890 2 3.78295 2.72864 9.07964
891 2 4.33139 2.62729 2.55098
892 2 6.01678 6.96554 1.57852
893 2 1.13018 0.602979 4.16744
894 2 1.0106 3.57119 7.21731
895 2 9.37202 6.06404 5.67464
896 2 0.34761 6.6967 7.84644
897 2 2.25793 0.485395 2.72357
898 2 4.84804 9.00984 5.45536
899 2 5.55216 1.62943 1.78266
900 2 2.18991 5.44185 2.19525
901 2 6.86969 3.98673 0.93
902 2 8.06676 2.19795 2.17248
903 2 7.65254 4.16833 7.28323
904 2 6.43286 5.06865 6.61202
905 2 2.21931 2.42258 1.17867
906 2 3.29086 7.95235 0.926978
907 2 8.64646 1.62044 2.54933
908 2 6.83834 1.01428 6.11073
909 2 2.44434 5.99295 2.81783
910 2 2.42577 6.5547 7.58
911 2 8.43478 6.1217 4.15263
912 2 1.79576 5.03514 4.9079
913 2 4.22261 3.39639 7.63856
914 2 7.29642 6.72512 3.90787
915 2 0.712501 3.588 1.98143
916 2 9.42316 7.02919 5.71845
917 2 5.54553 0.000750175 9.07425
918 2 1.60752 0.238692 6.17998
919 2 0.704961 7.96803 6.11118
920 2 6.25793 0.773113 3.68531
921 2 3.64129 8.65461 3.00142
922 2 4.62961 7.44553 4.0215
923 2 7.25148 7.33916 7.42114
924 2 6.61029 8.36678 1.41048
925 2 3.19747 3.09773 5.54794
926 2 2.05799 1.00583 5.5635
927 2 8.76002 1.28982 4.38044
928 2 1.61903 2.59728 7.04739
929 2 4.33796 5.02265 1.61937
930 2 6.59026 3.37692 8.36455
931 2 7.76845 0.932522 2.41436
932 2 5.37218 4.10084 4.16075
933 2 7.86547 9.10205 0.726589
934 2 4.9423 0.174785 7.89351
935 2 3.71884 1.60118 6.28968
936 2 2.76096 6.58822 6.40148
937 2 -0.00282201 4.09271 1.49559
938 2 3.76968 3.78116 0.651617
939 2 2.87647 1.1144 1.78708
940 2 7.77511 2.76096 7.02051
941 2 0.4893 0.864312 0.259032
942 2 4.89326 8.22375 3.27868
943 2 2.78677 2.40819 4.7676
944 2 8.3584 7.38971 1.46193
945 2 7.49991 3.63007 5.52603
946 2 7.60234 1.3453 0.645647
947 2 7.37129 8.33297 5.61132
948 2 3.07758 6.33943 8.39442
949 2 7.53431 7.62741 0.127938
950 2 0.185937 0.00475152 6.5796
951 2 1.23334 1.07455 6.00877
952 2 9.32515 8.17664 3.01623
953 2 6.3236 6.12087 4.50757
954 2 6.52832 7.08261 7.85699
955 2 8.25701 8.61483 5.31994
956 2 1.19744 0.959769 5.02288
957 2 8.39563 0.689068 7.81495
958 2 1.51735 7.22874 9.12057
959 2 4.75593 7.82905 2.3575
960 2 3.82041 6.32524 1.59069
961 2 2.1204 0.80278 1.8428
962 2 3.19701 0.367857 6.81504
963 2 7.56802 5.41093 1.98358
964 2 1.33418 5.73447 4.97151
965 2 5.78387 8.95846 1.514
966 2 8.48325 2.7088 4.75936
967 2 6.48127 0.578788 8.65295
968 2 5.74088 4.99444 2.56386
969 2 4.6459 0.40422 3.93647
970 2 2.06865 0.420383 -0.0527165
971 2 1.18292 8.27041 5.091
972 2 7.95294 9.36827 8.24956
973 2 0.92228 7.81286 7.79854
974 2 1.93507 4.27114 5.39965
975 2 5.18325 1.25045 7.61529
976 2 8.82034 6.75849 6.47277
977 2 4.56544 0.634175 2.86999
978 2 9.07594 7.77694 1.95126
979 2 8.24401 3.03167 5.63048
980 2 1.21705 4.03118 1.32659
981 2 1.6933 1.5963 1.1728
982 2 6.74035 6.19152 9.16289
983 2 0.846675 8.86623 9.03027
984 2 6.01533 4.4576 7.24984
985 2 2.63523 8.41605 1.28837
986 2 4.35551 1.84838 2.02488
987 2 2.29186 1.80551 7.33127
988 2 3.95229 4.80178 4.14708
989 2 4.68721 1.0201 1.91553
990 2 0.959099 8.8703 2.03608
991 2 4.94236 6.29576 2.86212
992 2 1.58307 1.98364 3.91083
993 2 7.62764 8.52111 8.99645
994 2 9.286 7.23119 4.55383
995 2 5.69811 6.70774 3.12757
996 2 6.73421 0.954524 4.6012
997 2 7.34513 4.69106 3.98648
998 2 6.63158 0.110028 4.07862
999 2 7.40163 0.448935 1.28675