#bin. KALJ data file T=0.5

1000 atoms
2 atom types

0 9.4 xlo xhi
0 9.4 ylo yhi
0 9.4 zlo zhi

Masses

1 1.0
2 1.0

Atoms

1 1 1.04615 8.02037 4.42138
2 1 4.82805 6.32704 7.96154
3 1 1.55038 4.82389 7.35146
4 1 9.17893 2.39157 0.790846
5 1 7.6134 2.29929 7.79008
6 1 1.92946 7.2384 0.918329
7 1 8.61946 1.87484 3.40625
8 1 2.65373 8.71793 6.38811
9 1 5.34455 5.00054 8.09242
10 1 0.173068 2.33963 4.86316
11 1 5.88749 4.70223 5.87407
12 1 7.76108 7.63869 1.34841
13 1 7.10903 8.59912 7.18652
14 1 5.77747 8.28101 -0.012435
15 1 7.16991 5.92855 0.959615
16 1 4.91569 7.06541 0.70389
17 1 5.5117 3.97307 6.50774
18 1 8.23752 4.86816 1.06399
19 1 4.28138 0.367151 2.00087
20 1 6.50097 8.64935 3.85178
21 1 7.01405 6.50456 8.16458
22 1 4.86381 7.33665 2.72249
23 1 7.42473 4.27239 7.25656
24 1 4.4026 5.20478 5.65556
25 1 4.05909 5.16199 6.69357
26 1 2.44978 0.815556 5.7252
27 1 6.56939 4.34331 7.37523
28 1 7.45854 3.21988 5.69908
29 1 2.64863 2.59669 9.32012
30 1 6.47105 4.28234 2.35421
31 1 8.69601 1.37874 2.70836
32 1 5.00685 7.2739 5.62711
33 1 0.397161 0.881024 6.01755
34 1 6.6387 5.42111 6.59224
35 1 5.88556 1.63859 0.647873
36 1 8.03991 6.7365 0.630011
37 1 6.7494 5.52447 8.82034
38 1 5.28175 3.51873 5.37006
39 1 5.47028 0.779076 1.38644
40 1 6.96569 6.76355 0.51599
41 1 3.62968 8.30612 7.60801
42 1 4.34989 8.8552 2.17879
43 1 2.34754 3.05275 1.09072
44 1 6.93922 4.62519 4.40812
45 1 2.28438 3.06328 6.71831
46 1 7.09836 0.0101969 0.398994
47 1 8.55932 0.684136 4.34912
48 1 0.230791 4.23917 8.26307
49 1 4.11497 2.93735 2.44761
50 1 4.66707 6.59777 9.1481
51 1 2.66998 8.18253 7.60992
52 1 4.94529 1.28813 2.14211
53 1 8.1027 4.13955 5.48876
54 1 2.36936 8.17142 1.38688
55 1 8.52138 3.191 6.42784
56 1 2.50423 8.92058 8.19207
57 1 7.28361 3.90024 4.88997
58 1 0.663405 7.44825 1.7467
59 1 1.34282 5.53915 0.532362
60 1 2.78087 3.89842 2.4299
61 1 6.15681 2.45992 0.866334
62 1 2.12421 1.69018 2.024
63 1 8.71037 2.38942 5.19829
64 1 3.87251 3.32583 8.92216
65 1 1.99997 4.23143 2.85605
66 1 1.67937 2.89761 7.62125
67 1 4.79093 6.40325 4.82314
68 1 6.76265 6.40759 5.38579
69 1 1.47043 1.20922 7.47523
70 1 7.67077 8.42295 5.17475
71 1 4.60787 3.85347 2.22692
72 1 6.06983 5.99269 8.36138
73 1 9.0316 7.83058 2.41081
74 1 5.7475 1.37612 6.64665
75 1 8.0767 8.00912 4.17418
76 1 3.36351 4.10232 1.05196
77 1 0.0642931 2.5939 9.33597
78 1 4.39434 8.10476 3.83812
79 1 7.59606 5.81952 7.06041
80 1 3.27946 5.37323 0.0705867
81 1 2.72133 1.04687 4.89177
82 1 2.97024 3.07463 7.34407
83 1 0.83508 8.00684 6.81781
84 1 5.12059 1.69014 1.07106
85 1 7.14773 0.289388 6.17954
86 1 3.40427 6.1972 5.51953
87 1 5.78118 6.4327 9.24875
88 1 9.01955 3.35865 0.0812509
89 1 5.14801 0.445858 3.90047
90 1 8.71517 1.24897 5.0687
91 1 9.24617 8.56288 6.73541
92 1 4.60802 1.9617 3.18286
93 1 4.97627 7.36654 1.55875
94 1 8.62703 5.43962 4.46725
95 1 5.27791 3.96692 9.00091
96 1 6.43247 7.65577 0.85049
97 1 4.81007 3.078 9.3502
98 1 5.97586 7.35168 5.46478
99 1 7.67535 0.0486915 6.97825
100 1 2.77726 2.18364 2.60447
101 1 4.37832 7.11554 8.17901
102 1 7.45473 4.43492 1.879
103 1 0.470619 5.37409 9.20191
104 1 8.12287 2.70369 3.24745
105 1 3.33034 2.05035 4.51041
106 1 5.75979 3.2271 5.98159
107 1 2.14288 1.86687 5.93301
108 1 7.95687 2.54623 6.89386
109 1 1.66132 8.56087 5.33992
110 1 2.13243 1.63296 3.03245
111 1 0.0667275 6.13088 5.64821
112 1 6.44108 3.9414 5.83187
113 1 2.50658 0.643235 2.88772
114 1 1.02652 9.15807 2.78357
115 1 4.88015 8.45832 9.11508
116 1 1.41678 5.56139 9.0159
117 1 8.01153 5.43053 2.72648
118 1 4.22066 5.12978 3.08418
119 1 2.00108 7.89216 3.78741
120 1 3.1273 2.33726 5.9363
121 1 7.43299 4.9202 0.245727
122 1 7.7839 3.08429 0.550843
123 1 8.66296 8.40381 1.35572
124 1 5.35864 8.33297 7.02119
125 1 9.06066 7.12898 3.52522
126 1 2.70409 6.75618 3.62039
127 1 5.4748 3.15606 8.56302
128 1 9.19946 2.70295 3.00948
129 1 4.35508 7.98202 8.13971
130 1 3.13946 6.64853 0.914588
131 1 9.26334 7.71438 1.50055
132 1 3.84088 9.12691 6.5556
133 1 0.368221 5.09754 3.9673
134 1 7.26313 2.22359 6.12163
135 1 2.38561 0.313532 6.45313
136 1 7.49975 7.94498 9.02126
137 1 7.5788 2.96212 4.67445
138 1 8.63199 7.14997 1.36004
139 1 2.36242 0.40705 3.7481
140 1 1.22082 8.60077 1.55828
141 1 0.799761 8.44041 7.93127
142 1 9.388 5.86004 7.38117
143 1 2.63531 5.95825 5.07252
144 1 5.95537 4.0463 8.23378
145 1 8.414 1.65803 7.0959
146 1 8.84647 1.88812 4.38347
147 1 6.9233 8.52244 8.56279
148 1 4.27925 4.04542 7.35293
149 1 6.40394 7.67363 8.5673
150 1 7.87053 1.9414 4.92643
151 1 3.52841 6.43254 7.91143
152 1 1.58686 5.59382 7.97072
153 1 7.22747 3.82405 8.3141
154 1 6.747 4.4463 6.5414
155 1 1.47082 4.99475 2.85767
156 1 6.96385 7.71358 7.86342
157 1 4.32702 1.47641 0.51683
158 1 2.56403 7.67655 2.35606
159 1 3.38542 7.83448 8.46351
160 1 4.00682 0.995666 6.35571
161 1 1.83431 8.94825 3.03565
162 1 3.83392 0.536087 0.909547
163 1 5.10362 9.27128 6.52126
164 1 2.94624 4.54751 4.36981
165 1 8.38957 5.06201 3.63666
166 1 3.66055 0.887603 4.73582
167 1 3.94595 8.22358 6.48728
168 1 0.904124 6.66871 2.05507
169 1 5.20375 3.17214 6.81326
170 1 1.5573 7.41267 6.77485
171 1 6.49668 1.24403 1.70508
172 1 4.20403 0.546844 3.97526
173 1 4.3732 0.390065 5.54575
174 1 1.26101 2.86001 8.61936
175 1 5.84475 8.57788 3.00902
176 1 4.63023 0.733291 8.95243
177 1 4.4993 1.03111 1.42564
178 1 1.81178 4.73026 6.02775
179 1 3.13247 5.60182 7.73695
180 1 6.90191 7.41504 5.27188
181 1 8.31169 6.96537 9.17641
182 1 0.691972 9.2234 6.90889
183 1 0.856205 5.94281 8.34134
184 1 1.17456 3.25547 1.91946
185 1 1.89248 1.6555 8.22654
186 1 4.96262 4.74672 1.27941
187 1 3.91895 4.90685 1.46312
188 1 3.03168 4.36587 3.22752
189 1 3.25832 2.11751 7.84753
190 1 0.927668 6.63224 4.13272
191 1 5.65119 5.72096 6.70276
192 1 1.95437 5.36524 2.02289
193 1 4.06358 8.41074 9.01273
194 1 0.622516 0.829796 4.96139
195 1 0.616877 8.64429 6.18884
196 1 2.80168 1.21774 4.01263
197 1 1.57768 6.70692 5.18296
198 1 8.92923 0.796761 6.01936
199 1 8.0627 8.05671 7.62234
200 1 8.0787 8.17708 2.11289
201 1 8.10666 8.75503 2.89212
202 1 8.63306 3.99404 3.22547
203 1 3.86197 0.434158 8.57189
204 1 3.00743 2.86481 8.42501
205 1 0.878107 2.41184 0.700377
206 1 3.37678 5.39556 5.96006
207 1 2.46666 6.825 2.75834
208 1 5.78932 2.67683 7.59535
209 1 6.52978 9.36872 2.66713
210 1 4.13137 4.47889 5.15237
211 1 3.94224 6.35882 6.41332
212 1 8.09294 2.49439 1.37042
213 1 4.67888 4.87777 2.09128
214 1 4.42361 1.63524 8.97275
215 1 7.80066 1.65341 1.28439
216 1 0.901259 0.494942 7.66945
217 1 8.62157 9.19959 1.79239
218 1 6.87485 6.25591 6.55957
219 1 4.38453 8.71514 5.06657
220 1 3.6375 5.72874 0.966435
221 1 0.474781 2.27752 8.35227
222 1 4.35821 1.78245 4.68379
223 1 3.04961 8.55076 1.98907
224 1 5.80203 1.92953 8.93054
225 1 5.33778 6.84107 8.61192
226 1 4.96881 9.35319 1.43644
227 1 3.44956 4.32734 2.09861
228 1 7.01389 0.260984 7.95561
229 1 4.46516 7.85768 7.15263
230 1 1.81075 2.04344 4.11919
231 1 2.61711 4.58189 1.44875
232 1 3.90773 2.82571 7.82361
233 1 1.05877 3.64821 7.11262
234 1 4.34345 1.80337 7.89154
235 1 8.09808 5.90498 3.7334
236 1 7.04779 5.49228 7.95352
237 1 9.24375 5.62648 3.55362
238 1 5.01 4.56263 5.4225
239 1 4.24484 2.49095 0.524749
240 1 6.53683 6.10717 7.39528
241 1 1.60797 4.43232 2.05074
242 1 7.42821 6.70524 1.42241
243 1 5.78684 3.44426 1.10872
244 1 0.174127 1.27698 4.354
245 1 1.56483 3.60611 4.55737
246 1 5.03113 6.21156 1.18318
247 1 6.07032 7.60807 2.6765
248 1 6.30856 6.09787 1.88905
249 1 0.962022 0.13861 5.65244
250 1 0.722016 4.32611 7.4758
251 1 2.00396 3.2111 9.07946
252 1 8.02795 8.79052 9.28666
253 1 2.07777 3.71506 1.60715
254 1 5.40674 8.92586 3.74139
255 1 5.0844 2.73044 0.887561
256 1 2.96829 7.87178 5.89569
257 1 5.79896 3.22698 4.61842
258 1 0.423346 2.45155 6.0768
259 1 6.95831 7.91855 4.48364
260 1 5.51035 0.177979 0.782402
261 1 2.64418 5.9317 2.69868
262 1 3.4728 7.02463 6.07621
263 1 0.338045 9.16482 8.38404
264 1 2.82666 4.97752 2.25298
265 1 8.64344 7.67346 6.67877
266 1 1.06145 4.39152 6.43486
267 1 5.26569 0.399327 2.14782
268 1 6.89632 6.01773 4.12108
269 1 1.51122 0.0747237 3.78422
270 1 2.77541 6.49434 1.80535
271 1 5.94569 8.5538 1.16152
272 1 8.25581 4.04428 0.445433
273 1 0.338 4.24998 4.91298
274 1 9.31649 0.285748 5.38482
275 1 4.99763 1.4585 3.90699
276 1 9.12136 7.326 4.45344
277 1 7.73719 7.21161 4.89193
278 1 8.71883 1.16001 7.90032
279 1 7.36262 1.81511 6.99817
280 1 1.86147 4.57282 9.27802
281 1 1.99505 7.84845 6.10586
282 1 9.32502 0.305367 6.61979
283 1 4.82359 6.3225 3.14498
284 1 9.29511 7.12932 0.667671
285 1 8.44634 6.22815 2.97729
286 1 3.1276 2.9567 2.43346
287 1 7.23316 2.92175 8.57547
288 1 8.84658 4.1306 6.25111
289 1 8.40888 1.32381 9.16171
290 1 8.13353 0.419882 6.13492
291 1 7.8451 5.04049 7.62752
292 1 9.18088 2.89064 8.2562
293 1 0.0132417 4.41982 0.309007
294 1 8.1228 7.54324 3.26235
295 1 3.07321 6.31145 9.14437
296 1 5.80995 1.75529 1.61721
297 1 3.00203 1.31928 9.13607
298 1 6.46047 7.29302 9.37811
299 1 4.13316 3.0942 3.48298
300 1 6.90072 2.59799 6.85534
301 1 1.8657 1.15828 6.64553
302 1 2.41937 6.95508 0.302054
303 1 2.36949 3.81678 5.91541
304 1 5.29702 9.18047 7.5598
305 1 0.166262 6.68634 1.5903
306 1 3.8507 7.77141 5.68284
307 1 0.617824 3.39925 8.32118
308 1 1.53405 0.530746 3.044
309 1 9.20804 3.54762 1.74254
310 1 6.62781 0.147351 8.78403
311 1 1.1898 2.01709 7.73546
312 1 8.39531 3.4652 2.49256
313 1 8.24665 1.79088 1.95068
314 1 0.825537 8.54359 5.12719
315 1 4.60856 2.08558 2.1689
316 1 3.14505 7.16604 5.04938
317 1 3.58179 8.5248 4.24484
318 1 9.18059 9.04585 6.02671
319 1 0.214231 9.34601 1.76317
320 1 0.535731 3.11364 5.24296
321 1 4.63317 0.476155 0.518388
322 1 1.67763 8.70797 4.34043
323 1 3.09668 3.14296 0.663373
324 1 4.73185 8.42677 2.9326
325 1 6.34447 8.50452 2.02699
326 1 0.666429 2.27523 6.99472
327 1 9.08206 7.89489 7.58099
328 1 0.769193 3.2073 9.26606
329 1 0.368408 1.40784 7.74066
330 1 2.71361 7.52631 4.28381
331 1 1.19145 0.861467 4.14494
332 1 7.9839 1.14887 6.54223
333 1 4.09823 7.14885 1.91658
334 1 0.741802 0.224559 1.03069
335 1 1.75729 1.05676 4.8369
336 1 3.05308 3.407 1.55758
337 1 0.288187 7.90735 3.53225
338 1 1.1515 8.90142 8.63548
339 1 4.28867 3.8405 4.5922
340 1 6.69344 9.3665 4.41595
341 1 9.25883 4.87129 7.40582
342 1 8.19935 2.5554 8.74328
343 1 1.12844 4.51005 4.44168
344 1 0.613245 7.68649 8.34233
345 1 8.43997 2.43846 2.4972
346 1 1.98235 0.386709 8.26104
347 1 3.28692 6.90279 7.12808
348 1 6.08894 0.011079 7.91809
349 1 2.3641 3.51138 3.1246
350 1 0.743381 6.83932 6.79657
351 1 5.29534 8.30582 5.49488
352 1 0.203038 7.57432 6.38448
353 1 1.58726 1.66843 0.991068
354 1 0.467508 2.62261 1.68467
355 1 3.27457 5.62364 4.15741
356 1 2.13469 6.3618 0.952492
357 1 9.2489 6.94697 7.34304
358 1 4.44273 0.622902 7.87037
359 1 8.69628 9.26519 3.68124
360 1 7.83371 6.25566 5.62689
361 1 3.42796 7.32369 2.65709
362 1 6.98401 0.782054 4.25816
363 1 4.98319 0.707087 6.32819
364 1 0.929822 5.99804 1.37177
365 1 6.65716 6.94159 2.3137
366 1 4.69857 3.35799 6.14726
367 1 5.87938 4.74819 6.85713
368 1 0.466992 5.23224 0.885415
369 1 3.8489 8.82612 3.43919
370 1 5.51722 5.4204 1.55172
371 1 9.15032 0.277852 1.07998
372 1 2.937 4.01845 6.90895
373 1 0.335172 3.20051 2.384
374 1 7.02571 6.08828 2.89409
375 1 8.8542 0.757508 0.310513
376 1 6.61328 5.35272 0.478546
377 1 0.315051 3.22173 6.59042
378 1 5.97975 0.36061 -0.00451678
379 1 6.88269 3.99552 3.29649
380 1 0.74715 2.2757 2.74665
381 1 6.42957 3.3811 8.01354
382 1 5.61552 1.13307 5.57438
383 1 2.75971 1.96497 8.58551
384 1 3.88972 0.957029 9.27152
385 1 5.69062 2.96302 0.258004
386 1 4.3509 2.5828 8.64391
387 1 5.30865 6.61121 6.42197
388 1 0.345617 6.02556 2.08757
389 1 7.30864 1.36478 8.07823
390 1 0.900812 5.06056 1.95516
391 1 4.41731 7.08932 6.45025
392 1 2.13486 8.98979 1.95005
393 1 9.35139 8.63691 5.18668
394 1 5.56606 6.70892 7.5273
395 1 1.19078 8.28373 3.36825
396 1 7.79041 6.73756 3.43024
397 1 5.023 3.63807 1.39379
398 1 0.671224 7.80963 9.33628
399 1 6.2189 6.89231 6.21915
400 1 4.58169 1.29917 5.66012
401 1 5.19813 2.29398 8.36732
402 1 1.06102 7.67747 5.72135
403 1 3.55613 4.74285 7.38879
404 1 5.00219 4.87071 9.36074
405 1 2.72816 4.76553 6.10961
406 1 5.9707 8.84302 4.63964
407 1 1.6496 6.54195 6.9996
408 1 6.70718 3.17896 5.07343
409 1 9.21816 3.29888 4.66603
410 1 5.36059 7.96499 2.37063
411 1 5.99873 4.50567 3.08098
412 1 7.75207 1.59895 2.87022
413 1 0.728235 1.47789 6.8192
414 1 6.62308 1.23811 7.35759
415 1 6.24481 1.35574 4.13267
416 1 5.28637 5.50877 3.3396
417 1 9.2759 8.03935 0.303478
418 1 1.49482 2.4051 2.34596
419 1 5.00474 2.02292 0.1566
420 1 9.18336 3.76406 5.37527
421 1 1.21986 1.22623 8.88492
422 1 7.14618 2.36144 1.56346
423 1 4.58046 8.94844 8.47475
424 1 4.45556 6.1947 5.53734
425 1 9.21304 1.27049 6.81618
426 1 8.74434 4.69124 8.0814
427 1 7.45194 4.00798 1.04275
428 1 4.28549 6.64861 7.26797
429 1 6.89942 1.33162 5.45286
430 1 7.70965 7.60418 6.81358
431 1 8.94449 0.744182 1.85581
432 1 4.84836 8.31017 1.30988
433 1 7.29476 2.57069 3.70134
434 1 0.758897 6.73809 5.84064
435 1 6.76388 8.32396 0.0270008
436 1 7.56225 1.07932 8.90576
437 1 5.50507 5.03322 2.31942
438 1 3.40351 9.1744 0.418329
439 1 8.1841 4.41872 8.92863
440 1 8.57143 1.81483 6.21528
441 1 8.80637 5.70403 5.2313
442 1 6.05272 6.11612 3.64191
443 1 0.54818 1.0611 0.653999
444 1 7.95249 3.85428 6.32582
445 1 0.0742208 6.34062 2.95206
446 1 8.2518 6.08601 9.34427
447 1 9.16508 6.35475 6.49682
448 1 3.77209 3.67494 2.65772
449 1 2.66692 9.04217 2.68866
450 1 0.165156 4.30205 6.78729
451 1 0.933658 1.72053 5.03441
452 1 7.61132 0.0668388 2.58586
453 1 0.419772 3.96966 9.06109
454 1 6.14911 6.87394 8.24973
455 1 8.43327 7.98119 9.18916
456 1 5.12795 5.06962 6.55527
457 1 0.112813 4.49579 1.21409
458 1 5.90043 3.85747 0.254033
459 1 8.26371 6.86222 4.1997
460 1 5.19679 9.3311 9.09453
461 1 0.543209 3.27559 3.25024
462 1 0.916682 1.75547 0.182066
463 1 3.69871 6.93973 0.161993
464 1 1.04307 1.61549 3.47841
465 1 6.04037 0.567525 4.66353
466 1 7.76811 9.30362 1.53596
467 1 5.42433 8.86573 1.97551
468 1 5.0899 2.28986 7.26894
469 1 2.37915 1.15016 0.670631
470 1 4.12176 5.50567 7.9309
471 1 1.58348 2.56167 1.36734
472 1 0.649779 7.71215 0.78017
473 1 2.3185 2.88474 4.94584
474 1 1.54404 3.25242 5.42153
475 1 0.913469 6.22751 7.49246
476 1 8.57636 6.72997 5.11211
477 1 1.48208 2.27257 5.46825
478 1 7.76169 9.22966 5.54506
479 1 7.81713 8.69644 6.17355
480 1 6.87802 1.06561 0.253659
481 1 8.98292 6.28927 0.806285
482 1 4.63606 5.4861 4.85746
483 1 9.15501 0.785972 8.88273
484 1 0.335787 8.80154 3.50652
485 1 5.36713 4.06341 3.83049
486 1 7.8421 0.220497 4.07175
487 1 8.49268 7.65894 0.696434
488 1 2.30313 0.520775 7.37912
489 1 1.87028 7.08178 4.30845
490 1 6.30336 3.77525 4.17087
491 1 0.388275 6.81118 8.19279
492 1 3.62694 8.81468 8.35662
493 1 5.13658 7.7642 8.59597
494 1 6.28111 1.81453 5.01106
495 1 2.81758 4.57917 9.31385
496 1 8.53499 8.71928 5.46276
497 1 1.66313 3.714 6.44562
498 1 5.96115 3.94758 5.00374
499 1 1.11023 6.95611 1.22336
500 1 0.214583 1.57134 3.30803
501 1 3.35246 4.37262 5.57699
502 1 5.37775 0.161875 5.69797
503 1 3.7984 2.26447 5.23783
504 1 8.79173 6.42208 8.20435
505 1 7.3523 7.33763 3.86059
506 1 4.6815 3.12763 7.53858
507 1 5.2524 8.4232 8.01701
508 1 8.3846 4.37416 7.0412
509 1 4.69983 2.94669 4.91865
510 1 0.6106 3.35829 1.14924
511 1 1.63362 8.44915 6.81554
512 1 2.83077 1.15887 1.4439
513 1 6.92105 1.68503 3.60979
514 1 2.8357 5.48498 6.73736
515 1 9.27574 4.76072 3.1711
516 1 6.40749 3.75793 1.66753
517 1 8.96494 1.04295 3.58639
518 1 8.37232 7.17663 2.37726
519 1 5.8019 5.45236 9.12868
520 1 2.73839 7.2525 8.90575
521 1 2.23642 1.81688 4.92794
522 1 5.60978 6.98556 4.74969
523 1 2.11669 0.971392 9.06741
524 1 3.83415 4.80071 3.98386
525 1 2.7456 3.82471 4.9295
526 1 0.0414486 1.60954 0.144266
527 1 4.54776 8.99505 4.15565
528 1 2.6153 8.39699 4.21072
529 1 1.43746 6.03416 6.06199
530 1 8.47585 0.386307 5.21902
531 1 1.53573 3.46698 3.51682
532 1 7.89326 0.45684 0.222119
533 1 4.65225 4.85251 7.47167
534 1 5.8047 2.77498 2.92558
535 1 1.73676 8.44259 0.0256257
536 1 7.41119 6.69866 7.26312
537 1 1.04422 6.16635 2.91483
538 1 5.95512 7.79579 7.83065
539 1 4.24583 7.4776 9.06975
540 1 6.05767 7.28344 3.87283
541 1 4.15843 4.16374 6.24924
542 1 0.68993 8.66393 0.139612
543 1 5.52504 0.19268 2.9874
544 1 1.9311 2.70845 2.99218
545 1 0.626461 5.34756 7.61915
546 1 8.07206 4.11157 7.97966
547 1 8.40215 0.811772 1.17531
548 1 5.62298 6.44996 5.55398
549 1 1.88341 2.25103 6.96203
550 1 0.141024 6.40259 3.942
551 1 0.833348 2.15246 4.2233
552 1 5.32463 6.59694 3.81537
553 1 5.24586 8.18558 4.22898
554 1 2.28842 2.09447 0.639455
555 1 6.24146 5.76531 5.89514
556 1 5.63268 4.28776 1.82056
557 1 1.39847 0.143141 1.89255
558 1 7.27421 4.07574 5.84632
559 1 6.97649 8.35799 0.892378
560 1 0.616105 2.85073 7.61045
561 1 2.1099 3.64846 7.38461
562 1 1.65005 7.34577 2.65879
563 1 4.77101 1.30366 7.14676
564 1 6.06327 8.95063 7.09483
565 1 5.48632 5.76231 4.22294
566 1 1.93835 4.58515 3.63727
567 1 7.39231 6.95711 6.00528
568 1 1.35442 3.66573 7.90633
569 1 2.06173 9.36636 5.60844
570 1 1.09142 4.75183 0.33414
571 1 5.03517 5.67551 8.83357
572 1 4.1787 8.86373 1.1991
573 1 7.0236 3.85719 0.0575576
574 1 3.99515 8.00364 2.03894
575 1 5.04458 7.44188 7.6105
576 1 3.34892 7.91822 0.168844
577 1 0.0427639 5.22037 8.35386
578 1 0.67935 6.02056 6.53259
579 1 9.01326 2.91059 7.36991
580 1 7.96379 2.05954 3.94224
581 1 3.84547 7.62159 4.41416
582 1 4.0992 7.03257 5.02687
583 1 3.26898 0.0530826 1.41183
584 1 7.21367 0.610032 1.0907
585 1 6.15883 2.36453 4.32694
586 1 2.33033 6.09197 6.24446
587 1 3.29002 1.14548 7.29528
588 1 3.49036 6.20771 2.22196
589 1 1.03509 4.86965 8.61011
590 1 5.18324 5.94675 0.227142
591 1 9.31689 0.766749 2.6936
592 1 6.31726 0.67374 5.71857
593 1 5.23506 2.52082 3.63996
594 1 6.57375 1.23456 8.74831
595 1 5.8689 6.96647 0.705769
596 1 5.99371 0.920531 8.08656
597 1 6.28561 5.25328 7.48903
598 1 1.93169 4.27915 5.06275
599 1 4.6259 7.83314 4.87623
600 1 2.16024 7.85726 4.86684
601 1 8.46885 2.83888 4.37207
602 1 8.9248 6.28939 4.46739
603 1 2.00995 2.59762 8.44283
604 1 4.7524 8.85682 0.548309
605 1 4.77645 3.85093 0.317785
606 1 2.27126 5.09555 7.76886
607 1 7.60998 1.20526 3.80208
608 1 6.62956 6.46442 9.03643
609 1 6.10171 0.962187 2.63573
610 1 7.13574 1.75176 2.20435
611 1 3.28131 1.32252 5.59204
612 1 9.26013 3.63566 0.912209
613 1 6.71136 9.0887 1.22361
614 1 0.654492 0.459538 8.93024
615 1 5.30243 1.91851 4.68465
616 1 6.64979 5.15324 2.09298
617 1 4.54201 2.55766 6.62329
618 1 2.65549 2.04522 3.77215
619 1 1.73999 6.44926 7.90323
620 1 7.79795 1.39844 0.352639
621 1 8.03873 3.5389 7.16224
622 1 5.60844 6.67 1.64754
623 1 8.7786 5.42616 1.51207
624 1 0.0722812 0.193492 4.34092
625 1 8.57043 5.5756 7.81242
626 1 5.37029 5.50409 5.72994
627 1 7.92123 5.46907 5.28182
628 1 3.54672 1.24835 8.18097
629 1 2.3857 8.20173 8.73275
630 1 4.68075 2.28702 5.54798
631 1 6.75124 3.46423 0.839991
632 1 1.67582 7.4012 9.29258
633 1 2.27366 2.83327 2.0163
634 1 1.37188 0.155793 9.28388
635 1 4.56501 8.7216 7.0562
636 1 5.30837 2.01684 6.26635
637 1 6.342 8.55436 7.9598
638 1 6.56503 0.335214 6.88412
639 1 4.28164 6.72989 3.96944
640 1 6.25314 4.61769 9.35333
641 1 5.62893 2.6498 5.26121
642 1 0.737335 3.9508 0.51746
643 1 4.02248 7.39876 1.0381
644 1 8.73371 8.21567 3.4144
645 1 4.85046 7.88797 6.2949
646 1 7.43385 7.61544 0.510962
647 1 3.25956 0.474173 6.62448
648 1 5.88934 1.96568 8.04165
649 1 2.27475 5.92741 3.48064
650 1 5.91411 1.90205 3.46152
651 1 3.59169 6.30293 3.6809
652 1 3.94198 6.04833 8.76062
653 1 9.39189 3.93991 2.85044
654 1 8.3737 0.378244 8.77797
655 1 6.97911 5.39623 4.962
656 1 5.09907 3.76477 3.08488
657 1 9.09838 8.47067 4.16667
658 1 1.91243 7.2628 8.37734
659 1 4.51043 0.237686 3.16085
660 1 3.63137 6.93507 8.59494
661 1 8.31639 4.77305 1.99931
662 1 2.44638 6.78873 5.71364
663 1 7.52937 8.91301 7.93839
664 1 8.81783 3.90195 8.61255
665 1 8.95585 4.54124 4.07503
666 1 6.88964 2.92114 0.135611
667 1 1.34328 6.59321 0.290871
668 1 0.252436 1.74094 1.1911
669 1 7.89147 6.25473 8.0625
670 1 7.72171 5.10391 4.41331
671 1 0.0665506 1.82764 2.44504
672 1 6.9698 7.86048 1.68897
673 1 5.39147 2.06876 2.53956
674 1 3.32424 3.40725 6.26461
675 1 7.75244 0.983794 1.89162
676 1 5.42531 4.47108 4.62628
677 1 3.27114 5.33678 3.20188
678 1 8.19351 6.27827 1.57685
679 1 7.61674 5.03344 6.63285
680 1 0.0973783 -0.0105615 0.0472437
681 1 9.12731 2.93914 5.79072
682 1 2.22273 7.25672 7.40867
683 1 2.86747 2.27455 6.79978
684 1 5.10409 1.34856 8.22084
685 1 4.93448 3.31154 3.9043
686 1 3.60595 0.938474 2.04465
687 1 5.70153 3.58029 7.54475
688 1 7.82698 1.38311 5.63856
689 1 3.44483 2.29584 0.839009
690 1 4.5303 8.78269 5.97772
691 1 9.2819 8.37316 8.35022
692 1 4.15238 4.20142 3.30475
693 1 2.84497 0.478927 2.07997
694 1 8.04388 2.45502 5.72738
695 1 2.61812 9.00184 3.53574
696 1 6.43248 8.24763 5.30018
697 1 6.54524 3.26728 2.6152
698 1 8.58615 5.264 6.9173
699 1 1.09407 8.13857 2.36045
700 1 0.0235079 2.46495 3.91758
701 1 8.70544 6.92494 6.05632
702 1 1.31743 3.96819 8.97597
703 1 7.16915 3.47436 4.00124
704 1 6.53198 5.35954 3.13215
705 1 4.77996 2.93975 1.88648
706 1 6.23148 1.63613 5.98891
707 1 4.00278 2.62104 1.4832
708 1 7.36381 7.02234 9.06396
709 1 2.64035 8.82384 0.790443
710 1 9.27481 6.48755 9.24098
711 1 4.4191 5.67014 1.62616
712 1 6.88407 0.645109 3.35266
713 1 8.07456 7.65547 5.67677
714 1 9.35789 8.5343 1.88557
715 1 3.06832 2.26258 1.79723
716 1 7.04597 1.68848 4.53716
717 1 9.10632 2.14053 7.75995
718 1 5.87925 7.81644 6.16742
719 1 8.78766 1.65232 0.873084
720 1 3.3207 3.76643 3.94836
721 1 1.80563 1.84713 9.2141
722 1 2.75855 1.23349 6.48698
723 1 7.95413 4.19911 2.64407
724 1 7.53947 8.1831 3.45075
725 1 8.35807 3.31028 5.41735
726 1 6.32589 2.47448 2.06806
727 1 9.29763 1.75989 5.69765
728 1 0.493385 0.846056 1.82252
729 1 2.23034 0.127195 0.153994
730 1 0.850881 3.83862 5.66689
731 1 3.56124 8.12645 1.27104
732 1 1.31742 1.95226 6.28989
733 1 6.52729 6.71949 1.2843
734 1 3.69253 7.39112 7.69816
735 1 2.96223 4.92623 0.754482
736 1 4.03502 6.67855 2.91201
737 1 1.09214 5.56082 4.52905
738 1 9.03121 7.41035 8.75287
739 1 0.266336 3.96301 3.97358
740 1 5.53634 7.78424 0.931873
741 1 2.77989 7.6709 3.3036
742 1 6.41771 1.86193 2.77395
743 1 8.38683 9.0368 4.6406
744 1 4.83786 2.86554 2.85646
745 1 8.07738 4.00945 4.4921
746 1 3.07464 1.37935 3.05112
747 1 1.18292 5.29598 6.70552
748 1 8.87287 6.51034 2.10323
749 1 2.42707 1.51587 7.37999
750 1 8.63276 3.03884 0.86461
751 1 6.46877 2.66831 3.56016
752 1 1.15933 1.7644 1.83665
753 1 8.76778 9.22227 7.88308
754 1 6.34404 2.55883 8.64122
755 1 5.91222 5.89904 0.87606
756 1 6.73289 8.68464 6.34867
757 1 1.2238 7.16957 7.68632
758 1 6.89759 8.44938 2.79787
759 1 1.93999 5.68434 7.05292
760 1 6.05666 0.396932 3.88059
761 1 6.74911 6.89733 4.36495
762 1 8.25256 7.14425 7.50094
763 1 3.62998 2.08333 2.53778
764 1 9.08582 3.89767 7.6421
765 1 9.01992 2.06161 8.78772
766 1 5.67908 3.38797 2.24001
767 1 4.42154 8.0156 0.58641
768 1 2.5685 6.47435 8.314
769 1 0.382183 1.42545 8.7085
770 1 9.04086 2.22984 6.78659
771 1 3.60063 7.22847 3.65831
772 1 1.57335 8.09961 0.830413
773 1 1.69911 3.43214 2.56641
774 1 8.05365 3.50918 3.76434
775 1 2.51703 8.54469 5.49605
776 1 7.95305 8.59751 0.988787
777 1 1.32628 0.110714 4.65876
778 1 4.81535 6.51839 2.04954
779 1 5.88699 6.70929 2.88234
780 1 2.4435 2.47191 7.69956
781 1 7.29074 8.65125 1.91698
782 1 2.37966 7.91458 0.351214
783 1 1.04826 2.71224 3.5581
784 1 8.66685 9.13987 6.82319
785 1 7.08456 4.59548 8.91024
786 1 8.38294 5.08322 0.111395
787 1 6.98702 0.706529 2.38701
788 1 3.70127 9.31123 2.70002
789 1 0.327995 6.2047 4.80892
790 1 1.35875 5.49867 3.6604
791 1 3.12548 8.25213 5.00144
792 1 7.28972 1.93499 8.90897
793 1 6.53346 7.91153 6.84473
794 1 7.41343 5.3014 3.54189
795 1 4.01737 3.63252 1.65884
796 1 7.24265 7.91184 6.00884
797 1 5.83862 5.19073 4.95287
798 1 0.543108 7.00419 0.0128578
799 1 0.0800218 5.33194 4.84928
800 1 5.30725 0.992511 0.471979
801 2 7.28488 3.26564 7.61275
802 2 9.06967 5.48385 2.46146
803 2 6.19775 8.99712 0.476916
804 2 3.05073 0.364796 7.91502
805 2 1.28837 4.21685 1.28039
806 2 1.60866 5.02844 1.11059
807 2 3.96859 6.02987 4.53596
808 2 6.28268 9.1812 5.64372
809 2 6.31356 0.730543 0.918607
810 2 7.65738 2.82726 2.25689
811 2 1.81304 6.23267 4.34551
812 2 6.43345 3.55533 8.86394
813 2 0.762763 1.25528 2.51794
814 2 8.4739 0.528904 7.31097
815 2 3.78031 5.93722 7.14003
816 2 0.580082 3.96176 1.88594
817 2 7.65747 6.50055 2.43696
818 2 0.930439 4.02219 2.71654
819 2 4.88368 5.71299 7.28737
820 2 1.55606 3.45383 0.627083
821 2 4.41259 0.384825 6.93537
822 2 7.4167 3.28865 3.0029
823 2 1.25854 4.8177 5.26228
824 2 7.27067 4.88281 1.15945
825 2 2.38243 3.86844 0.263123
826 2 6.63726 2.93118 5.97895
827 2 0.317643 4.66169 5.72575
828 2 1.91288 6.60628 2.11303
829 2 1.81355 5.68632 5.17406
830 2 1.83064 0.841947 2.26646
831 2 0.789984 5.59366 5.58712
832 2 3.90308 5.39451 2.29325
833 2 8.08243 7.397 8.38718
834 2 7.80666 5.28049 8.57025
835 2 9.35388 0.455801 7.65884
836 2 1.3971 0.871994 0.381918
837 2 3.26024 8.42668 2.91848
838 2 2.60968 1.08393 8.18397
839 2 5.4875 7.37211 9.31238
840 2 4.35684 4.6759 0.595273
841 2 4.00753 1.23172 2.91391
842 2 2.09396 2.84007 3.86232
843 2 7.27787 4.73616 2.77852
844 2 2.94445 0.37086 8.70102
845 2 5.56093 7.81651 3.4051
846 2 0.81369 7.26473 4.79527
847 2 1.53878 7.58544 1.68262
848 2 7.56332 0.0734791 8.89411
849 2 5.97929 7.73085 4.61216
850 2 1.89355 4.95454 4.45178
851 2 4.70984 5.43574 0.806215
852 2 3.96125 7.90993 3.04339
853 2 1.96247 6.37496 9.05088
854 2 2.95291 0.563546 0.33257
855 2 1.44369 2.63182 0.0943606
856 2 0.780295 8.86335 4.27113
857 2 1.10867 6.70079 8.78224
858 2 1.04172 7.4085 3.62004
859 2 0.0972807 8.93759 7.48712
860 2 5.56257 1.01934 8.98591
861 2 1.41773 2.74871 4.63545
862 2 7.54062 6.13836 4.74322
863 2 2.41019 5.15188 3.05478
864 2 1.73482 6.62852 3.52243
865 2 7.3885 0.858228 7.17794
866 2 4.89817 7.38813 4.18106
867 2 9.13715 3.34198 3.74646
868 2 4.25478 2.5301 4.14843
869 2 3.01762 7.42726 1.53914
870 2 6.94585 2.36154 5.16248
871 2 3.91299 1.89612 6.13665
872 2 5.47986 5.9952 2.48634
873 2 8.29825 5.74899 0.734857
874 2 8.32049 2.34924 0.189149
875 2 7.04263 5.10436 5.92167
876 2 7.14874 0.406553 5.1252
877 2 8.37111 4.87624 5.96116
878 2 8.01074 0.748092 3.24706
879 2 8.97038 8.77599 9.05896
880 2 7.62067 4.3795 3.67003
881 2 3.11448 6.32019 6.4874
882 2 6.14772 0.160961 1.80085
883 2 2.45594 6.97358 6.64415
884 2 0.582209 0.332736 3.51313
885 2 4.44334 5.71863 3.75847
886 2 1.41769 1.21731 5.80687
887 2 1.69316 0.862337 1.28946
888 2 6.10808 2.23831 6.72944
889 2 2.24041 0.306158 4.76528
890 2 3.85312 3.27253 6.99273
891 2 7.12046 3.56837 6.69201
892 2 0.326615 8.54874 1.01638
893 2 0.155517 7.51685 5.38369
894 2 1.33816 2.82676 6.46352
895 2 4.78901 0.836177 4.90402
896 2 1.658 9.3314 0.888608
897 2 5.52781 5.05114 0.704501
898 2 5.27693 0.360259 8.20447
899 2 1.87219 4.40486 8.34654
900 2 3.11914 4.41661 8.21916
901 2 5.95208 3.5963 3.36136
902 2 5.05483 4.64549 3.04099
903 2 3.37379 0.547644 3.31915
904 2 0.566683 6.03553 0.531739
905 2 0.37263 7.32335 2.7495
906 2 2.31411 5.76989 0.34882
907 2 9.03079 8.12786 5.86095
908 2 3.91215 9.35386 7.52107
909 2 6.17603 6.09278 4.72403
910 2 6.08957 7.49024 1.85026
911 2 3.81045 3.56252 0.410212
912 2 8.5691 0.222721 2.79783
913 2 5.22064 1.07276 3.10285
914 2 3.86621 0.0731961 4.84384
915 2 4.2141 5.44553 9.32065
916 2 1.69897 9.36868 7.47071
917 2 1.47151 0.0916037 6.37299
918 2 0.177291 5.30823 6.49101
919 2 0.194952 4.67334 2.15655
920 2 7.31398 5.86071 1.93841
921 2 1.62769 6.89733 6.03741
922 2 2.43831 0.324975 1.27514
923 2 3.9594 2.83552 6.06943
924 2 4.754 4.72052 3.88781
925 2 5.55457 0.696777 7.23127
926 2 3.47382 5.33433 5.05234
927 2 6.56576 4.59534 5.20566
928 2 8.08713 6.50389 6.595
929 2 6.42338 5.29354 1.30007
930 2 0.541297 5.14722 2.78631
931 2 2.42106 2.84081 5.81222
932 2 7.2906 3.5672 1.78974
933 2 6.42901 4.35723 1.00962
934 2 6.8227 7.55304 3.12058
935 2 2.40115 7.89786 6.85269
936 2 3.75184 4.94389 8.74952
937 2 7.59221 8.69079 4.33291
938 2 7.89563 0.457317 7.94507
939 2 5.73912 7.43344 6.92888
940 2 6.72557 1.92672 7.95845
941 2 5.56912 2.64221 1.58964
942 2 2.93106 0.00047367 5.64803
943 2 3.10377 3.79177 8.94168
944 2 7.17276 2.32476 2.89272
945 2 8.57322 7.88082 4.96427
946 2 8.99185 2.42646 1.66917
947 2 3.05019 9.08523 7.2179
948 2 5.74972 8.83317 8.67714
949 2 3.76773 1.78157 7.03487
950 2 8.10284 3.12906 8.01308
951 2 2.60125 6.24967 7.34289
952 2 3.1823 3.05553 3.40931
953 2 1.76883 8.32884 7.82474
954 2 4.26378 6.26554 0.451677
955 2 3.11791 0.135127 4.44211
956 2 3.4082 8.69214 5.90543
957 2 3.49774 2.9875 4.34749
958 2 8.94229 8.82298 0.662591
959 2 4.55538 4.89154 8.46727
960 2 4.29298 3.63036 5.4842
961 2 7.52232 9.09291 3.40937
962 2 7.71028 1.05668 4.73024
963 2 2.28927 8.26982 2.97451
964 2 6.83231 1.14187 6.39547
965 2 4.03631 1.73316 1.30976
966 2 8.61894 4.69374 4.88055
967 2 4.24676 9.37861 9.30068
968 2 7.43397 2.28671 0.789718
969 2 6.66999 6.74309 3.49338
970 2 3.77221 1.89028 3.59268
971 2 7.9786 3.50079 8.84447
972 2 6.32534 3.57536 6.92064
973 2 3.3137 1.35073 0.655502
974 2 5.98678 4.92944 3.97788
975 2 6.50898 7.11828 7.3543
976 2 8.11309 1.66683 8.33322
977 2 4.70405 5.87316 6.40382
978 2 0.103324 9.06491 2.63077
979 2 2.27776 3.54258 8.32887
980 2 8.69029 4.15628 1.44915
981 2 2.3284 3.64971 4.02926
982 2 8.2786 3.35374 1.64267
983 2 1.94079 1.2257 3.85267
984 2 5.08755 4.04194 7.95462
985 2 7.52433 7.36472 2.58379
986 2 0.83408 4.56486 3.43081
987 2 2.20568 4.52698 6.85494
988 2 1.3801 7.95906 8.71044
989 2 4.02 4.20104 9.23007
990 2 3.58322 2.04456 9.24754
991 2 0.671851 3.22661 4.36231
992 2 3.13252 6.51743 4.45023
993 2 2.35751 5.52244 8.68068
994 2 7.34671 5.97204 0.0747845
995 2 8.58787 5.78349 6.16541
996 2 2.92532 8.84403 9.07387
997 2 3.35915 3.18197 5.37419
998 2 3.70342 3.76948 8.09833