#bin. KALJ data file T=0.5

1000 atoms
2 atom types

0 9.4 xlo xhi
0 9.4 ylo yhi
0 9.4 zlo zhi

Masses

1 1.0
2 1.0

Atoms

1 1 0.965144 8.54874 1.0084
2 1 5.55367 3.12112 0.107967
3 1 1.26543 5.02395 4.23333
4 1 0.475609 6.56402 2.60519
5 1 5.90667 2.11217 5.39234
6 1 2.12408 2.46939 2.40959
7 1 4.46021 3.90236 8.00897
8 1 6.29308 1.49857 4.72672
9 1 6.02144 3.40166 8.02578
10 1 5.65503 7.30493 5.491
11 1 2.08539 5.44528 7.00396
12 1 6.74207 1.22786 8.94289
13 1 2.8347 8.86607 3.40401
14 1 3.76293 1.10733 8.79236
15 1 4.23046 2.81563 3.56584
16 1 3.08581 7.8592 2.00598
17 1 2.46363 3.31018 2.45461
18 1 5.48904 8.19765 2.16317
19 1 2.88155 7.34216 2.72115
20 1 2.75105 4.36642 8.82702
21 1 1.88509 1.1665 9.29936
22 1 6.4524 1.4649 1.4847
23 1 3.63195 4.37466 3.98452
24 1 7.63288 9.13548 9.0213
25 1 0.895815 8.55688 5.6089
26 1 6.69378 6.3104 3.56425
27 1 4.13124 6.37115 8.43268
28 1 7.0023 2.44269 6.676
29 1 4.30103 6.79252 1.88569
30 1 2.46897 1.65566 0.275274
31 1 7.05281 4.53439 6.73085
32 1 4.49136 4.78784 5.74518
33 1 7.6008 0.0631021 6.49489
34 1 5.08356 2.03892 7.8649
35 1 5.31393 2.67091 1.06125
36 1 2.2661 5.67465 8.01545
37 1 5.50226 7.77223 0.633978
38 1 9.11 0.441921 3.9348
39 1 2.66383 7.47045 1.30919
40 1 5.47493 7.84351 7.37707
41 1 0.967858 1.65057 9.02888
42 1 8.69638 7.08485 0.612753
43 1 5.91482 1.69091 0.768484
44 1 7.31071 8.73099 2.75478
45 1 8.9552 6.6259 8.00597
46 1 7.9979 8.65075 7.00067
47 1 8.30813 9.27321 7.54581
48 1 8.33672 8.39539 8.73143
49 1 3.62624 3.06394 0.533058
50 1 5.7873 6.44681 0.946659
51 1 6.11101 4.43777 6.4748
52 1 7.97498 1.57581 0.104369
53 1 9.27265 2.07135 4.58052
54 1 3.36576 9.01473 6.51045
55 1 8.09804 2.45608 6.52801
56 1 0.443247 4.56503 4.0858
57 1 0.442243 6.47896 0.696582
58 1 4.02921 5.41323 8.5747
59 1 8.95525 0.239906 4.87427
60 1 8.53102 4.36465 8.47362
61 1 9.29754 6.11319 8.91577
62 1 8.23844 7.11726 1.52022
63 1 5.18986 5.77006 4.26147
64 1 8.66975 0.149332 6.79176
65 1 5.5436 2.38854 7.02179
66 1 3.27441 8.07521 0.821203
67 1 6.62059 8.97561 3.85633
68 1 5.9906 8.41843 9.31851
69 1 1.37897 0.965828 7.96954
70 1 8.28651 2.81369 2.93129
71 1 8.18606 4.25876 3.51858
72 1 2.62605 8.47849 6.38531
73 1 1.36879 1.40288 3.13355
74 1 7.42497 1.43824 7.08619
75 1 1.89596 1.39436 7.16177
76 1 0.249466 7.41234 2.2643
77 1 7.74841 4.26674 1.8331
78 1 3.15042 5.2755 8.40898
79 1 4.35195 0.685137 5.26356
80 1 0.505341 4.98709 6.46107
81 1 0.833535 4.44409 2.20153
82 1 5.00035 0.186645 9.20692
83 1 6.40586 4.02209 1.98812
84 1 7.89078 3.92653 9.01922
85 1 2.74785 3.8958 8.04683
86 1 3.47221 8.69945 0.12098
87 1 0.376108 9.31878 2.7646
88 1 1.73293 1.74554 8.34567
89 1 6.23923 3.4584 4.38581
90 1 4.31147 7.56546 6.78642
91 1 1.71018 2.43497 3.26434
92 1 5.36076 4.13467 6.04774
93 1 0.442259 7.32633 4.25599
94 1 1.41535 3.03261 3.98624
95 1 9.0977 6.49696 3.33036
96 1 8.07953 9.15507 2.57419
97 1 4.00087 4.04042 2.12894
98 1 0.275903 7.44401 0.162769
99 1 7.07733 6.92058 5.1729
100 1 7.28234 0.869732 6.07754
101 1 7.3248 4.33146 8.25281
102 1 4.33933 9.33605 0.44739
103 1 1.48553 7.01032 7.31607
104 1 9.18876 8.11723 0.861816
105 1 9.05999 5.63091 7.32873
106 1 7.42819 8.4909 3.62449
107 1 5.71095 0.729542 6.2334
108 1 5.4396 2.0506 1.90145
109 1 2.5445 0.018255 3.97476
110 1 7.68799 7.23089 6.86378
111 1 5.19482 8.65023 3.97219
112 1 0.28587 8.62855 8.26412
113 1 1.52626 0.805066 0.762698
114 1 6.86637 3.69336 5.03238
115 1 0.0160277 5.89238 6.2937
116 1 6.39621 2.73484 1.54994
117 1 4.36551 6.09715 4.24193
118 1 3.09767 0.574801 9.0922
119 1 8.46581 2.80735 8.47217
120 1 8.1714 6.03405 3.59378
121 1 5.82091 0.891607 2.93264
122 1 6.58548 8.47175 5.27776
123 1 0.762004 5.26807 5.12387
124 1 2.56354 1.85296 8.84071
125 1 2.38496 5.05154 1.43118
126 1 1.3418 7.17854 9.0816
127 1 9.23489 5.11644 4.61053
128 1 1.88729 4.87643 3.30471
129 1 6.68012 3.84112 8.59571
130 1 8.12469 4.20409 5.78977
131 1 2.8551 3.7683 4.58794
132 1 3.96587 0.430807 6.1563
133 1 0.389684 8.64533 3.60281
134 1 6.82267 0.90326 7.22329
135 1 0.0542237 0.0669856 6.22041
136 1 2.97627 8.90604 8.59616
137 1 0.728899 6.46777 3.64022
138 1 5.86097 0.0106333 3.63274
139 1 1.03255 0.0107719 7.96544
140 1 6.43342 0.24766 4.46185
141 1 0.108624 4.11666 8.73359
142 1 4.61626 7.69635 1.99676
143 1 6.02275 8.83378 7.258
144 1 7.87959 6.54467 4.96565
145 1 0.387323 0.629457 7.69011
146 1 5.80834 1.22173 8.80078
147 1 8.55292 3.07159 4.59145
148 1 8.97902 3.84825 7.23843
149 1 4.39673 6.50113 5.11714
150 1 7.5383 8.63797 8.21352
151 1 7.16271 4.46709 3.89869
152 1 8.54187 3.26196 2.09318
153 1 7.47544 3.6116 3.68866
154 1 4.29805 8.8084 4.50195
155 1 7.02524 2.11486 7.66648
156 1 6.7154 7.56674 2.22784
157 1 9.28397 8.6557 1.66601
158 1 2.04686 2.10988 4.21798
159 1 8.10805 8.02774 1.10695
160 1 5.87145 4.55961 2.78577
161 1 5.26028 8.78861 2.77797
162 1 4.47236 9.25217 1.4049
163 1 5.78367 3.67447 7.20399
164 1 0.266052 8.16668 4.73012
165 1 0.86819 6.40171 6.5879
166 1 0.670334 8.0186 6.58531
167 1 2.63068 9.18532 0.45398
168 1 4.74763 7.00892 2.68493
169 1 1.36177 8.11762 9.3924
170 1 4.7384 3.75756 1.71329
171 1 7.07685 5.18756 8.1336
172 1 8.59841 8.94347 0.0236593
173 1 1.50701 6.73912 2.96096
174 1 5.73793 7.22032 2.53629
175 1 4.97717 8.70135 0.1006
176 1 5.3346 7.12279 1.65813
177 1 7.23849 7.50175 2.91105
178 1 2.10619 4.86281 8.3758
179 1 8.36597 0.75912 4.24438
180 1 9.16166 7.50121 6.65029
181 1 4.82117 1.72943 6.75043
182 1 4.69747 5.03556 7.89635
183 1 3.64478 5.41944 6.0765
184 1 6.07363 5.46625 2.50684
185 1 6.89706 2.3434 4.93541
186 1 2.24449 2.88165 1.55617
187 1 4.05927 2.32253 6.76757
188 1 5.82797 6.9102 4.5913
189 1 7.13865 8.29443 7.28144
190 1 2.91771 9.00381 1.39312
191 1 7.11291 3.08037 5.81214
192 1 8.53619 5.16803 5.19773
193 1 2.74359 3.2234 6.26403
194 1 7.53807 6.08049 6.84596
195 1 9.08312 6.40706 1.32911
196 1 1.87931 3.10927 4.73543
197 1 4.8633 7.57441 8.33176
198 1 8.12645 6.4366 8.64597
199 1 0.487332 3.42439 6.22597
200 1 6.69485 4.11905 7.59758
201 1 0.736159 9.17027 4.89566
202 1 3.09662 0.799189 3.74616
203 1 4.44708 1.59132 8.36849
204 1 0.3031 5.93126 8.05734
205 1 5.12471 5.0556 6.43057
206 1 2.0875 9.24159 8.12383
207 1 4.00373 6.2892 5.90981
208 1 6.71753 7.9926 4.0147
209 1 8.97465 6.06426 5.50591
210 1 0.412139 6.9556 8.725
211 1 7.4083 2.67547 0.725334
212 1 3.91439 1.29556 1.14186
213 1 0.7287 0.381449 2.14166
214 1 2.15608 5.03906 4.28638
215 1 3.65648 8.5784 8.14392
216 1 3.18326 0.105535 2.25187
217 1 4.17099 0.731986 6.9684
218 1 6.67556 7.63446 6.82232
219 1 4.1498 5.43373 0.790555
220 1 1.4206 3.49435 1.90678
221 1 4.66587 7.20076 5.74945
222 1 5.71388 0.939579 4.1756
223 1 7.24224 2.21988 2.66251
224 1 5.21622 6.91905 0.299186
225 1 0.273624 4.07363 1.44527
226 1 6.3108 7.75836 5.78493
227 1 3.19401 4.84125 2.09299
228 1 0.916199 4.87597 3.0002
229 1 9.1591 8.19328 9.03737
230 1 7.32356 0.149465 3.94435
231 1 9.12429 5.13009 9.09961
232 1 0.00365421 6.48069 7.00575
233 1 3.80011 4.29942 7.30149
234 1 6.34878 7.76922 3.12643
235 1 1.64651 8.17711 7.65422
236 1 4.15263 1.68462 7.49063
237 1 4.49194 2.82599 1.89871
238 1 0.0807278 0.579205 5.47033
239 1 4.7725 8.04671 5.13342
240 1 6.00213 1.81915 3.08842
241 1 2.97667 1.40693 1.03268
242 1 3.3111 0.694358 6.7004
243 1 6.19172 2.89265 6.8615
244 1 8.39123 0.463741 1.4886
245 1 8.85834 7.70157 1.83539
246 1 5.1372 0.100305 5.78606
247 1 3.00161 3.64709 3.46188
248 1 3.1324 2.77746 2.24433
249 1 3.75974 3.21446 7.89912
250 1 8.42653 9.24512 8.35844
251 1 3.91181 5.32707 7.64035
252 1 4.747 4.2893 7.14319
253 1 1.13515 2.58174 8.61642
254 1 1.85178 5.82183 2.62857
255 1 3.40017 5.82651 2.42349
256 1 7.83584 4.95401 4.1096
257 1 7.35214 9.12938 7.40331
258 1 6.41502 2.04305 2.25417
259 1 4.18276 4.00148 5.74625
260 1 6.63825 9.18355 7.84627
261 1 3.57286 7.03029 5.07513
262 1 2.24926 2.23035 7.5401
263 1 1.7158 4.3693 1.63665
264 1 6.59442 3.51462 3.38648
265 1 5.55629 0.75099 8.057
266 1 8.76893 3.89513 1.31646
267 1 4.85567 7.77264 9.3095
268 1 6.20636 6.58389 5.44226
269 1 7.73655 8.50664 0.420871
270 1 6.58257 5.85722 4.93218
271 1 6.32556 5.01965 8.84731
272 1 6.35459 3.86128 5.83748
273 1 1.75676 4.05435 2.682
274 1 0.866744 1.12134 1.21842
275 1 7.36982 7.40709 3.87145
276 1 0.899502 0.10797 0.887059
277 1 8.81195 1.62626 3.20292
278 1 8.51965 1.70802 8.68518
279 1 6.11135 0.962167 0.282154
280 1 0.388345 1.97007 7.25527
281 1 1.25237 5.60594 8.64765
282 1 1.51848 9.27481 0.135224
283 1 4.23346 1.30826 2.63245
284 1 9.09898 8.72521 2.87913
285 1 7.43906 5.94884 8.00504
286 1 4.41078 3.1242 1.0991
287 1 3.32072 1.31782 1.91875
288 1 9.15669 8.70889 6.42345
289 1 0.882695 9.38609 3.90636
290 1 9.21526 0.904501 2.00174
291 1 6.98894 5.00803 4.87521
292 1 5.47539 8.47473 5.59645
293 1 2.8799 6.70715 4.70459
294 1 8.35251 7.04558 4.26843
295 1 7.20594 0.851922 4.57129
296 1 4.19031 3.78673 0.457394
297 1 5.82764 5.70575 5.83815
298 1 8.50323 6.86213 7.07655
299 1 9.1843 4.50017 7.85681
300 1 9.27711 2.06356 6.33312
301 1 8.60967 0.737024 2.78026
302 1 3.75586 0.605966 4.47056
303 1 1.24041 5.4879 6.70548
304 1 7.47524 7.27859 5.9614
305 1 4.61229 1.58556 1.82632
306 1 8.94966 2.98702 6.51133
307 1 3.45658 0.39651 1.43837
308 1 3.87525 3.46581 4.22201
309 1 4.60863 1.41662 5.72598
310 1 5.19871 9.22827 0.765128
311 1 8.86764 2.50604 3.90489
312 1 2.98906 7.5706 4.59592
313 1 0.634888 1.93059 1.63168
314 1 7.96623 5.32201 6.61019
315 1 4.29357 2.22048 1.28653
316 1 4.9383 5.74743 8.49765
317 1 2.15025 1.17464 4.07653
318 1 5.46949 3.87689 4.3375
319 1 4.00535 0.108248 8.6688
320 1 0.997717 3.72829 9.00466
321 1 8.67325 0.50923 5.91134
322 1 3.61063 3.28082 5.17595
323 1 0.393778 7.71352 5.55216
324 1 3.03837 1.56968 3.44765
325 1 8.94141 4.29424 2.08152
326 1 2.52567 3.1814 7.36761
327 1 2.62596 4.22481 2.30464
328 1 8.24687 6.2083 1.84976
329 1 2.93679 2.5269 0.0603903
330 1 3.53734 8.58592 2.70777
331 1 7.56428 4.17933 7.43174
332 1 6.50414 8.39779 2.49568
333 1 7.14555 3.56847 6.52689
334 1 8.83282 5.18511 6.58046
335 1 3.1701 6.55447 2.98114
336 1 3.0551 5.16059 4.00036
337 1 7.55473 5.42268 2.2397
338 1 8.0578 7.53004 8.32238
339 1 0.724896 4.22066 5.91858
340 1 0.00951961 1.44663 8.76932
341 1 6.62166 8.40475 1.61645
342 1 6.99207 3.23017 1.28013
343 1 7.74311 0.685808 7.48311
344 1 2.60635 0.636483 1.30588
345 1 8.43398 0.873455 8.50411
346 1 5.0496 3.05547 7.86736
347 1 1.25617 7.77566 1.96514
348 1 5.75822 9.29232 6.51242
349 1 2.19968 8.63532 9.02152
350 1 8.7777 1.04559 5.00781
351 1 6.54273 0.731245 3.65003
352 1 2.02061 2.67075 8.3219
353 1 7.93429 3.31182 1.31334
354 1 7.74971 7.31186 0.622317
355 1 7.08079 6.75464 0.383907
356 1 4.5127 7.60949 0.776353
357 1 1.06831 7.52115 5.01698
358 1 1.42115 0.444581 4.53417
359 1 5.53956 6.31353 2.67504
360 1 2.71578 3.40359 9.05714
361 1 4.49713 0.738525 1.49586
362 1 2.61946 3.00205 4.17852
363 1 3.90383 7.79258 0.156321
364 1 3.92421 3.92484 3.29574
365 1 3.71224 4.0843 4.98519
366 1 1.95326 1.67814 5.08687
367 1 8.02409 0.359039 3.43089
368 1 2.40682 7.93825 8.34346
369 1 8.05656 3.60147 8.08338
370 1 4.30963 2.47666 8.02001
371 1 7.39416 1.61354 2.08294
372 1 8.79434 2.43873 0.0870649
373 1 6.53268 5.1135 4.14939
374 1 3.8907 5.44471 3.85333
375 1 0.88978 2.59937 0.997191
376 1 8.91264 8.26589 3.7715
377 1 5.02571 5.99116 3.37548
378 1 1.76565 6.36612 6.66794
379 1 2.62994 5.8554 1.84056
380 1 4.92777 5.83422 5.73412
381 1 5.90701 8.62846 3.25605
382 1 8.14246 9.24763 4.28279
383 1 7.7099 4.8535 3.02406
384 1 2.34262 6.97401 6.1014
385 1 2.56856 5.45226 5.33389
386 1 4.81855 8.60118 8.24463
387 1 0.588495 4.99546 7.50525
388 1 0.578456 4.14469 7.91964
389 1 8.18166 5.82669 5.79911
390 1 6.92292 7.77085 0.263902
391 1 5.47588 5.11195 1.86824
392 1 2.57339 3.8555 5.57459
393 1 8.15709 7.95023 4.03644
394 1 5.96532 0.204999 8.67124
395 1 0.582363 5.61489 9.26225
396 1 0.697878 1.71447 8.07983
397 1 6.54602 2.97323 2.45762
398 1 2.67228 0.770273 0.437022
399 1 0.0539398 4.3843 0.499191
400 1 3.31185 5.63431 3.23796
401 1 1.94336 5.93404 9.17264
402 1 8.23483 8.80406 3.45757
403 1 5.29745 7.86964 3.06313
404 1 1.98995 7.88967 4.31075
405 1 4.93765 7.6513 3.96473
406 1 7.95764 1.43958 2.76463
407 1 7.77632 0.449714 5.44491
408 1 4.55942 1.09209 4.43091
409 1 6.16259 5.44649 3.39068
410 1 6.2581 5.61362 8.05899
411 1 2.69505 1.71064 6.91119
412 1 2.65555 1.93801 1.75386
413 1 7.94504 6.31189 0.123311
414 1 8.25081 4.09551 6.71576
415 1 4.42815 6.11581 7.57613
416 1 9.12618 5.73029 3.73584
417 1 3.95114 2.41169 5.30276
418 1 0.736844 0.5703 0.0370654
419 1 3.46925 8.4386 4.52312
420 1 9.15561 3.90942 6.33337
421 1 3.92594 3.04893 2.5577
422 1 0.0997793 2.86953 4.60212
423 1 5.30994 1.54775 0.0807793
424 1 1.99459 1.45932 2.43909
425 1 1.8389 9.33742 6.57895
426 1 4.29926 2.48601 0.311463
427 1 2.82413 8.16989 5.37274
428 1 7.64692 2.32669 5.59243
429 1 4.46827 8.52359 2.11399
430 1 8.60675 4.99712 3.57321
431 1 8.49659 8.39866 2.15806
432 1 5.7265 1.81778 6.37407
433 1 3.57638 4.30627 8.26197
434 1 0.72995 0.822369 8.48946
435 1 6.36577 5.84462 0.0465472
436 1 8.42661 4.83328 7.33562
437 1 1.29766 6.31346 0.361329
438 1 0.616568 7.97092 8.80171
439 1 7.75166 2.10025 8.76171
440 1 1.32265 6.23704 1.86425
441 1 1.69837 5.01203 0.700872
442 1 5.03806 5.10458 2.89309
443 1 2.88679 4.60516 4.80382
444 1 1.00011 5.92395 2.97023
445 1 9.07133 2.03452 1.61395
446 1 6.86712 5.94409 0.856452
447 1 8.9326 5.29716 8.11947
448 1 2.23492 6.66083 2.22699
449 1 0.756999 6.89084 1.58227
450 1 8.28757 7.40886 5.2818
451 1 9.30346 2.21868 0.798245
452 1 3.52146 6.05639 0.682976
453 1 0.801342 2.87752 2.02164
454 1 1.49583 0.575536 2.5871
455 1 1.63774 8.07204 2.72334
456 1 2.60403 3.76515 1.53526
457 1 5.54635 9.17801 1.60924
458 1 5.78863 6.31516 3.98626
459 1 5.55488 4.62728 0.815477
460 1 3.86651 7.48275 2.49204
461 1 5.65297 3.2454 6.22307
462 1 7.13596 6.56224 8.71619
463 1 6.76316 0.255167 0.856707
464 1 3.87054 2.026 3.25336
465 1 7.84857 3.71455 2.71586
466 1 4.03667 5.14378 2.7172
467 1 1.63088 0.277739 7.39366
468 1 3.05187 1.12102 4.79443
469 1 9.24525 8.96437 5.33845
470 1 4.64087 6.77275 3.72687
471 1 5.09365 1.47151 2.70643
472 1 6.0558 2.00421 9.1128
473 1 4.97479 0.633003 7.29281
474 1 7.92464 2.09115 7.38661
475 1 0.427722 4.189 6.98116
476 1 4.30112 3.77697 6.61652
477 1 4.91382 3.25597 3.93293
478 1 3.48722 2.00637 0.644294
479 1 3.03626 2.8736 8.28461
480 1 3.5483 3.24344 6.93827
481 1 7.29813 3.40551 2.09609
482 1 5.03447 6.02072 1.02381
483 1 7.86326 2.61218 1.76838
484 1 7.92664 3.69709 4.93402
485 1 6.86619 1.77542 4.1386
486 1 2.4306 0.623731 8.34641
487 1 1.03906 1.83915 3.7636
488 1 0.129326 4.41787 5.12171
489 1 6.01112 7.35771 8.75023
490 1 6.21608 4.38579 0.0802841
491 1 5.18908 9.13772 7.4093
492 1 7.31855 6.44613 2.18241
493 1 3.59425 8.07284 6.52169
494 1 2.47467 5.13185 9.27515
495 1 4.74187 3.13753 8.73903
496 1 8.33545 7.8291 6.3541
497 1 7.03578 7.67244 1.20127
498 1 9.04236 6.80184 2.13593
499 1 6.5778 5.83493 1.82079
500 1 1.18571 1.35775 4.62251
501 1 3.7292 3.25109 1.57943
502 1 3.29553 0.95648 2.83182
503 1 8.97993 0.107614 2.15395
504 1 8.28528 5.95595 7.71523
505 1 4.42379 4.55128 8.74082
506 1 9.33104 0.549983 8.57082
507 1 8.25511 4.98786 1.72558
508 1 6.10922 4.13079 3.814
509 1 8.58966 8.50026 4.64642
510 1 7.53181 1.63968 6.29594
511 1 6.88455 1.49159 3.08937
512 1 4.59687 0.928661 8.96137
513 1 2.13995 1.51547 6.1693
514 1 7.70944 0.152945 0.624536
515 1 1.49557 0.327429 1.76748
516 1 5.55369 8.39535 6.55939
517 1 3.15221 6.29401 8.22076
518 1 7.93101 5.06763 8.14518
519 1 0.211397 1.92 3.43509
520 1 6.80086 4.19335 2.86894
521 1 9.0952 4.22967 3.55851
522 1 1.48412 8.65832 8.39801
523 1 4.84907 8.88978 6.41407
524 1 0.646773 3.0354 7.06854
525 1 0.266507 6.86486 5.99079
526 1 7.90196 1.54554 4.49044
527 1 9.18003 9.00749 4.2022
528 1 8.84948 6.21652 0.327962
529 1 6.41857 9.31044 2.66979
530 1 8.72307 5.64869 0.96162
531 1 3.85831 7.34713 8.41382
532 1 8.77163 3.78833 2.76862
533 1 2.51872 0.656375 7.37047
534 1 5.31997 1.73858 4.40576
535 1 3.1148 7.11195 3.6464
536 1 0.190203 5.66159 0.662172
537 1 4.2639 1.66523 0.159535
538 1 0.832149 4.62765 0.0174692
539 1 4.12966 4.98059 1.73882
540 1 6.26377 2.9463 5.2042
541 1 5.13546 9.08676 4.78736
542 1 3.87667 7.59226 1.46835
543 1 5.34424 2.42412 3.65284
544 1 4.40201 5.84429 6.61711
545 1 7.54567 6.60528 4.12147
546 1 7.07833 1.38484 5.24053
547 1 4.91435 7.17858 4.87176
548 1 1.76834 8.48777 6.09345
549 1 4.14167 4.74437 6.51522
550 1 0.512872 5.37982 3.66317
551 1 6.91434 8.75294 9.22829
552 1 1.46988 0.448706 8.79959
553 1 2.01197 8.57987 1.69547
554 1 7.66483 0.92812 8.92723
555 1 4.41266 8.04979 6.00752
556 1 3.32365 2.33017 6.17057
557 1 7.31459 0.933417 1.4783
558 1 1.11131 5.0022 5.87527
559 1 9.20663 9.13184 7.73684
560 1 0.833422 3.54829 4.32021
561 1 4.38244 6.9873 9.18844
562 1 8.22422 5.48027 8.95445
563 1 5.90354 5.4827 1.05108
564 1 4.44733 6.72898 1.03913
565 1 6.3028 1.88329 7.09222
566 1 3.5099 7.91403 3.74539
567 1 7.38973 5.5776 3.59344
568 1 1.16535 6.80001 5.57222
569 1 4.65813 5.13797 0.147483
570 1 7.41921 6.26634 5.76472
571 1 3.57904 8.67907 5.63264
572 1 4.1684 8.67369 3.55574
573 1 1.35958 8.86181 3.09467
574 1 7.08089 2.0222 0.0972259
575 1 4.80468 3.096 2.88037
576 1 0.940005 4.52259 0.96038
577 1 6.26539 7.203 3.77098
578 1 1.16109 2.45121 7.76411
579 1 6.11986 2.36074 7.92367
580 1 7.90845 2.79429 3.98171
581 1 1.5193 3.26068 7.23433
582 1 9.23574 1.32317 1.1834
583 1 2.54085 6.87051 8.6217
584 1 3.31537 2.5092 1.33339
585 1 8.38194 9.03486 5.45119
586 1 6.46319 2.39395 3.46797
587 1 7.55337 6.67345 3.07045
588 1 7.34882 2.99585 2.97844
589 1 2.32529 0.210063 9.14277
590 1 6.27502 2.97168 8.70027
591 1 1.08236 2.48725 6.50154
592 1 2.73475 2.94341 5.11028
593 1 0.761539 6.09388 5.66865
594 1 8.80547 0.463985 0.761592
595 1 1.36826 7.96622 3.65334
596 1 5.8543 8.93616 8.10457
597 1 7.36584 5.31868 7.2951
598 1 0.511704 4.99114 8.54249
599 1 0.738551 1.17541 2.57077
600 1 6.72898 5.09212 0.648549
601 1 7.50038 2.74645 7.98194
602 1 3.35864 6.99928 6.09162
603 1 1.29018 4.50551 8.30823
604 1 3.77248 6.81684 7.78668
605 1 6.1086 2.37618 4.40199
606 1 1.88217 7.02465 4.76519
607 1 5.58351 3.60084 5.35183
608 1 4.40618 2.08699 4.23949
609 1 6.83863 5.75086 6.15228
610 1 6.57105 0.891834 2.40604
611 1 5.57107 3.01707 1.85775
612 1 4.66235 4.1136 4.10748
613 1 0.480326 7.85131 1.57591
614 1 5.48659 7.00024 3.42041
615 1 8.4995 5.51852 4.30362
616 1 4.22768 0.817771 7.96513
617 1 3.33293 4.6311 3.07042
618 1 4.29355 7.62888 7.70249
619 1 1.92787 3.84525 8.5899
620 1 6.2618 6.72221 1.76073
621 1 0.0581084 4.78682 2.79762
622 1 1.06258 7.51043 0.843343
623 1 6.05702 4.32824 8.1921
624 1 3.34947 1.14586 7.57889
625 1 1.40426 6.65453 8.37122
626 1 7.52688 1.1506 3.51992
627 1 5.12855 6.76442 8.68558
628 1 1.72589 2.17307 9.28724
629 1 5.66951 1.26481 7.10008
630 1 4.10594 9.27336 7.82555
631 1 9.34636 7.28278 1.24575
632 1 0.554072 8.62141 0.208032
633 1 1.01014 8.96082 1.9382
634 1 4.93554 5.31495 4.97544
635 1 1.61082 2.15695 1.45024
636 1 1.44879 0.755919 6.23265
637 1 3.65622 0.247266 3.19302
638 1 0.663921 7.45636 3.19311
639 1 5.53973 4.6201 7.07367
640 1 3.04599 4.74634 5.77814
641 1 1.4813 6.00366 7.53134
642 1 5.30599 2.88 4.71863
643 1 2.31032 8.87449 7.18505
644 1 3.226 6.83478 1.91614
645 1 1.9832 4.32335 7.55475
646 1 0.342689 1.30089 6.06468
647 1 2.05207 4.77752 5.32808
648 1 7.16986 6.8846 1.48169
649 1 1.2512 4.59102 6.66174
650 1 9.07317 6.47506 4.28756
651 1 1.54037 7.66472 8.41866
652 1 2.75228 9.30125 5.91635
653 1 5.85646 0.413566 0.9354
654 1 2.25492 0.0608473 1.95818
655 1 1.0889 3.32895 8.07941
656 1 2.11719 0.688331 5.34847
657 1 7.09693 9.3769 2.0866
658 1 2.04133 2.6765 5.71186
659 1 6.98739 5.91934 2.77798
660 1 2.18941 7.79243 2.10355
661 1 0.0997916 0.308104 1.24405
662 1 0.169252 3.59273 2.31548
663 1 9.21054 5.1498 5.71192
664 1 0.979805 4.09545 5.07476
665 1 5.55509 4.1035 1.62568
666 1 8.39915 0.449055 9.34846
667 1 7.20062 0.353086 2.95643
668 1 6.09318 9.24257 5.63352
669 1 0.087899 5.6221 2.72088
670 1 6.69567 6.60441 7.26933
671 1 1.05251 3.20626 5.22271
672 1 3.34569 0.254299 8.1383
673 1 3.57157 2.5441 4.51091
674 1 3.48644 9.26593 3.96282
675 1 8.8354 7.49482 2.72352
676 1 3.54749 6.16302 7.07621
677 1 4.5227 3.58432 4.8431
678 1 2.59431 8.23795 0.331743
679 1 3.9462 5.03234 4.75208
680 1 2.42055 5.59568 3.47163
681 1 2.52712 3.15147 0.652794
682 1 2.90577 8.08227 7.08703
683 1 2.12981 6.41886 5.45997
684 1 4.97371 5.16864 1.09956
685 1 6.76476 3.18218 7.47497
686 1 8.46992 3.13072 0.509074
687 1 1.51905 5.64158 5.30974
688 1 6.88644 7.50286 8.73411
689 1 0.822581 0.0520075 5.87723
690 1 6.62244 0.0928919 6.76884
691 1 7.0763 5.66805 8.87751
692 1 1.81465 3.64471 1.11942
693 1 5.75314 4.74252 5.47599
694 1 6.34435 4.81248 1.41661
695 1 1.56798 7.83388 6.82838
696 1 2.20325 5.85345 4.61619
697 1 1.02143 1.7926 5.73264
698 1 6.67099 1.47403 6.20675
699 1 0.720563 7.61992 7.84817
700 1 8.87157 4.72579 1.0238
701 1 6.28478 4.40816 4.88161
702 1 1.92213 3.91353 4.5292
703 1 4.27939 8.40324 8.9172
704 1 6.53624 2.32674 5.95434
705 1 8.52209 6.81142 5.8311
706 1 2.39559 2.29074 0.893104
707 1 0.0394148 0.883115 3.14054
708 1 2.71925 4.38234 3.71771
709 1 4.91411 3.13344 5.63175
710 1 7.15236 9.30902 5.00222
711 1 2.36766 0.65042 6.38361
712 1 4.35424 9.18274 5.41806
713 1 1.04597 0.790319 5.39901
714 1 8.0424 3.2892 6.12997
715 1 2.25226 0.0388178 2.84021
716 1 8.47392 8.97184 1.40436
717 1 5.08906 3.64384 0.874687
718 1 7.03962 2.93403 4.04608
719 1 8.37207 1.36818 7.81726
720 1 7.80972 0.659272 2.21229
721 1 4.85185 0.198635 4.00319
722 1 0.507318 4.08355 3.01521
723 1 9.30563 0.918087 6.74242
724 1 2.29266 7.22481 6.9731
725 1 8.02776 7.16842 9.15978
726 1 1.61791 3.93889 5.67003
727 1 4.11382 6.11014 3.29996
728 1 5.56572 5.19962 0.0466822
729 1 8.47265 8.39598 7.8793
730 1 2.65176 8.36613 4.21056
731 1 0.456116 5.94702 1.70959
732 1 8.47497 7.90668 0.23784
733 1 5.22135 6.26028 6.92055
734 1 5.04952 7.08577 6.59438
735 1 2.85793 2.02914 4.4958
736 1 1.66802 0.0111963 5.62955
737 1 1.78486 3.74637 0.130244
738 1 4.55441 4.39945 0.936126
739 1 5.8361 7.93598 4.03209
740 1 0.258929 1.51544 5.05653
741 1 0.351587 1.536 0.399245
742 1 5.46913 1.30057 5.3327
743 1 8.5758 2.3191 2.27322
744 1 6.79507 3.58036 0.0566524
745 1 4.94843 2.06683 5.15225
746 1 7.15138 4.42472 9.27498
747 1 8.96705 6.90572 9.07983
748 1 7.54066 8.01365 8.99805
749 1 5.54347 6.05498 9.12854
750 1 2.0874 7.39823 3.18853
751 1 5.75318 3.79 8.96679
752 1 8.11547 3.1708 7.16214
753 1 3.4267 0.416963 5.42983
754 1 7.80343 4.56979 0.940199
755 1 0.536127 5.7781 7.19022
756 1 8.78993 2.70331 5.65692
757 1 5.4484 5.34852 7.69105
758 1 1.81482 8.31954 0.844883
759 1 6.64522 6.57749 4.4544
760 1 2.2401 0.876045 3.23758
761 1 7.69186 4.54228 4.90349
762 1 2.21044 1.74137 3.27264
763 1 3.3569 5.2577 1.28671
764 1 2.93657 1.16078 5.7185
765 1 1.86778 4.88752 2.35452
766 1 7.23608 5.1378 1.40156
767 1 2.42779 8.58674 2.55415
768 1 2.67762 6.40762 6.96169
769 1 3.56625 3.17207 8.96858
770 1 5.64107 6.01045 1.7501
771 1 0.840293 3.50652 1.0759
772 1 8.48645 4.39789 4.34321
773 1 1.91528 5.54671 6.10256
774 1 6.25626 6.86027 9.39342
775 1 8.29688 2.24217 1.08183
776 1 9.01435 3.60675 8.15127
777 1 0.738689 8.53901 7.3566
778 1 0.32069 3.2339 0.40276
779 1 1.96881 3.83341 6.63421
780 1 3.63988 2.16095 8.96709
781 1 3.84556 3.0052 6.00259
782 1 3.65792 1.44574 6.22727
783 1 3.81375 8.22398 7.33395
784 1 1.30169 7.68803 5.89512
785 1 8.75504 1.68339 6.96331
786 1 4.49819 9.30564 2.63133
787 1 5.05304 8.21603 1.28421
788 1 7.93089 2.00508 3.59412
789 1 7.41661 1.36366 8.18451
790 1 9.01036 5.54323 1.83272
791 1 1.90595 7.0803 0.555855
792 1 7.34577 8.6448 4.47418
793 1 0.425416 2.54774 5.65283
794 1 2.94586 7.34322 9.39102
795 1 6.40908 2.73668 0.475711
796 1 3.98094 7.27392 3.3331
797 1 0.876775 8.9776 8.8765
798 1 5.71684 3.2832 3.36023
799 1 5.96409 5.55196 6.82371
800 1 2.20404 6.46573 3.66594
801 2 5.3234 4.10944 7.90318
802 2 9.37505 3.39931 3.19175
803 2 2.16385 4.70457 6.29118
804 2 0.0563156 2.6045 2.72296
805 2 6.40061 6.59107 8.18488
806 2 4.68568 6.14623 0.178284
807 2 4.19881 6.6903 6.80645
808 2 1.94447 9.33015 1.0774
809 2 0.601352 7.26282 7.01746
810 2 8.99403 7.67046 4.41768
811 2 9.23707 1.64706 2.43788
812 2 5.95318 0.489627 7.31418
813 2 6.56349 6.87414 2.85174
814 2 1.12742 3.06486 2.85015
815 2 4.15974 9.24844 6.89243
816 2 8.43539 7.77419 7.22901
817 2 6.84208 6.80004 6.34175
818 2 5.78444 0.46617 4.98105
819 2 5.3667 6.53453 5.72533
820 2 5.99043 8.74124 4.5201
821 2 1.44266 4.11105 3.72718
822 2 6.36161 1.41781 7.94504
823 2 3.94206 0.54449 2.37118
824 2 1.69485 0.21299 3.61277
825 2 7.66435 5.71975 4.875
826 2 3.43832 7.15221 6.94806
827 2 5.66848 4.91888 4.5932
828 2 8.969 7.6635 8.32409
829 2 1.50331 5.12113 7.6756
830 2 5.62001 2.65779 2.73469
831 2 5.98673 3.41439 1.00057
832 2 8.67714 1.68168 4.16974
833 2 7.34162 1.83204 1.22493
834 2 7.49304 3.03367 9.13245
835 2 2.91434 4.74148 7.67415
836 2 0.501638 0.653564 4.51646
837 2 6.28666 7.29774 0.784114
838 2 4.11747 7.79259 4.34598
839 2 6.43694 7.5336 4.9718
840 2 4.11107 8.35733 0.889457
841 2 7.40582 8.10818 6.39644
842 2 6.6041 0.60781 5.48011
843 2 4.6317 2.25046 2.72355
844 2 8.36762 4.82091 0.115947
845 2 7.2289 4.16728 5.84081
846 2 2.77704 4.16276 6.93331
847 2 9.27645 7.44839 3.50617
848 2 1.66774 1.22105 1.58367
849 2 0.994518 0.87562 3.78265
850 2 6.89861 8.76402 0.740682
851 2 7.70738 5.40198 0.635776
852 2 3.41036 7.11787 0.762363
853 2 4.89478 6.98063 7.54798
854 2 2.64844 5.66021 0.839493
855 2 4.42316 5.99245 2.45941
856 2 7.14752 8.90928 5.90214
857 2 5.61591 8.10777 8.48341
858 2 2.9433 9.09689 5.01702
859 2 1.73164 4.67844 9.17071
860 2 2.99802 1.78217 2.58986
861 2 0.30049 3.23918 8.77939
862 2 3.54037 4.11664 1.2007
863 2 3.04847 5.62784 7.58078
864 2 1.08563 8.81595 6.53368
865 2 2.7678 5.69195 6.46823
866 2 8.80927 2.54237 7.57044
867 2 1.06888 1.37385 6.8107
868 2 2.61696 6.46752 0.529101
869 2 5.76793 7.05477 7.13609
870 2 7.23649 0.387211 8.30044
871 2 0.424132 2.32081 9.39544
872 2 5.02299 1.70448 1.01669
873 2 6.16805 7.57814 7.84407
874 2 5.61657 0.972448 1.65726
875 2 3.26656 3.61838 2.64243
876 2 7.59183 8.12409 5.44296
877 2 4.4085 4.70471 3.49981
878 2 7.37103 7.69106 4.71622
879 2 8.57471 6.12496 6.53433
880 2 2.50498 1.47722 7.96633
881 2 1.04973 8.43227 4.32855
882 2 5.00605 3.96318 3.21434
883 2 8.76747 8.21235 5.65469
884 2 4.91532 2.48368 6.23127
885 2 0.722699 8.26046 2.49688
886 2 1.15365 2.45241 4.66315
887 2 9.27634 7.31211 7.66639
888 2 7.22629 1.0457 0.485025
889 2 5.39006 2.47788 8.55931
890 2 4.93651 4.32357 4.92905
891 2 3.35151 5.70964 9.12968
892 2 2.61425 5.29607 2.64347
893 2 0.267941 4.90108 1.59768
894 2 0.0954519 9.37056 9.18192
895 2 5.62813 6.30377 7.74946
896 2 7.51776 7.96073 2.02713
897 2 4.58087 2.78407 7.20174
898 2 6.04063 8.6765 0.950463
899 2 0.253822 3.43975 5.37024
900 2 8.07579 1.56165 5.45718
901 2 3.27493 8.06622 8.73238
902 2 7.04507 7.46151 7.79768
903 2 6.32476 4.91411 7.29742
904 2 4.11914 5.73445 5.23321
905 2 2.2602 6.56153 7.83895
906 2 2.52055 0.753856 2.30904
907 2 1.79198 8.24236 5.2853
908 2 4.68053 8.29963 7.26064
909 2 8.87546 3.40919 9.10058
910 2 4.92182 0.0747456 8.34529
911 2 5.45628 4.63411 3.60065
912 2 2.88075 7.09929 7.67793
913 2 4.00905 1.48465 5.0099
914 2 5.21551 1.45581 3.57114
915 2 0.185796 3.08974 7.89454
916 2 8.83814 1.46085 0.25479
917 2 8.49828 3.35094 3.70385
918 2 1.92715 8.69524 3.78847
919 2 3.09363 6.30388 3.93439
920 2 8.05856 7.39823 3.28888
921 2 8.68798 0.625673 7.57109
922 2 6.81936 0.432799 9.30138
923 2 8.78606 3.82975 5.09772
924 2 0.710169 6.62796 7.69281
925 2 9.25245 1.62021 7.82706
926 2 8.16754 1.29525 0.986068
927 2 1.26304 1.66053 0.428841
928 2 5.09839 4.12759 0.122859
929 2 0.781988 5.29124 2.21624
930 2 3.99735 5.99146 1.60687
931 2 5.41118 4.60429 8.76789
932 2 9.27882 3.66975 4.1999
933 2 6.24889 0.310436 1.70598
934 2 0.411866 5.91892 4.50892
935 2 3.11385 2.44128 7.37369
936 2 3.64983 7.87924 5.27026
937 2 1.49236 5.78723 3.78515
938 2 3.25089 4.93161 6.80063
939 2 6.48918 8.54052 8.505
940 2 5.64949 8.00577 4.8351
941 2 4.28345 0.864416 3.59827
942 2 1.00379 2.1155 2.60363
943 2 3.81307 2.14841 2.17447
944 2 2.82413 2.55077 3.35392
945 2 6.85014 4.21802 1.06008
946 2 8.33329 2.21431 4.84869
947 2 3.40453 4.03864 6.30175
948 2 2.03567 3.44843 3.2942
949 2 2.74967 2.02404 5.45288
950 2 8.10107 7.1327 2.4534
951 2 1.53615 5.32198 1.60321
952 2 4.74468 0.916248 0.50123
953 2 7.55873 8.75902 1.44986
954 2 1.40465 7.0431 3.84152
955 2 2.62395 8.05013 3.36464
956 2 3.08907 8.95331 7.63833
957 2 5.97292 6.5519 6.37849
958 2 3.77519 0.811343 0.287278
959 2 8.75508 1.47339 5.96495
960 2 1.11022 6.50792 4.56039
961 2 4.9805 4.44922 2.2943
962 2 3.63214 1.54027 4.15114
963 2 7.79068 6.77626 7.7192
964 2 2.13973 2.32777 6.5514
965 2 6.02885 7.63613 1.62613
966 2 2.79353 7.2218 5.39176
967 2 5.60912 6.00329 4.94519
968 2 6.49557 8.58937 6.49876
969 2 3.41446 6.66353 8.99168
970 2 2.12524 8.89637 4.74275
971 2 1.214 2.94455 0.200662
972 2 6.8176 2.06519 8.52279
973 2 3.77421 6.98686 4.24326
974 2 0.297187 6.73342 5.01103
975 2 0.0224901 2.29479 8.50028
976 2 7.72791 6.16379 0.979354
977 2 3.22381 5.86236 4.79061
978 2 7.50275 5.09208 5.63942
979 2 5.37532 0.279212 2.22547
980 2 8.04498 8.12644 2.89367
981 2 1.79657 7.15228 1.60695
982 2 9.34588 8.24004 7.31341
983 2 4.33337 8.05834 2.93397
984 2 8.3606 1.31186 1.90407
985 2 3.05996 6.31295 5.53803
986 2 8.5982 4.03108 0.410743
987 2 6.11555 9.31363 0.211764
988 2 2.69312 4.09932 0.266421
989 2 8.40714 6.28672 2.79993
990 2 7.53714 3.60845 0.63184
991 2 2.16532 7.61889 9.14342
992 2 8.46717 4.89896 2.62314
993 2 9.13313 2.99312 1.23701
994 2 5.67731 3.75112 2.59989
995 2 8.13703 1.10865 6.48602
996 2 5.00959 0.583531 3.08387
997 2 0.351091 2.77436 3.67241
998 2 0.740392 0.229092 6.82751
999 2 1.99061 6.26105 1.2089