#bin. KALJ data file T=0.5

1000 atoms
2 atom types

0 9.4 xlo xhi
0 9.4 ylo yhi
0 9.4 zlo zhi

Masses

1 1.0
2 1.0

Atoms

1 1 1.76061 0.943024 4.93469
2 1 1.28248 0.668881 8.44379
3 1 7.01429 8.81796 7.57662
4 1 3.87978 1.87555 4.44871
5 1 1.18284 3.57935 1.96502
6 1 9.12133 1.28795 1.89203
7 1 4.58744 5.16953 7.14098
8 1 8.7647 6.66408 6.67645
9 1 2.13205 4.23796 4.95635
10 1 8.32123 0.70377 5.61245
11 1 2.23779 9.27331 9.22775
12 1 1.26282 5.42456 0.3356
13 1 0.495671 1.43396 7.39754
14 1 6.74867 2.05939 7.5626
15 1 6.60115 6.45124 4.13337
16 1 2.34491 4.0156 2.76383
17 1 6.98799 6.3626 5.92568
18 1 3.5858 0.687476 7.32448
19 1 7.75191 6.60417 6.79313
20 1 4.90006 6.65754 3.16713
21 1 9.37164 1.27603 8.79488
22 1 3.74853 9.16316 0.895137
23 1 2.1467 4.49156 8.93298
24 1 8.65411 2.70853 2.76521
25 1 3.36938 7.26283 8.64151
26 1 6.73962 6.34666 8.2879
27 1 2.82849 2.62795 4.62367
28 1 9.22434 8.35643 8.99054
29 1 9.31448 5.70814 3.16827
30 1 3.92247 0.685917 0.0696449
31 1 4.44316 3.18769 5.47808
32 1 6.55563 1.6065 2.99318
33 1 1.99252 6.4532 1.69236
34 1 2.48005 8.06914 1.04012
35 1 3.6543 8.72324 3.82555
36 1 3.25593 7.01493 1.97959
37 1 0.599818 8.55488 5.44455
38 1 0.119854 2.39816 4.18006
39 1 8.3406 1.92985 0.39469
40 1 3.66924 8.50425 4.71313
41 1 1.16163 3.47502 7.95299
42 1 7.42842 8.46897 8.35632
43 1 2.58851 8.53722 8.64437
44 1 2.4098 7.4653 8.07403
45 1 9.3678 7.80191 4.43757
46 1 6.40896 6.34401 2.71223
47 1 4.00591 2.8158 4.51369
48 1 5.15707 7.99118 8.44995
49 1 5.39438 0.0988854 5.61472
50 1 2.01675 3.53961 7.53087
51 1 3.06665 2.17928 6.39269
52 1 5.95283 2.56146 5.24282
53 1 1.82963 5.06017 4.57275
54 1 0.933424 2.26682 0.0313311
55 1 3.57194 2.29847 5.24524
56 1 9.05642 8.27288 7.64789
57 1 2.48097 7.59881 3.19592
58 1 7.41113 3.20696 8.61825
59 1 7.3461 6.35781 2.00383
60 1 1.41229 2.58993 5.6999
61 1 3.11546 5.39077 1.89306
62 1 7.14746 5.57028 8.19996
63 1 9.19444 0.351721 9.21823
64 1 8.76248 0.171083 3.692
65 1 3.55376 2.32924 8.11363
66 1 7.2352 5.57968 2.8823
67 1 8.0909 1.33547 4.76921
68 1 3.49269 7.37503 7.67867
69 1 5.24683 2.4001 4.28423
70 1 3.92743 5.86815 5.41537
71 1 5.51314 1.31461 4.47042
72 1 7.43739 2.21812 3.19148
73 1 8.62259 5.94681 0.916196
74 1 0.785174 1.57651 8.26682
75 1 8.07472 9.39663 2.48641
76 1 3.83636 7.99988 9.32492
77 1 0.361001 7.60757 1.57551
78 1 1.0755 4.36719 0.370549
79 1 2.80635 2.89631 1.2437
80 1 8.53282 5.32821 1.63265
81 1 6.77891 4.19821 5.0023
82 1 4.83142 1.0531 7.85065
83 1 3.33712 7.30501 6.35222
84 1 9.26656 8.98026 7.20546
85 1 1.41289 6.3549 0.0773499
86 1 3.76662 3.99114 3.47464
87 1 6.87483 1.17398 7.93434
88 1 9.30001 4.6384 6.48856
89 1 6.69992 0.669645 0.721354
90 1 4.75229 4.21387 4.46719
91 1 4.40858 3.54598 1.0454
92 1 1.9136 2.28804 0.811553
93 1 4.07749 6.75969 1.9546
94 1 6.42423 1.84643 1.6339
95 1 7.12296 0.341368 5.37942
96 1 0.957983 0.963968 4.18456
97 1 1.66773 2.76835 7.09687
98 1 5.01942 4.46042 6.58123
99 1 6.07814 6.22703 5.85503
100 1 0.736947 2.44854 7.39174
101 1 6.03075 8.12333 2.64041
102 1 8.78284 6.35495 5.81517
103 1 6.05379 5.70508 0.8152
104 1 7.22175 8.04065 4.55744
105 1 6.05303 4.19056 2.3005
106 1 2.64563 1.48759 5.01271
107 1 2.4832 0.41125 3.70636
108 1 5.2255 1.79282 0.631666
109 1 9.24338 8.48815 6.14234
110 1 1.85731 1.65631 1.41469
111 1 6.38513 1.01528 4.20541
112 1 7.57204 4.21425 4.33967
113 1 8.98489 5.87233 6.99769
114 1 9.25827 4.6832 4.9446
115 1 7.70361 1.21506 2.72062
116 1 1.59152 9.10616 8.61745
117 1 7.5373 5.06124 7.40943
118 1 7.05121 2.93602 0.303816
119 1 4.6662 5.68816 7.84235
120 1 6.20514 8.20937 0.0510041
121 1 6.59654 5.10872 7.31233
122 1 7.75201 7.45874 7.10378
123 1 4.19669 3.60367 2.3712
124 1 7.58308 0.383192 8.31296
125 1 2.38684 5.78477 2.59178
126 1 2.95427 9.36294 6.88984
127 1 7.48746 6.37382 7.79229
128 1 7.76659 0.540736 6.32173
129 1 9.40442 4.60333 4.00856
130 1 8.54019 3.45104 9.00342
131 1 7.43473 2.29271 8.66008
132 1 3.34989 1.59365 5.70772
133 1 5.24421 3.67442 5.15731
134 1 0.550285 6.34211 6.70557
135 1 5.6759 5.17347 7.5778
136 1 2.67232 5.05923 3.89839
137 1 9.00324 2.56137 1.63292
138 1 3.35928 0.249421 2.01102
139 1 2.57454 2.71206 6.98553
140 1 5.85437 8.36253 8.06586
141 1 7.3394 1.88571 0.697739
142 1 9.0208 3.70115 1.32269
143 1 6.96267 1.66277 3.92444
144 1 1.81986 8.63852 7.77664
145 1 7.258 2.25776 5.68406
146 1 6.97311 7.04929 3.17486
147 1 2.12143 3.22153 2.22263
148 1 4.87317 7.80267 0.257167
149 1 7.02757 8.01363 2.45339
150 1 2.87954 8.21406 7.53352
151 1 1.19825 7.36539 2.06877
152 1 9.22847 2.45304 8.41158
153 1 0.304073 2.02426 3.28311
154 1 0.439643 8.52567 4.56285
155 1 3.39379 7.98903 3.11299
156 1 6.87933 6.40778 1.23305
157 1 2.94724 8.77823 6.26115
158 1 1.51573 5.52024 7.15932
159 1 1.13002 5.54102 1.62655
160 1 1.11005 8.67054 7.00795
161 1 6.26 5.88571 6.7192
162 1 5.48245 8.0089 1.85402
163 1 7.21397 0.210302 2.04727
164 1 2.97846 5.63751 3.22161
165 1 2.18792 0.416404 8.32196
166 1 8.49515 0.0259341 0.204184
167 1 1.59155 2.49754 7.92832
168 1 1.95193 4.83565 3.49458
169 1 1.58955 2.01475 8.75671
170 1 5.70051 1.99872 6.24191
171 1 6.85173 2.58745 4.10273
172 1 2.92852 4.73814 1.17527
173 1 4.99524 3.41259 8.22192
174 1 9.06346 1.25605 0.276186
175 1 6.50793 5.42101 5.57015
176 1 4.85528 8.79329 6.15574
177 1 7.19726 1.07308 4.59435
178 1 2.73157 4.99618 4.82605
179 1 8.74816 7.22986 4.27593
180 1 4.338 2.97569 7.723
181 1 8.88402 7.40572 7.11236
182 1 2.84117 0.444135 6.15534
183 1 5.47139 5.31926 4.49214
184 1 8.91338 5.09015 0.649153
185 1 5.51084 0.950794 1.63229
186 1 9.0023 9.24377 2.69311
187 1 2.69755 0.640775 5.24421
188 1 3.09283 7.33583 1.19775
189 1 5.38923 5.78555 8.35686
190 1 6.0458 9.29495 0.241678
191 1 8.96526 3.64624 7.96365
192 1 5.57605 3.66595 2.96394
193 1 7.42416 5.10249 4.91352
194 1 9.38598 0.857146 3.08459
195 1 0.977947 5.83398 8.38898
196 1 4.79803 4.83771 8.23148
197 1 2.21059 2.41438 1.84272
198 1 0.496784 8.04364 3.7016
199 1 4.17901 0.0822481 2.34035
200 1 3.0248 1.36743 3.88668
201 1 2.57232 3.68299 8.67679
202 1 7.82672 5.952 1.36535
203 1 8.37081 6.65784 7.4821
204 1 0.217372 1.13361 4.57778
205 1 5.63293 5.0474 3.22223
206 1 4.99862 8.3718 3.12042
207 1 3.63185 6.37759 8.91333
208 1 5.72312 9.33713 2.04607
209 1 4.493 6.36487 4.11427
210 1 5.21866 6.94971 8.84479
211 1 3.21642 1.7593 7.31649
212 1 0.746274 4.65674 1.80712
213 1 2.18222 1.80016 6.86543
214 1 1.06912 7.61756 4.46857
215 1 1.28761 4.18746 6.78087
216 1 5.19655 7.38238 1.17438
217 1 8.0718 7.8972 0.920325
218 1 1.82407 4.2855 1.66822
219 1 8.80761 1.29971 4.0061
220 1 6.89258 3.57783 4.31034
221 1 1.57567 0.0659417 2.03205
222 1 3.3524 1.21145 6.63199
223 1 1.59308 2.31846 3.88617
224 1 5.10503 0.11254 0.430021
225 1 9.14941 4.5931 7.52978
226 1 1.80598 2.73419 9.32608
227 1 7.1008 1.16077 1.41503
228 1 3.87638 5.54377 6.49224
229 1 7.6719 4.08176 5.98372
230 1 8.66596 8.21021 6.85276
231 1 0.441368 7.54751 5.29918
232 1 5.11268 5.13478 2.56994
233 1 7.09891 3.40349 1.52941
234 1 6.43362 4.43592 4.20513
235 1 8.90841 4.34454 8.68479
236 1 5.31483 4.25505 7.85529
237 1 3.69275 1.79634 0.108515
238 1 6.22067 6.85689 8.84385
239 1 2.37649 5.95372 6.65121
240 1 6.46246 3.0257 8.86264
241 1 4.26901 1.0889 6.90019
242 1 2.16252 4.93433 7.56008
243 1 3.87109 1.54289 3.63755
244 1 7.5956 6.40927 2.96027
245 1 1.98133 2.98573 4.46267
246 1 4.35467 5.14072 0.483168
247 1 8.249 9.21169 1.50448
248 1 2.97099 5.37347 6.74356
249 1 7.59128 1.33814 8.29836
250 1 5.99471 3.73118 6.51703
251 1 2.6606 5.28973 8.6679
252 1 5.53206 3.21286 9.01983
253 1 5.50113 1.95771 1.57227
254 1 3.86469 7.46521 0.62325
255 1 9.20351 3.7835 0.352992
256 1 7.88217 0.42622 4.88223
257 1 6.23161 2.55391 3.12633
258 1 4.88982 0.656819 6.12124
259 1 7.70777 2.41981 7.8303
260 1 1.00419 6.81549 2.98931
261 1 8.6963 6.21659 1.82093
262 1 4.14958 8.48268 1.58107
263 1 0.930315 0.981479 6.58069
264 1 7.86232 8.18966 6.48194
265 1 4.55278 1.95791 0.024905
266 1 2.25099 3.04263 3.10783
267 1 3.87304 5.8707 0.231034
268 1 5.67198 0.59468 7.89868
269 1 4.66525 5.96331 0.796064
270 1 1.49894 1.13397 5.75361
271 1 2.4259 1.98305 7.7653
272 1 5.12304 0.569204 8.51659
273 1 1.89923 0.860256 6.61508
274 1 5.88944 0.91084 6.07901
275 1 5.33187 3.62776 3.81338
276 1 8.75271 3.86859 3.01929
277 1 3.66777 1.914 2.76399
278 1 0.549617 4.78091 5.63195
279 1 4.46367 2.26275 5.8634
280 1 5.90476 8.7963 7.11238
281 1 3.82664 7.49633 4.95338
282 1 0.264406 8.24792 2.16236
283 1 4.84021 3.11491 4.58448
284 1 2.79693 1.86817 1.24777
285 1 5.7154 7.4235 6.86972
286 1 1.85754 9.12317 2.83062
287 1 0.651152 3.49871 2.93529
288 1 6.43902 5.66125 4.60147
289 1 9.25609 3.26754 6.84719
290 1 8.53049 0.879397 8.34059
291 1 3.37254 8.87133 1.70978
292 1 7.16512 9.31658 6.56708
293 1 6.83892 2.98867 7.72349
294 1 4.893 6.92627 6.88405
295 1 0.902591 2.69941 3.40347
296 1 0.927156 4.91585 8.95571
297 1 8.5703 7.56809 7.93897
298 1 6.38587 5.48542 8.64963
299 1 7.1199 3.10913 3.45205
300 1 3.53338 2.38399 1.10941
301 1 4.52711 5.50604 8.80984
302 1 8.16585 0.909864 9.25366
303 1 3.18575 6.07408 6.25603
304 1 8.54831 7.72537 8.84683
305 1 8.04793 9.18791 7.91443
306 1 5.07517 0.482863 4.36634
307 1 6.81741 2.46082 6.73865
308 1 4.14218 0.335894 5.72458
309 1 4.57559 6.4524 8.4173
310 1 5.9782 3.36098 4.67183
311 1 5.26924 1.05003 7.02583
312 1 4.87673 7.69695 5.24926
313 1 7.44014 1.46849 9.14006
314 1 7.09591 0.725705 3.01417
315 1 3.06625 7.50468 4.18335
316 1 7.55213 0.512026 0.342973
317 1 6.24853 1.79129 0.509511
318 1 7.85138 9.32995 9.02277
319 1 2.8794 1.66416 2.27145
320 1 9.0967 0.265551 5.84853
321 1 2.1073 9.29473 6.29523
322 1 2.87855 3.05789 7.81387
323 1 0.368532 8.13382 0.363846
324 1 2.25678 9.3299 4.8096
325 1 0.654924 5.11777 4.80078
326 1 0.0531579 3.10316 3.47669
327 1 5.48753 4.34174 5.8295
328 1 1.79249 3.37455 6.33777
329 1 4.5114 0.916496 3.11477
330 1 4.75158 7.2889 1.94376
331 1 5.47241 8.64103 5.3678
332 1 2.37791 8.08016 5.92962
333 1 7.62125 7.9912 5.51504
334 1 0.957421 8.86159 2.429
335 1 5.40901 0.254146 6.6562
336 1 8.61271 1.21408 6.30824
337 1 6.10908 1.74423 7.09612
338 1 2.74637 5.8678 5.14434
339 1 4.93965 6.4106 1.66854
340 1 1.40647 5.12285 5.37116
341 1 2.50388 4.06681 6.99415
342 1 0.257948 0.431853 7.25087
343 1 5.12448 7.14237 4.53304
344 1 2.85863 8.16978 4.72654
345 1 0.517003 1.31482 5.89797
346 1 8.17142 4.33388 7.67793
347 1 2.50483 3.15534 0.470783
348 1 5.56861 3.47479 0.441039
349 1 8.84266 0.251651 6.70594
350 1 8.18633 9.18389 7.05782
351 1 3.84686 4.91289 9.15074
352 1 4.99796 4.79931 5.15228
353 1 1.29825 8.70566 3.41122
354 1 6.24939 0.367293 7.14261
355 1 6.59888 7.19341 0.829217
356 1 4.27243 5.13775 4.29467
357 1 5.65041 5.89454 2.76416
358 1 0.478437 2.0926 5.48296
359 1 7.06446 7.32422 8.66168
360 1 7.20455 8.05054 3.56412
361 1 8.8581 7.84442 2.29379
362 1 1.76209 5.21415 8.58425
363 1 8.05803 9.32647 4.23485
364 1 3.55411 8.94154 9.18508
365 1 6.76509 2.14706 9.33
366 1 1.32435 4.81909 1.04691
367 1 2.5913 6.67506 2.34644
368 1 0.384569 5.99092 4.60388
369 1 8.07724 8.47181 0.0392757
370 1 8.12551 8.70784 3.21885
371 1 1.17206 7.64055 9.3392
372 1 0.760814 6.18857 0.853
373 1 0.649436 5.25634 3.82329
374 1 8.62614 4.10556 6.84112
375 1 0.496184 3.79931 6.54642
376 1 2.10144 4.83355 6.60579
377 1 7.62499 4.26297 6.86326
378 1 5.59621 2.80773 6.68988
379 1 7.11441 5.32602 3.7748
380 1 5.56407 4.27064 4.46612
381 1 7.25738 5.43443 1.86749
382 1 4.90944 6.17954 6.06842
383 1 1.13756 8.98456 4.90691
384 1 3.43003 0.589067 4.16774
385 1 2.98853 0.24014 0.260148
386 1 0.855823 9.27493 4.09257
387 1 3.99487 7.60609 1.78546
388 1 8.14835 1.64342 5.64706
389 1 0.35777 6.33036 9.20783
390 1 6.49321 8.61875 4.15054
391 1 9.23194 7.35402 3.44819
392 1 6.40602 7.75524 3.3466
393 1 5.9498 3.32088 5.65107
394 1 2.95896 1.92902 8.68251
395 1 0.211662 6.40099 3.56274
396 1 9.03419 1.57926 2.77478
397 1 6.07403 6.92057 3.34308
398 1 2.75678 4.86829 2.76669
399 1 6.55522 1.5732 6.15403
400 1 8.47807 5.97697 2.65719
401 1 6.26054 1.9384 4.51125
402 1 4.35464 9.30333 8.71718
403 1 7.92328 8.27569 7.5407
404 1 0.29846 9.23735 1.8947
405 1 3.37844 9.39769 5.34675
406 1 7.42377 8.73394 1.60319
407 1 2.36573 1.27939 8.37242
408 1 2.49825 8.9354 5.57314
409 1 6.65778 1.3431 8.76563
410 1 6.53263 5.62739 0.151405
411 1 7.95819 5.05999 5.63967
412 1 4.20109 5.40249 3.07517
413 1 5.51907 6.5858 0.761256
414 1 4.10444 1.22183 5.98197
415 1 1.93646 6.43422 2.8938
416 1 1.16304 4.27105 5.02205
417 1 5.81176 7.31302 0.289091
418 1 5.26989 2.69758 7.67855
419 1 6.70669 4.09359 5.81732
420 1 4.64265 8.70001 4.89041
421 1 7.14646 0.301708 7.4532
422 1 9.19689 2.96294 9.36822
423 1 5.15609 5.94617 7.12079
424 1 4.63179 2.09474 4.8684
425 1 0.22918 7.28403 2.62127
426 1 3.59861 9.04949 7.37473
427 1 9.36111 4.69353 9.30589
428 1 1.78962 0.636591 3.04838
429 1 7.34382 4.17087 9.20104
430 1 8.21449 2.44765 6.49013
431 1 3.64161 4.83611 3.66833
432 1 5.66039 6.46749 4.11757
433 1 5.1726 2.5851 0.112395
434 1 0.898255 1.2676 5.08563
435 1 3.08448 0.953874 1.40995
436 1 0.544919 2.91332 1.77696
437 1 1.19478 4.09962 8.9512
438 1 7.32867 3.97431 0.692555
439 1 8.34089 7.11091 0.205735
440 1 2.67021 8.8549 3.65988
441 1 4.50552 2.12487 8.29868
442 1 4.14831 8.19408 5.59305
443 1 2.71803 4.15961 7.9006
444 1 7.15132 8.88949 2.64418
445 1 8.41526 2.79626 8.33872
446 1 0.244768 0.682377 2.1965
447 1 1.15512 0.742804 1.05777
448 1 2.88937 8.01346 9.3004
449 1 8.45152 6.40574 9.04241
450 1 0.894911 1.86683 4.16404
451 1 2.79979 3.32546 6.41208
452 1 3.44745 3.90073 1.20614
453 1 8.54839 5.9325 3.6709
454 1 5.67825 9.08184 4.52675
455 1 0.143308 8.6241 1.2178
456 1 1.78081 0.244601 5.49894
457 1 8.01463 3.47195 1.30568
458 1 8.38686 4.96425 6.97664
459 1 0.454159 4.96926 0.619514
460 1 5.55296 6.87232 2.38467
461 1 2.23896 7.33679 1.60836
462 1 7.26818 5.28455 6.15483
463 1 3.13929 3.43018 3.65339
464 1 0.767074 5.28387 2.52098
465 1 5.13374 2.64832 1.04025
466 1 3.99317 0.714883 1.5903
467 1 8.12667 5.84921 7.23866
468 1 3.49318 3.96826 5.9909
469 1 1.23179 9.3259 9.41798
470 1 4.6386 6.21799 9.31261
471 1 7.82771 3.49643 3.06444
472 1 4.15603 2.57487 2.14414
473 1 6.36531 1.00565 2.11635
474 1 3.91945 2.48164 8.98297
475 1 1.65664 8.63727 0.775694
476 1 0.173608 2.73245 0.735187
477 1 4.54129 0.260191 7.09947
478 1 1.01308 1.98944 6.54155
479 1 0.0526227 2.38052 2.48256
480 1 8.95014 3.52085 4.5206
481 1 1.24766 1.93447 2.83789
482 1 5.64269 9.18172 2.88114
483 1 0.668204 3.05664 5.35547
484 1 7.12977 3.14182 5.80533
485 1 7.28298 1.92617 4.72128
486 1 1.82042 0.629649 9.17812
487 1 2.93486 5.74665 9.39231
488 1 2.82353 1.05818 9.14117
489 1 1.57528 8.06322 8.65519
490 1 4.80976 1.63813 6.51628
491 1 5.26314 2.43885 8.61017
492 1 1.6293 1.41932 3.51086
493 1 7.24803 9.15833 4.74376
494 1 0.351236 6.91727 4.62803
495 1 5.03918 7.22214 7.9953
496 1 4.96422 3.49142 6.23226
497 1 6.30394 9.42139 6.20979
498 1 5.57978 8.24491 6.33906
499 1 2.02092 7.74675 4.0049
500 1 3.02082 0.987271 3.0209
501 1 5.80558 4.46596 7.07308
502 1 8.42906 3.11158 7.36614
503 1 5.75517 7.35745 5.33452
504 1 6.56292 8.98999 1.00965
505 1 0.585454 7.28457 7.00511
506 1 2.36555 6.50792 9.34224
507 1 8.94919 7.49579 5.31386
508 1 2.18763 5.31766 1.80768
509 1 5.34031 6.27553 5.16639
510 1 2.72359 3.77418 1.93002
511 1 6.59658 9.05494 8.55767
512 1 9.08599 0.189866 0.931813
513 1 8.73248 0.598618 1.63543
514 1 3.70979 5.63558 8.44849
515 1 6.46312 8.42011 6.04346
516 1 7.25126 5.91056 6.82839
517 1 9.29106 2.05643 0.0975658
518 1 8.51592 2.41554 4.83836
519 1 9.30702 1.73792 7.94078
520 1 4.75672 0.0316516 3.20633
521 1 3.57091 8.99284 8.27215
522 1 1.34184 3.6688 3.85068
523 1 4.78712 8.06144 4.2589
524 1 1.10586 6.55244 5.80123
525 1 3.9772 3.80705 4.51781
526 1 7.81018 2.66963 0.940644
527 1 0.23245 0.489406 3.86194
528 1 3.42596 3.3263 5.22484
529 1 8.33248 2.18283 7.27956
530 1 0.309202 5.68647 7.75281
531 1 7.84612 6.19315 3.99818
532 1 3.38413 4.29008 8.53508
533 1 8.39477 9.11893 5.72741
534 1 3.69556 4.52871 2.52347
535 1 3.97837 8.20531 7.51464
536 1 5.09815 5.1137 9.33954
537 1 4.64275 2.07593 1.49464
538 1 7.68277 4.66202 3.5165
539 1 4.86168 3.11341 1.6851
540 1 4.82802 7.66935 6.40135
541 1 1.96558 8.3432 1.72278
542 1 5.61392 7.9766 4.70458
543 1 8.88235 6.38943 4.87724
544 1 2.17113 4.26451 4.08209
545 1 7.46092 7.32918 1.45023
546 1 7.07769 4.42367 8.17592
547 1 0.486497 4.29685 8.38408
548 1 2.28107 6.98924 7.35917
549 1 0.686266 0.198333 3.14032
550 1 7.42548 3.22532 2.34889
551 1 2.26712 1.77856 9.2844
552 1 8.67415 2.81507 0.735216
553 1 8.33268 4.4079 1.02965
554 1 4.35822 0.174473 4.86472
555 1 7.9824 0.643993 7.36234
556 1 4.94081 7.86101 7.45397
557 1 2.97886 0.176685 8.73274
558 1 2.3594 1.26122 5.93394
559 1 8.29175 4.51519 4.64502
560 1 7.60974 7.2063 6.10937
561 1 8.63708 5.02657 3.54577
562 1 2.15935 4.62892 0.680945
563 1 7.82586 8.69624 5.07088
564 1 6.47108 3.61663 0.686261
565 1 7.51519 1.51342 7.37561
566 1 2.40345 6.713 0.917824
567 1 3.12623 3.7908 0.128195
568 1 1.38711 1.60731 0.607821
569 1 8.39066 6.81125 3.58902
570 1 7.74377 9.02761 0.705438
571 1 2.11365 6.48429 5.56483
572 1 2.13712 0.688413 1.36978
573 1 1.08983 3.21337 8.81399
574 1 8.22902 6.73329 0.993271
575 1 1.72335 4.26032 6.0454
576 1 4.7664 1.04048 0.054315
577 1 5.93712 2.32262 9.14104
578 1 1.23873 2.86985 2.43113
579 1 4.16474 8.03113 3.53969
580 1 6.0996 2.60446 7.4572
581 1 6.06463 2.74595 0.887294
582 1 8.7135 2.10144 3.63537
583 1 6.80773 0.225849 9.12099
584 1 0.624192 6.50043 1.66447
585 1 8.27839 3.95644 3.76439
586 1 0.647256 3.28379 4.34173
587 1 4.78941 4.30175 0.474027
588 1 9.02502 7.50918 0.904316
589 1 2.8549 6.3283 3.69751
590 1 1.21236 2.84711 0.766909
591 1 6.83266 4.71181 0.406123
592 1 4.54235 4.03391 8.90585
593 1 7.78542 7.14017 2.30778
594 1 2.52832 2.36071 3.65951
595 1 3.14245 7.1196 0.144524
596 1 4.7991 9.01086 4.02383
597 1 4.27181 0.503048 3.9398
598 1 2.89982 4.25893 3.51253
599 1 1.27428 7.92062 5.32424
600 1 8.52326 3.42657 6.09532
601 1 8.54043 7.33861 6.10209
602 1 7.86533 1.55734 3.90136
603 1 7.53528 1.84351 2.05723
604 1 7.99878 2.8111 9.37768
605 1 9.40588 6.7096 7.42876
606 1 0.577304 7.32566 0.553684
607 1 0.223318 0.945655 1.2982
608 1 2.53238 0.862905 7.27333
609 1 7.96463 2.963 5.43209
610 1 3.25157 0.94978 8.23746
611 1 3.69775 0.120427 6.57554
612 1 4.95709 4.80152 3.7786
613 1 7.83953 6.20258 5.78489
614 1 4.27754 2.583 0.731117
615 1 1.84524 4.77459 2.54265
616 1 3.4729 6.81196 5.47127
617 1 8.84629 1.58882 1.14063
618 1 0.88123 1.06255 3.26328
619 1 6.91569 2.53208 1.12938
620 1 0.401092 9.16599 6.17174
621 1 1.41824 7.80635 3.35943
622 1 3.02385 1.26728 0.559834
623 1 3.02007 9.15339 4.43301
624 1 4.18571 5.48341 2.13507
625 1 1.50546 3.67077 2.88928
626 1 9.41883 4.61761 1.3108
627 1 2.14433 7.26259 8.92726
628 1 6.55647 1.23316 5.11362
629 1 3.2145 5.20703 5.78065
630 1 2.71902 6.70296 4.69761
631 1 2.78268 2.67678 5.50086
632 1 6.52349 0.423065 8.13389
633 1 6.50519 5.17122 2.51605
634 1 2.82072 2.32998 0.376285
635 1 9.11744 6.03074 8.30084
636 1 6.42262 8.68073 1.8697
637 1 0.824644 2.44115 8.46114
638 1 6.81923 7.2389 5.82671
639 1 5.54776 0.758352 2.69126
640 1 9.2345 1.94044 4.81814
641 1 3.31904 6.49663 8.01685
642 1 1.14795 8.24264 6.1978
643 1 2.69088 6.23123 8.50479
644 1 6.55636 3.96984 7.39971
645 1 0.257148 6.56842 5.6174
646 1 3.08047 6.38743 1.39839
647 1 3.84248 3.4388 8.92528
648 1 2.47261 3.79946 1.03477
649 1 0.0500587 3.93569 5.66177
650 1 0.592806 0.516886 0.361995
651 1 1.96582 8.32278 0.0361104
652 1 3.99718 6.58345 6.41848
653 1 4.49303 1.30783 4.16933
654 1 7.76921 0.113855 3.29556
655 1 8.14935 5.50209 9.3929
656 1 8.3708 0.914035 3.42857
657 1 4.37629 8.88657 7.88494
658 1 6.5201 7.48979 4.15121
659 1 4.11755 4.66268 6.05575
660 1 7.53842 8.72686 3.98349
661 1 1.36891 7.78558 0.908898
662 1 7.64009 4.21053 1.848
663 1 2.84148 3.4652 4.54074
664 1 5.59792 5.06454 6.38525
665 1 5.75778 0.801018 5.2086
666 1 8.13668 2.72096 1.88376
667 1 2.8383 9.29176 2.8826
668 1 7.38626 1.39915 6.39067
669 1 1.65824 9.34819 7.14902
670 1 1.7643 6.1629 8.44038
671 1 6.84066 7.60542 6.69595
672 1 0.197341 0.809691 8.08682
673 1 3.75236 8.68711 2.56697
674 1 5.93387 4.69071 0.133073
675 1 0.257105 7.31017 8.95387
676 1 3.86722 1.95235 6.55619
677 1 4.22427 6.89881 7.65339
678 1 4.48464 4.15038 5.45447
679 1 4.23836 7.15958 9.03271
680 1 0.0932991 8.89107 8.074
681 1 5.22422 7.5265 2.86785
682 1 5.83097 6.61583 7.35409
683 1 3.84842 0.0182948 3.16617
684 1 4.70241 1.11643 5.19387
685 1 5.23509 9.18319 7.93128
686 1 0.162414 6.37793 2.48578
687 1 8.28033 8.51699 8.54317
688 1 8.65772 9.28643 8.69399
689 1 2.56875 7.65052 6.78405
690 1 1.4928 6.80366 0.952896
691 1 6.15329 4.65583 8.31786
692 1 6.68593 6.49591 0.157182
693 1 9.24089 5.54191 5.28745
694 1 1.7067 0.200809 4.13347
695 1 5.59577 8.94886 8.75237
696 1 5.28753 4.59575 1.78959
697 1 6.14146 3.36458 1.82227
698 1 4.66758 2.08313 7.39032
699 1 4.94307 5.70235 3.6573
700 1 3.22218 4.29842 4.26952
701 1 2.28968 5.07762 5.62442
702 1 4.71792 0.972441 2.11325
703 1 1.42831 3.78549 1.06589
704 1 8.31359 5.70818 5.09117
705 1 6.99843 5.47483 0.9365
706 1 0.418731 6.64455 8.28308
707 1 1.05529 8.32128 1.68417
708 1 1.2181 6.01524 4.9637
709 1 7.93374 2.38329 4.12648
710 1 0.905745 9.14768 7.85294
711 1 5.53856 6.00602 9.26842
712 1 8.96177 8.75345 1.91413
713 1 8.06133 1.86325 1.37274
714 1 6.4487 0.368029 1.5488
715 1 2.44412 9.04909 1.9327
716 1 4.30916 3.98239 7.89349
717 1 4.00094 6.58127 1.06341
718 1 4.34016 4.26811 1.62818
719 1 7.09716 8.81796 0.0606425
720 1 4.22534 7.74863 8.32576
721 1 1.91077 2.1454 5.08908
722 1 3.26594 6.37744 0.592384
723 1 5.66208 1.7224 2.56461
724 1 1.74766 1.29309 7.74352
725 1 5.37415 7.63439 3.69161
726 1 8.01608 7.81817 4.1468
727 1 5.93414 6.50752 1.55214
728 1 6.00449 0.758583 8.83631
729 1 4.08412 3.58753 6.71546
730 1 8.03558 7.1239 4.92495
731 1 8.85248 1.18061 7.21039
732 1 0.187683 5.59633 1.82041
733 1 8.48106 0.84499 0.734039
734 1 8.23075 3.9004 5.27927
735 1 4.16844 7.17041 2.92141
736 1 8.28898 7.68011 3.21563
737 1 5.44686 8.57073 0.357735
738 1 3.82957 5.70898 1.18328
739 1 3.83049 6.42807 3.33841
740 1 7.89621 7.02836 8.60755
741 1 6.50638 5.83218 1.88773
742 1 4.94065 3.38474 7.12396
743 1 8.87756 0.313128 7.75426
744 1 4.42927 6.54883 5.03692
745 1 8.00433 5.26095 4.19163
746 1 7.38643 3.59052 5.12362
747 1 3.5435 3.56752 8.01612
748 1 5.62146 5.37009 5.48416
749 1 8.71471 9.1274 4.81026
750 1 1.72858 6.80954 4.70274
751 1 4.79361 5.25914 6.16315
752 1 0.828138 1.03301 9.10178
753 1 5.31953 4.97142 0.891135
754 1 6.84923 8.02062 1.38725
755 1 3.17309 4.35001 5.24196
756 1 6.69946 9.27656 3.37778
757 1 6.66994 7.90301 7.81199
758 1 6.92575 3.60242 6.7823
759 1 8.50323 8.25337 5.76777
760 1 4.63512 9.36934 1.5868
761 1 6.33944 5.03145 1.48051
762 1 4.61093 6.96383 0.497465
763 1 6.40749 7.95719 5.09356
764 1 2.7576 9.37238 1.09675
765 1 5.64461 0.0506548 1.14579
766 1 7.97301 8.28892 2.43306
767 1 1.18971 5.74245 3.23953
768 1 4.25744 4.31776 7.0967
769 1 4.64953 3.92313 3.40583
770 1 6.5251 0.138652 4.2609
771 1 5.92076 3.49432 8.13639
772 1 3.28621 5.57621 4.34603
773 1 0.080262 4.02085 2.14204
774 1 1.12097 2.48185 4.75224
775 1 1.05206 5.02549 7.9616
776 1 3.68582 6.54337 4.35823
777 1 7.7979 4.84805 0.41841
778 1 6.08441 7.24009 7.97134
779 1 7.36547 7.07508 0.0532464
780 1 3.12797 5.56205 7.85368
781 1 7.39466 6.1833 4.82421
782 1 6.7572 4.25517 1.64831
783 1 3.81011 2.90912 2.99683
784 1 0.0557384 1.1685 6.5538
785 1 4.6658 2.07263 3.4592
786 1 5.22143 2.77485 5.80981
787 1 1.54468 3.4812 5.14073
788 1 4.70816 1.71504 2.68526
789 1 0.130975 7.38096 6.13223
790 1 5.75499 1.83855 7.94225
791 1 0.320106 3.93718 7.35732
792 1 7.55934 7.83888 9.03055
793 1 3.83564 4.99964 7.65129
794 1 6.78037 2.87146 4.98929
795 1 3.83546 1.02257 2.49142
796 1 6.46462 6.62969 5.09221
797 1 7.38651 0.194056 1.21207
798 1 0.987801 6.85503 3.94061
799 1 8.05947 3.24287 4.45781
800 1 1.94971 0.0315328 0.7103
801 2 1.83391 8.65578 4.27448
802 2 4.99319 1.50717 8.7114
803 2 5.88932 4.21274 0.876811
804 2 1.09984 6.4772 7.57517
805 2 6.1622 7.3954 1.63577
806 2 6.50728 3.9794 9.08768
807 2 7.33295 1.29952 5.45179
808 2 9.09898 3.19574 2.1986
809 2 4.81017 5.46506 1.50995
810 2 0.385622 2.07526 1.4321
811 2 9.12947 5.43017 4.27013
812 2 3.67415 3.12011 0.354005
813 2 1.18479 4.59198 3.97009
814 2 0.491708 3.96122 3.6277
815 2 4.61731 4.38676 2.61457
816 2 0.32735 8.15304 6.84492
817 2 0.432518 4.13124 4.57081
818 2 6.26548 5.67482 3.32158
819 2 0.574533 0.104808 8.85308
820 2 7.6139 8.88908 5.87594
821 2 7.09444 7.8917 0.548766
822 2 2.96032 2.67715 2.5938
823 2 3.38197 3.80263 7.12869
824 2 0.292227 9.04791 0.235819
825 2 0.922964 4.32778 2.57166
826 2 8.69068 8.23753 4.85114
827 2 3.53597 2.99132 6.0168
828 2 2.7123 4.37296 6.03369
829 2 1.21913 9.35852 6.34759
830 2 3.82473 1.23284 5.0334
831 2 1.08623 1.37758 1.84892
832 2 3.38502 2.45736 3.83688
833 2 3.75459 8.38155 6.53902
834 2 9.16164 1.23452 5.39052
835 2 1.87205 7.22867 2.5935
836 2 6.76472 2.62771 2.35745
837 2 4.68389 2.61485 6.62102
838 2 3.1369 6.53316 7.15653
839 2 2.45097 0.449565 2.34008
840 2 0.551782 3.90801 1.12471
841 2 3.44018 2.87639 7.11517
842 2 4.20433 1.22896 8.62028
843 2 3.95373 7.46903 6.91127
844 2 3.81488 4.81113 1.13327
845 2 0.20786 3.36947 8.56048
846 2 4.92767 8.60392 1.12523
847 2 2.09534 6.79033 3.90106
848 2 4.33937 3.20675 3.73246
849 2 4.71048 5.65341 4.85554
850 2 0.196576 8.78592 3.28679
851 2 6.47721 2.35095 8.31664
852 2 7.38444 7.19867 3.98583
853 2 0.874716 0.520416 5.51098
854 2 1.60318 7.90056 6.91617
855 2 3.23224 6.94562 2.97957
856 2 8.92425 6.857 8.30167
857 2 5.35286 3.76004 1.38796
858 2 8.8295 2.1651 5.79004
859 2 4.54951 7.99277 2.44906
860 2 8.45229 3.0224 3.64514
861 2 3.20507 7.95167 1.83417
862 2 8.75372 5.34991 7.82959
863 2 5.92641 8.2406 1.08912
864 2 2.05616 5.92379 3.58844
865 2 8.28055 3.54829 2.20497
866 2 4.67887 2.92754 2.86421
867 2 2.62014 6.81154 6.25653
868 2 2.66834 8.77831 0.403049
869 2 7.36399 6.05757 8.95303
870 2 7.06341 7.24957 4.98337
871 2 1.47825 7.31073 7.70772
872 2 1.57836 8.09183 2.52071
873 2 3.82374 6.0158 7.41829
874 2 1.7013 8.67976 5.59507
875 2 9.15718 2.21383 6.82502
876 2 1.10269 0.746019 2.45035
877 2 2.33693 8.57437 6.88142
878 2 3.98217 1.47945 7.60228
879 2 2.12842 1.65912 4.295
880 2 9.06905 6.41488 0.367464
881 2 0.812636 2.93734 6.43892
882 2 2.95881 0.135167 7.8338
883 2 2.25673 2.70666 8.51791
884 2 2.88163 4.72764 0.0953827
885 2 2.14109 1.01959 0.507453
886 2 8.40248 7.51957 1.63804
887 2 1.10172 4.92592 6.35536
888 2 3.99417 0.446673 8.15763
889 2 0.505792 1.51493 2.54801
890 2 3.77702 1.71712 1.89697
891 2 1.91864 3.85443 0.220141
892 2 5.51313 0.104197 3.70757
893 2 7.50526 7.5175 7.98878
894 2 6.68338 7.10677 2.32399
895 2 8.49593 1.99625 2.11886
896 2 8.82306 0.608277 4.73402
897 2 1.20005 0.64033 7.42807
898 2 0.65627 8.22044 8.76156
899 2 7.79939 3.26978 6.70274
900 2 4.84697 8.88491 2.32992
901 2 3.40111 8.13308 8.25207
902 2 1.2133 2.2439 1.79724
903 2 3.43072 6.12856 2.5503
904 2 5.53243 6.9129 6.10197
905 2 8.95894 8.23843 3.06891
906 2 2.09902 2.17125 2.71163
907 2 5.67854 5.47915 1.90836
908 2 0.508402 1.63112 0.65955
909 2 0.0293123 2.82502 6.05434
910 2 0.685655 5.7114 5.67571
911 2 1.80119 4.23938 8.15024
912 2 2.27261 5.90077 4.44555
913 2 0.526074 4.92766 7.17384
914 2 2.11883 5.65434 0.115955
915 2 6.9082 7.02487 7.39033
916 2 1.78444 1.36371 2.44278
917 2 4.9434 8.75859 7.09565
918 2 2.26144 5.98312 7.55184
919 2 8.70641 6.86588 2.62098
920 2 8.33826 1.67791 7.97946
921 2 1.35961 7.00985 8.53353
922 2 8.03991 4.92038 8.54499
923 2 0.652292 3.3385 0.263363
924 2 2.38573 3.62079 5.63197
925 2 3.36209 8.15787 0.852362
926 2 3.57592 3.12327 1.72806
927 2 3.85785 4.2125 0.320209
928 2 8.70909 4.36055 1.93016
929 2 5.50141 4.21202 8.84302
930 2 8.8201 8.57747 3.92033
931 2 0.724607 8.00708 2.85104
932 2 6.55938 4.71754 3.35165
933 2 6.32118 8.95835 5.22147
934 2 2.20792 2.46207 6.1964
935 2 1.01365 8.20441 7.88902
936 2 1.70766 7.41245 6.00482
937 2 4.21704 7.32021 5.93485
938 2 9.09888 5.54308 6.12835
939 2 7.18536 5.13645 9.03761
940 2 7.91455 0.997889 1.88494
941 2 1.91926 3.07745 1.29167
942 2 6.84426 0.727746 6.49417
943 2 8.01614 3.88328 8.51073
944 2 7.0707 4.51645 2.58831
945 2 6.24679 0.771239 3.41789
946 2 6.35844 6.82643 6.47256
947 2 5.83932 1.94901 3.62655
948 2 9.04559 2.99081 5.21147
949 2 5.45242 1.82845 5.14606
950 2 8.85609 8.48835 0.57512
951 2 5.32004 1.10085 3.55864
952 2 5.90962 7.67782 8.69196
953 2 1.71891 5.85338 1.11915
954 2 5.66934 0.918128 0.699261
955 2 1.56211 5.6622 6.15255
956 2 7.9308 5.18794 2.34585
957 2 1.30236 6.1739 2.28594
958 2 4.63395 0.64761 0.87645
959 2 5.69266 8.62246 3.76837
960 2 3.29943 3.66719 2.66446
961 2 8.04884 4.36545 2.6639
962 2 7.33156 0.476609 3.93767
963 2 9.39678 5.04577 8.41459
964 2 7.67522 6.15159 0.427181
965 2 3.29118 8.00618 5.73317
966 2 0.848324 9.20663 1.12596
967 2 8.51983 0.749874 2.5693
968 2 8.84888 5.06769 2.56251
969 2 8.19224 3.53496 0.444682
970 2 1.44125 6.56764 6.6333
971 2 6.44427 0.272589 2.56236
972 2 5.98164 4.61861 5.18094
973 2 2.04515 7.52874 0.433142
974 2 7.66859 3.48621 7.79177
975 2 0.163512 7.73573 8.17045
976 2 8.36119 2.03456 8.8136
977 2 6.77976 3.91842 3.59825
978 2 6.10597 3.03372 3.85563
979 2 4.66547 8.5522 9.06766
980 2 0.235127 3.08706 7.6756
981 2 0.28835 4.7968 3.08587
982 2 8.50671 4.37271 0.0801624
983 2 1.23807 5.80941 4.11395
984 2 5.4867 2.66375 2.50563
985 2 6.69943 3.55833 2.67178
986 2 5.73237 1.49579 9.2642
987 2 2.58143 8.29912 2.50597
988 2 2.79893 5.60936 0.925489
989 2 5.32229 2.67173 3.49952
990 2 6.26926 5.7903 7.68405
991 2 5.16059 3.75638 2.21771
992 2 0.233262 0.182996 4.77824
993 2 2.59338 7.28015 5.52317
994 2 4.20817 1.48208 0.888755
995 2 3.83202 4.84037 5.02184
996 2 3.03387 2.8265 9.05469
997 2 0.950238 3.84531 5.80353
998 2 6.54152 4.74426 6.53312
999 2 8.65477 4.51055 5.91348