#bin. KALJ data file T=0.5

1000 atoms
2 atom types

0 9.4 xlo xhi
0 9.4 ylo yhi
0 9.4 zlo zhi

Masses

1 1.0
2 1.0

Atoms

1 1 0.524264 0.256546 6.69059
2 1 2.82011 1.76767 4.85686
3 1 2.28333 8.43512 0.372588
4 1 4.16153 4.77053 8.92309
5 1 3.89934 2.49212 6.12043
6 1 1.237 4.94964 0.556931
7 1 0.762423 8.80261 0.295373
8 1 5.71362 7.61153 4.39259
9 1 2.67993 2.97435 4.5793
10 1 0.0747696 5.55189 5.85227
11 1 9.30095 1.7053 2.71002
12 1 4.03916 8.2145 6.98595
13 1 0.694436 6.95363 3.67681
14 1 7.0206 5.43911 2.83383
15 1 7.097 3.64553 6.7976
16 1 6.82381 2.0707 5.84981
17 1 5.29483 4.68259 0.777627
18 1 8.15963 5.82389 4.46828
19 1 7.88394 2.39852 5.86713
20 1 4.1222 2.79316 4.65514
21 1 3.45275 5.13878 1.76825
22 1 6.76389 1.06996 5.55222
23 1 0.633138 2.28972 2.02649
24 1 1.88921 2.29921 5.61254
25 1 0.125011 3.55837 0.650977
26 1 7.86463 3.64741 1.37505
27 1 1.8085 4.93948 6.21569
28 1 5.57931 9.08515 4.65544
29 1 2.79982 9.43639 7.12993
30 1 0.318473 8.49937 3.17868
31 1 0.531525 0.195165 1.66041
32 1 6.09084 3.97377 6.34089
33 1 7.95146 1.46094 4.42459
34 1 9.22961 7.41268 5.40203
35 1 8.11239 5.30872 5.21631
36 1 6.09716 8.27777 5.01649
37 1 6.00895 3.41156 1.43567
38 1 1.44941 1.03702 9.06361
39 1 0.607607 5.39045 8.74272
40 1 9.18031 5.3844 2.5742
41 1 6.73536 3.52602 2.39186
42 1 5.08258 0.458123 0.723093
43 1 8.46812 5.02134 6.27924
44 1 1.21519 8.57564 3.76152
45 1 7.93562 5.59801 1.06392
46 1 4.35926 7.39385 1.83323
47 1 1.6477 1.55491 3.51815
48 1 3.08862 2.20836 1.99375
49 1 1.21303 0.50449 2.40628
50 1 6.12256 3.62224 3.04234
51 1 5.37904 1.98547 0.749749
52 1 1.11021 7.48552 7.36525
53 1 2.36711 0.623042 7.56483
54 1 9.22551 9.19353 7.17246
55 1 3.41714 4.48879 3.4416
56 1 1.38529 8.77007 6.49388
57 1 4.69973 3.09023 7.2374
58 1 6.39577 8.73666 8.55717
59 1 1.96073 3.06705 8.02498
60 1 3.84151 4.42511 0.305712
61 1 1.42413 0.125574 5.95716
62 1 8.90566 1.2142 5.99804
63 1 5.2547 8.37732 2.39394
64 1 5.44186 0.203429 3.88404
65 1 4.06532 0.991496 8.0995
66 1 9.10582 4.05978 4.98417
67 1 3.02414 0.433201 0.275777
68 1 6.97633 8.30721 9.20974
69 1 2.57997 8.88591 1.23162
70 1 2.58347 2.11004 2.75698
71 1 2.14087 1.28771 1.60295
72 1 6.79442 3.6121 7.8102
73 1 6.69183 7.837 4.46947
74 1 4.37194 7.56826 0.0749052
75 1 9.26484 3.11103 7.09895
76 1 0.379341 6.05313 2.24625
77 1 3.17895 6.30322 9.41255
78 1 1.47265 9.14006 0.828213
79 1 0.645126 3.19327 2.90123
80 1 5.39161 8.27533 6.30807
81 1 4.62703 5.73127 9.17067
82 1 7.41944 7.53567 1.25893
83 1 3.5819 7.23608 0.296471
84 1 5.6928 8.96558 3.16861
85 1 1.69487 7.15577 1.63085
86 1 2.99322 1.63897 1.32798
87 1 2.26811 5.42869 4.59463
88 1 1.77907 7.68044 5.0132
89 1 7.01936 2.5265 8.22104
90 1 6.74977 6.14046 3.55714
91 1 0.834421 4.42348 8.99986
92 1 6.75123 1.71558 3.42012
93 1 0.631285 0.196905 0.769307
94 1 7.7622 5.17783 7.67771
95 1 3.47126 3.76405 2.96885
96 1 5.76328 3.80928 2.20231
97 1 0.37558 1.23054 6.51249
98 1 0.502033 8.14303 7.85069
99 1 2.46103 2.7577 2.03016
100 1 6.92694 3.41156 1.37965
101 1 0.71647 5.86425 6.57314
102 1 8.02648 8.08678 8.20819
103 1 1.25568 3.02692 1.95801
104 1 0.175938 6.92528 1.74175
105 1 5.90375 5.53854 0.758622
106 1 4.5657 5.04238 8.14289
107 1 9.00452 5.80881 4.88476
108 1 4.48931 0.37618 1.52594
109 1 7.14889 4.22873 0.895028
110 1 2.42227 5.41262 5.38967
111 1 6.26616 6.82247 3.23547
112 1 2.95354 7.89289 0.0588852
113 1 0.645234 2.98505 7.54992
114 1 5.2483 7.49908 2.35562
115 1 0.376473 4.9064 6.90009
116 1 2.24529 1.978 4.26592
117 1 1.79038 5.94118 9.31645
118 1 6.80288 7.11264 9.40755
119 1 7.76037 7.6866 9.36521
120 1 4.55054 8.87683 6.07341
121 1 4.65188 6.35829 8.34042
122 1 9.32281 2.50799 7.98142
123 1 8.63066 8.37746 9.00665
124 1 9.25832 1.16198 4.44966
125 1 5.32772 5.3061 3.9375
126 1 7.55593 2.95428 3.5228
127 1 2.39615 0.863171 4.99266
128 1 8.16896 0.963857 6.28852
129 1 7.1994 4.36941 7.50306
130 1 4.55524 4.01194 5.85746
131 1 7.05743 4.70644 6.69313
132 1 0.147929 9.21315 5.1277
133 1 0.72242 1.20361 4.03519
134 1 1.59121 4.72707 8.65384
135 1 5.16966 3.77807 7.04817
136 1 2.64173 2.00843 7.15285
137 1 6.34465 4.28133 1.34141
138 1 5.18237 5.51312 8.58758
139 1 7.67849 3.52953 5.26831
140 1 0.643562 1.6046 9.06974
141 1 8.599 7.01511 3.04984
142 1 8.26556 8.19698 0.599994
143 1 7.18901 6.85221 8.61428
144 1 7.0392 7.21346 2.74901
145 1 2.55488 5.24039 9.08388
146 1 2.44935 2.11315 8.05764
147 1 5.28859 8.6457 5.45267
148 1 2.99405 4.72989 4.60682
149 1 3.77054 5.43214 3.4243
150 1 7.71799 7.74597 3.06628
151 1 0.502442 3.58959 4.5896
152 1 3.89724 8.33221 4.80273
153 1 5.54103 0.535616 7.04695
154 1 5.22161 4.41608 3.10458
155 1 4.26517 5.21203 6.25013
156 1 4.58882 1.92383 1.50871
157 1 5.62409 6.78566 7.79453
158 1 4.5408 8.9199 7.10317
159 1 3.54992 8.5772 1.33338
160 1 5.39137 5.04355 7.5993
161 1 3.40903 2.38263 8.34483
162 1 2.20255 8.38548 4.5766
163 1 1.47006 2.70504 8.90284
164 1 2.54675 7.125 1.27003
165 1 6.38693 2.68652 1.8989
166 1 0.187765 1.86878 5.72386
167 1 4.889 8.80747 0.839543
168 1 5.82154 1.85455 2.62568
169 1 4.18681 4.17262 4.01343
170 1 0.242748 2.58235 0.560139
171 1 1.62996 9.17473 7.85678
172 1 2.78771 8.35255 2.3619
173 1 8.51206 1.8072 6.54589
174 1 6.90267 7.57967 5.48841
175 1 3.85687 6.78056 8.80791
176 1 5.90305 7.57971 1.39077
177 1 1.19249 0.947218 6.33972
178 1 4.71853 0.35269 4.42511
179 1 5.13579 5.73571 6.43586
180 1 0.189593 3.07349 9.1207
181 1 6.01259 5.82562 6.9424
182 1 3.5925 9.08028 7.33284
183 1 2.02609 4.72434 7.12377
184 1 4.52744 5.122 7.10024
185 1 2.03475 8.33736 2.89816
186 1 0.697135 8.21971 1.98398
187 1 3.22192 2.86661 9.14424
188 1 8.30957 4.43516 0.594142
189 1 6.09158 7.12522 5.34849
190 1 5.6896 7.93078 3.09979
191 1 3.20962 5.6543 0.937124
192 1 6.28882 8.28354 7.80467
193 1 5.96938 1.03035 3.12237
194 1 5.73065 5.52304 9.23638
195 1 5.65268 2.493 0.0639886
196 1 0.568154 9.25308 7.72637
197 1 8.69461 2.88499 8.61843
198 1 0.13836 4.8246 7.99399
199 1 0.546946 8.98255 5.87853
200 1 0.659445 6.28561 5.69986
201 1 5.72883 6.95961 8.74714
202 1 4.85337 0.324624 5.63297
203 1 2.37402 4.31903 3.00866
204 1 5.74952 0.598107 5.23597
205 1 6.68456 1.21388 4.11008
206 1 4.04467 6.25827 0.432886
207 1 2.05033 5.70032 3.60335
208 1 7.33053 1.94936 8.84503
209 1 3.62198 4.15905 5.64978
210 1 1.02028 4.33108 4.59749
211 1 6.48941 8.34408 3.24953
212 1 9.31907 0.640961 2.60351
213 1 6.90792 4.63653 3.60147
214 1 5.62564 4.46759 5.67145
215 1 7.48222 6.33651 1.31761
216 1 1.06171 1.52159 6.98361
217 1 2.78083 7.09406 7.48675
218 1 2.10744 9.30394 0.263659
219 1 7.12865 0.300154 5.4232
220 1 4.2445 4.45468 1.61744
221 1 7.44057 2.15008 4.03796
222 1 1.51466 3.50224 7.1286
223 1 4.24509 7.52773 5.02925
224 1 0.244796 5.45438 3.50956
225 1 5.23713 7.55511 5.35643
226 1 4.86818 5.35911 1.19143
227 1 0.956006 3.0658 0.15202
228 1 3.61527 4.59429 6.43109
229 1 4.5081 1.09637 2.0345
230 1 8.33724 9.27342 0.93262
231 1 7.29225 1.70111 0.411462
232 1 1.65197 5.91579 5.00763
233 1 8.29691 2.9016 2.96143
234 1 2.49258 6.77576 6.1832
235 1 4.31017 0.977406 5.04044
236 1 -0.0147823 3.58867 8.25057
237 1 4.10202 8.42805 3.50845
238 1 0.955478 7.36528 2.22475
239 1 8.5402 6.68547 1.35719
240 1 9.14602 4.64591 5.73551
241 1 6.92103 9.19309 6.21471
242 1 3.85182 3.16296 7.45235
243 1 6.58897 8.97862 1.3567
244 1 2.45601 6.72754 0.361614
245 1 2.9505 9.37418 3.78556
246 1 1.55678 5.81097 6.13398
247 1 7.75908 2.78132 8.78523
248 1 7.14671 5.4808 5.17455
249 1 9.10224 4.49022 8.68966
250 1 7.87691 8.26984 7.37233
251 1 5.69528 7.24725 6.28264
252 1 5.25295 3.33081 4.51374
253 1 5.79593 8.38582 9.07122
254 1 6.42176 2.26568 8.88092
255 1 2.97683 9.14477 8.92682
256 1 6.46417 5.45412 4.15895
257 1 2.87957 7.02271 8.93895
258 1 5.95271 3.87482 4.7747
259 1 7.359 4.10326 5.94449
260 1 3.2514 0.554745 4.74694
261 1 0.448762 7.91183 8.71715
262 1 5.21503 6.6599 5.46173
263 1 1.37023 9.04814 5.12694
264 1 2.1761 8.99961 2.16253
265 1 1.43675 5.44641 7.03089
266 1 3.27141 3.88585 9.30555
267 1 8.53586 1.42841 2.28203
268 1 1.0875 4.41331 7.33216
269 1 7.48947 1.65343 2.02824
270 1 0.36429 9.10467 2.42425
271 1 8.67365 7.32614 0.457776
272 1 0.035671 5.96024 0.529192
273 1 6.94 2.14242 1.49953
274 1 4.87778 8.70406 3.19606
275 1 8.90118 7.10541 7.51831
276 1 4.47166 2.19974 6.80462
277 1 2.75492 6.34624 8.04333
278 1 4.51355 1.53315 9.29342
279 1 0.216047 2.66402 1.42231
280 1 6.22945 8.4329 2.35813
281 1 -0.00968121 6.67403 4.15087
282 1 7.7498 7.32651 7.46561
283 1 4.78532 0.109249 2.61867
284 1 6.82215 6.16943 7.86407
285 1 9.18602 6.06992 1.55655
286 1 8.13876 5.89113 1.83437
287 1 5.15079 1.18808 1.25349
288 1 8.52645 6.74649 4.42601
289 1 7.15486 0.588356 3.20042
290 1 9.06379 5.59128 6.69243
291 1 0.0298378 0.110158 9.21929
292 1 2.13544 3.78434 3.8666
293 1 6.57528 6.60302 4.65103
294 1 5.38812 0.855535 6.09913
295 1 5.66375 0.929409 4.39243
296 1 7.431 2.58823 2.08071
297 1 8.1744 1.78901 8.64061
298 1 8.7707 9.43754 4.35515
299 1 7.65693 6.98232 0.634805
300 1 8.57371 5.02939 4.41903
301 1 8.42104 4.4209 7.93012
302 1 4.87183 7.9909 8.85555
303 1 4.64232 1.17515 3.91182
304 1 1.92013 8.17283 6.90679
305 1 4.00176 1.0443 6.80591
306 1 3.21403 1.03197 7.19628
307 1 6.45292 8.30674 6.78156
308 1 5.02438 7.81361 7.57959
309 1 4.83284 1.99012 7.82254
310 1 2.24257 7.85346 3.88525
311 1 7.41522 0.248051 9.09724
312 1 6.40141 7.56498 3.71136
313 1 4.79176 6.24188 4.62538
314 1 5.90854 4.69381 4.04806
315 1 5.2551 3.17121 3.44576
316 1 4.75164 6.82919 7.29371
317 1 7.51969 5.47269 3.60426
318 1 7.93652 0.123596 4.77373
319 1 4.01823 5.7978 2.35378
320 1 5.97669 1.98003 4.80424
321 1 1.52976 3.23466 3.06651
322 1 6.25678 1.91164 0.475644
323 1 2.11858 2.60082 3.58141
324 1 7.74422 1.08572 9.05886
325 1 3.35513 1.96041 3.85441
326 1 7.73673 8.86793 2.98948
327 1 6.02285 2.61005 1.00374
328 1 1.02297 7.86989 3.08993
329 1 5.18673 5.17712 5.72693
330 1 0.210049 4.21601 2.71764
331 1 2.96312 6.90938 2.86859
332 1 1.4626 7.46144 4.02575
333 1 4.96974 6.62983 6.42459
334 1 9.37048 6.30259 3.26505
335 1 6.31729 8.81503 4.09005
336 1 8.09275 6.82431 9.16467
337 1 7.789 0.663825 0.497603
338 1 7.88909 3.54966 6.3884
339 1 0.509377 6.40643 8.35011
340 1 7.29886 6.00304 4.37475
341 1 7.25983 8.079 0.634129
342 1 5.97306 4.51142 2.71233
343 1 1.52266 8.67932 9.12551
344 1 8.6801 6.57172 5.32892
345 1 0.973068 8.78773 8.41115
346 1 3.15342 8.94091 0.507627
347 1 3.48167 6.79025 2.05034
348 1 0.513087 0.867417 5.53187
349 1 7.38967 0.326343 2.35095
350 1 2.93669 6.15136 3.22445
351 1 0.646109 7.08073 9.12668
352 1 7.97897 1.74286 7.27846
353 1 6.59773 0.397659 1.84232
354 1 3.45938 6.56787 1.171
355 1 3.20782 1.37012 8.02584
356 1 7.68335 5.14399 0.314216
357 1 5.41666 3.31688 7.78114
358 1 7.56129 0.850478 7.39057
359 1 0.781566 4.1789 0.52979
360 1 7.45927 4.56066 5.13353
361 1 8.69271 7.96635 5.95055
362 1 1.24872 0.222501 0.0993512
363 1 4.721 5.90345 5.64916
364 1 1.45683 4.17313 2.86193
365 1 7.58361 6.02845 8.3549
366 1 6.96602 5.49345 9.29387
367 1 3.05215 2.74678 3.64706
368 1 0.228874 5.18826 0.0527504
369 1 7.58133 0.065869 8.12313
370 1 8.41522 5.88177 6.02253
371 1 8.57642 8.19724 3.19457
372 1 4.18533 9.20057 5.13822
373 1 7.67743 6.00663 9.2901
374 1 3.5152 3.5245 4.57527
375 1 3.60437 0.919199 1.65291
376 1 7.52668 6.25573 2.71606
377 1 7.63134 2.15128 3.04814
378 1 5.99269 4.81827 6.95868
379 1 6.06014 3.40206 3.94201
380 1 3.4573 3.21863 5.40362
381 1 3.17495 6.3276 7.13631
382 1 1.76752 3.08403 0.295184
383 1 6.12615 5.55304 7.73901
384 1 8.70278 3.94477 1.98197
385 1 6.23161 4.78874 0.309465
386 1 0.354658 0.370728 8.38897
387 1 4.27536 0.816829 2.94872
388 1 2.95388 6.9352 3.96883
389 1 5.52001 5.20112 2.5317
390 1 7.40412 4.03336 4.05402
391 1 1.42598 7.92316 8.56357
392 1 1.07129 4.98354 8.00673
393 1 3.1505 0.571281 2.81642
394 1 7.54027 1.53539 6.26969
395 1 4.59706 8.76562 4.18852
396 1 6.6286 2.81368 7.38866
397 1 9.3369 4.27864 7.36273
398 1 0.955768 1.94758 7.71268
399 1 4.51619 1.43334 6.02923
400 1 6.64929 7.16715 7.94649
401 1 8.1262 7.47195 5.46579
402 1 8.50476 4.31324 2.78999
403 1 7.07942 8.08992 2.25204
404 1 5.99467 3.84389 7.22103
405 1 1.09704 2.45758 1.1184
406 1 2.26091 0.0206265 6.37194
407 1 6.52942 5.12859 2.03884
408 1 1.53743 4.91609 5.2832
409 1 6.1833 5.63272 5.50703
410 1 4.86256 3.20522 8.73802
411 1 2.85335 1.38754 3.32573
412 1 3.44404 5.33058 0.111236
413 1 1.08146 8.36778 1.12464
414 1 8.03132 0.0330108 7.16334
415 1 6.14478 8.13161 0.464526
416 1 2.39119 2.65591 8.76155
417 1 2.66929 1.69733 5.76326
418 1 7.67719 3.04915 4.38922
419 1 1.87393 6.79956 7.538
420 1 8.49231 6.24259 0.433331
421 1 5.84044 9.11798 0.431098
422 1 8.7341 2.43883 5.59595
423 1 3.88092 4.424 4.89578
424 1 4.4266 0.351906 6.51194
425 1 3.03727 0.675477 6.23609
426 1 1.86039 8.16684 7.84424
427 1 5.75195 7.28594 0.320294
428 1 2.37058 1.1737 8.35826
429 1 2.39137 4.84097 3.7887
430 1 2.84544 3.02883 7.83859
431 1 0.552128 2.40587 8.53514
432 1 8.71438 8.28087 4.04131
433 1 2.43262 2.15682 0.262278
434 1 1.85879 2.40775 7.36774
435 1 4.62551 2.45987 0.354613
436 1 8.27374 2.29887 4.80081
437 1 6.81647 0.702941 0.565468
438 1 7.53929 6.19045 7.43383
439 1 5.14576 2.70504 1.43239
440 1 1.34859 1.68881 1.48062
441 1 6.14208 4.95115 8.49492
442 1 4.12254 3.75682 9.10388
443 1 6.26576 1.23082 1.12812
444 1 7.61549 6.95337 2.10643
445 1 3.64637 7.80691 6.18172
446 1 8.64987 1.37767 0.0915345
447 1 7.63138 7.69753 6.4131
448 1 6.83846 5.02232 1.15641
449 1 4.74792 7.67355 6.67191
450 1 7.40781 5.15907 5.96304
451 1 0.421923 5.16911 1.08043
452 1 7.97123 4.53001 6.76375
453 1 6.44766 6.15656 9.2918
454 1 7.56614 6.7599 4.85707
455 1 5.04596 4.08058 1.51679
456 1 8.53414 1.95862 3.03103
457 1 3.72386 7.24988 3.13828
458 1 2.77944 7.79618 3.12615
459 1 5.69236 1.683 9.15418
460 1 1.46144 0.730611 1.29047
461 1 7.19132 8.69398 7.90529
462 1 5.71794 5.12741 1.69533
463 1 6.26881 6.65717 0.889945
464 1 2.99928 5.45856 3.96342
465 1 3.36284 5.1295 5.50116
466 1 9.03861 0.917745 8.73985
467 1 6.69925 6.40513 5.72006
468 1 3.73816 1.57387 8.75046
469 1 4.79537 6.80419 9.269
470 1 5.61562 6.76202 1.99047
471 1 3.16337 4.7889 1.02751
472 1 3.70841 4.0546 7.5744
473 1 8.66815 5.02272 1.86172
474 1 3.82433 7.94842 8.93418
475 1 0.157621 8.23788 6.19021
476 1 4.50614 7.10367 3.62426
477 1 4.86318 6.09732 0.54756
478 1 1.94739 9.35328 4.4709
479 1 0.960237 5.48812 1.7566
480 1 1.76414 4.95249 3.10036
481 1 5.09017 0.722988 9.18999
482 1 8.55082 3.23809 7.76808
483 1 2.19715 0.265456 8.64725
484 1 4.47607 7.15775 5.86817
485 1 8.63002 3.6513 6.76377
486 1 7.20806 7.17291 4.0323
487 1 1.65079 9.28903 3.09308
488 1 1.25707 5.2023 4.36707
489 1 3.68691 1.2265 5.63942
490 1 8.50625 8.36474 1.51008
491 1 5.49606 9.13949 6.36318
492 1 1.56386 1.18304 4.44863
493 1 7.47878 8.40382 1.38836
494 1 2.27534 6.56246 2.25167
495 1 3.8436 5.66722 8.57589
496 1 3.57815 6.85506 7.89812
497 1 5.43257 6.30596 2.82725
498 1 8.28874 2.73587 6.91179
499 1 3.07498 3.42978 1.77523
500 1 2.16324 7.27574 8.2309
501 1 6.23325 2.28217 6.69567
502 1 3.17101 8.31569 3.93269
503 1 0.240968 1.08219 0.31645
504 1 7.70992 3.42091 -0.0159328
505 1 1.30826 6.98298 8.50547
506 1 3.07035 5.45399 8.00811
507 1 7.49885 9.40065 1.20443
508 1 8.96667 3.55824 2.90278
509 1 1.89001 1.60515 7.63437
510 1 7.45016 4.57489 8.41707
511 1 3.34925 4.49636 8.34495
512 1 0.605381 6.73713 4.90138
513 1 3.09388 3.61512 6.94483
514 1 2.33379 8.10012 1.53762
515 1 2.30664 3.86108 2.24053
516 1 6.40473 2.00054 7.61023
517 1 5.59039 8.57459 7.34718
518 1 7.79412 8.96989 0.239555
519 1 6.62588 8.01065 1.25286
520 1 0.333279 8.72775 4.34208
521 1 5.95426 1.52311 5.53927
522 1 6.89669 5.4486 8.36249
523 1 3.54825 5.68502 4.72547
524 1 9.30735 1.82171 1.78382
525 1 6.92084 4.51765 2.62432
526 1 3.76765 4.94352 4.09798
527 1 2.11585 0.0776899 5.36742
528 1 9.03053 9.23522 3.31226
529 1 0.86336 3.22024 8.39559
530 1 8.00099 0.81496 5.39343
531 1 0.24415 1.43338 8.14483
532 1 8.8434 8.85232 5.91606
533 1 2.25065 0.888965 5.9098
534 1 6.78558 5.69184 6.33154
535 1 8.93301 7.77217 8.09915
536 1 0.192972 7.03793 2.62077
537 1 5.69311 4.15922 8.04711
538 1 0.852246 3.34462 1.12402
539 1 6.81764 4.39655 9.33713
540 1 0.894099 5.54383 5.25013
541 1 4.41415 3.00059 5.70621
542 1 2.29497 8.70749 3.78191
543 1 7.98593 0.330796 3.05243
544 1 6.48396 0.236223 9.08542
545 1 3.8657 3.00963 0.557266
546 1 2.10249 7.0098 4.31709
547 1 8.81181 8.88364 2.46675
548 1 2.84794 4.92846 6.85401
549 1 0.254232 4.81231 1.88542
550 1 8.67106 5.27993 0.153453
551 1 2.7629 2.62581 6.04962
552 1 6.67419 0.654075 7.13134
553 1 1.21542 2.07341 0.217
554 1 7.44982 3.95823 3.15549
555 1 6.89763 5.85571 0.74834
556 1 5.26397 0.723746 2.19434
557 1 4.76984 3.76385 0.365346
558 1 9.08675 1.88212 8.72337
559 1 8.5621 0.97592 3.06609
560 1 7.72596 8.53234 8.88672
561 1 4.34544 3.62047 5.08617
562 1 3.07061 6.24546 5.45908
563 1 4.42173 5.53076 4.082
564 1 8.30082 4.03988 4.51047
565 1 2.14154 6.57086 8.8909
566 1 9.33977 8.06831 2.548
567 1 0.91489 6.15702 9.07483
568 1 0.0329264 3.9526 9.22649
569 1 8.51103 3.04788 1.85466
570 1 8.19644 5.64018 2.84603
571 1 2.31933 3.73318 8.82887
572 1 0.634884 0.44551 4.54391
573 1 7.92733 8.32577 2.27019
574 1 5.6725 6.61104 6.93781
575 1 3.41199 9.31622 6.42967
576 1 1.98337 5.35807 8.24829
577 1 2.11519 3.94739 6.57387
578 1 3.00618 7.99518 5.47042
579 1 4.33068 3.62552 8.11695
580 1 3.01823 9.03816 4.69935
581 1 1.07966 7.38469 1.03189
582 1 1.54972 2.90337 6.3888
583 1 4.80356 7.23813 4.49563
584 1 6.38907 3.10258 6.54692
585 1 6.74637 3.52037 4.54902
586 1 7.13896 5.75843 1.91769
587 1 5.14063 1.24778 5.25948
588 1 1.5125 4.65963 2.09786
589 1 7.03791 8.58461 5.48728
590 1 3.65693 5.38981 6.83147
591 1 3.79166 3.3833 6.41668
592 1 9.03796 6.49986 8.19362
593 1 0.578831 5.8571 4.3866
594 1 1.47134 1.42206 2.34161
595 1 7.44481 3.59374 8.48058
596 1 8.26909 0.630105 3.95095
597 1 8.53033 8.45824 6.69388
598 1 6.5908 2.68188 4.23824
599 1 5.80591 2.00609 1.61738
600 1 8.93528 6.41979 2.33625
601 1 3.60278 7.2822 5.42214
602 1 8.59772 3.38507 0.234173
603 1 6.72034 1.32322 9.13393
604 1 7.283 1.52575 7.92946
605 1 4.53299 4.3492 7.61447
606 1 1.38933 3.36801 4.12465
607 1 4.95414 1.36386 6.86154
608 1 1.23591 5.71146 2.65418
609 1 3.45357 2.90585 2.66522
610 1 5.14537 8.05421 0.409215
611 1 2.96649 9.14096 5.6192
612 1 5.50631 8.44226 8.22907
613 1 1.35045 6.58414 4.49424
614 1 7.07689 0.780444 8.42807
615 1 0.0093373 1.79888 7.24019
616 1 4.21584 2.77767 8.20092
617 1 6.59903 0.134401 7.93527
618 1 3.67914 1.04697 3.73596
619 1 8.31978 9.4035 8.51406
620 1 5.98851 3.93423 0.27149
621 1 4.16972 5.10567 0.691298
622 1 3.27444 9.06025 2.1584
623 1 6.18898 2.94392 5.14779
624 1 3.93751 0.131466 0.838926
625 1 5.0025 4.73667 9.29724
626 1 4.27263 2.72534 1.77522
627 1 2.80075 8.99396 7.97705
628 1 7.18191 0.689739 6.29126
629 1 4.28819 1.19135 0.927449
630 1 2.43539 6.0328 1.37172
631 1 0.673747 7.66221 4.76987
632 1 0.853317 2.40682 6.87035
633 1 5.48521 9.19195 8.76622
634 1 1.08903 1.72902 5.8228
635 1 5.92172 1.1623 1.87797
636 1 8.46785 6.16319 8.72896
637 1 3.96877 0.303347 2.24624
638 1 0.698479 3.67845 5.66179
639 1 7.13575 2.62887 0.278956
640 1 2.64627 9.21675 2.92707
641 1 3.95089 1.71578 7.57159
642 1 7.57386 6.6054 6.2598
643 1 5.12933 9.33978 7.72671
644 1 8.63434 7.48954 8.94873
645 1 8.43306 0.257219 0.0804989
646 1 2.82885 7.75448 6.87324
647 1 3.90616 1.78965 4.52989
648 1 6.8524 8.96969 0.51485
649 1 9.46313 2.46709 3.27447
650 1 3.60573 7.45235 1.23804
651 1 0.656988 7.2531 5.61037
652 1 4.06229 5.73094 1.31613
653 1 0.0698609 8.68564 8.99866
654 1 0.218124 4.70271 4.0831
655 1 2.22166 3.06148 5.37361
656 1 2.70546 3.84313 4.92612
657 1 0.774429 4.97585 2.98131
658 1 8.42136 3.82357 8.64393
659 1 1.85273 1.85333 8.9966
660 1 3.72617 3.88712 1.05659
661 1 5.43134 1.54834 3.64078
662 1 0.136138 3.97383 6.53584
663 1 2.26583 0.918146 9.3162
664 1 6.60673 2.79989 3.23922
665 1 2.67948 6.23694 4.64669
666 1 6.27342 5.00033 6.10901
667 1 0.0855758 3.95365 1.50883
668 1 1.41542 6.43968 1.98874
669 1 5.87725 7.62282 7.12329
670 1 6.60509 4.5584 5.49291
671 1 5.75874 6.32068 4.81363
672 1 8.96609 4.10934 3.94515
673 1 1.85587 7.56334 2.55988
674 1 8.71983 1.55623 7.82142
675 1 0.474872 1.74031 1.10773
676 1 9.35366 0.985946 7.31337
677 1 0.961364 5.13164 6.14325
678 1 6.33802 8.09419 5.92888
679 1 2.32354 4.58748 0.186819
680 1 3.67996 8.58091 5.63061
681 1 0.102047 5.04925 5.00422
682 1 1.39419 0.985714 5.51771
683 1 4.12102 6.3711 3.03811
684 1 1.39602 3.41991 5.04136
685 1 4.36569 0.171115 8.56747
686 1 6.60595 6.49027 6.97793
687 1 1.05155 4.01707 6.39006
688 1 7.06594 2.82745 5.17447
689 1 4.46078 0.558736 7.38251
690 1 1.35943 6.04413 7.96011
691 1 6.10285 0.3491 6.08266
692 1 0.922156 7.713 6.48986
693 1 7.9362 3.79478 7.30745
694 1 5.98158 6.09767 8.4307
695 1 1.66762 6.58406 0.879029
696 1 6.03104 5.3155 3.29286
697 1 3.21974 0.0944882 1.3912
698 1 6.37056 1.37983 6.41563
699 1 9.32974 2.96755 5.14856
700 1 1.45766 4.35141 3.7302
701 1 7.61973 8.59838 6.45295
702 1 1.0146 2.25098 2.98027
703 1 8.28829 4.18684 5.71362
704 1 9.30396 8.19375 5.18629
705 1 2.24207 0.544101 1.07499
706 1 2.13328 7.71129 9.1156
707 1 8.2177 4.59148 3.72216
708 1 0.708471 1.29373 2.86073
709 1 4.85308 4.23307 8.56325
710 1 1.56992 6.82715 5.34224
711 1 6.28559 1.31741 8.18444
712 1 1.12203 8.66261 2.65306
713 1 4.62909 7.77685 2.98215
714 1 2.04097 8.53843 5.48684
715 1 5.2405 5.47823 4.81062
716 1 4.64915 4.74678 4.46284
717 1 1.35121 9.09903 1.72447
718 1 5.4417 9.24138 2.06734
719 1 4.33389 2.31844 3.8714
720 1 5.74045 7.58869 8.11494
721 1 5.4017 1.81647 6.22698
722 1 0.767682 6.47769 1.24642
723 1 2.88276 7.76766 8.48162
724 1 4.70294 9.28216 0.0360473
725 1 6.75406 7.28737 6.51232
726 1 7.11567 4.22313 1.81068
727 1 8.00066 2.36325 0.181827
728 1 2.4648 4.81672 1.96751
729 1 4.74289 2.11871 4.89648
730 1 7.51147 3.00901 7.6348
731 1 2.87985 7.7279 4.60524
732 1 8.42686 0.959407 7.08628
733 1 4.70756 7.25743 8.45792
734 1 7.83305 4.55211 1.37887
735 1 1.6269 6.3114 6.86628
736 1 9.20552 0.815879 1.57211
737 1 0.739816 6.58834 7.53676
738 1 0.765624 0.764684 7.72931
739 1 3.07404 5.94519 2.05633
740 1 6.84552 9.19134 2.87922
741 1 2.3952 3.06858 6.7295
742 1 1.36725 6.94931 6.20086
743 1 9.34893 0.213152 5.96744
744 1 7.37724 8.0857 3.91152
745 1 7.04612 8.92333 2.10428
746 1 4.08109 2.87996 9.08978
747 1 6.56197 3.33031 8.80979
748 1 1.24487 8.33604 4.62906
749 1 6.69147 4.5584 4.51981
750 1 1.07954 5.78009 0.56297
751 1 5.47223 6.20962 1.21669
752 1 3.97978 3.66268 1.95288
753 1 4.30867 3.84163 3.15912
754 1 4.58934 5.25445 2.0046
755 1 5.98894 5.03933 4.95099
756 1 3.05342 3.41315 0.577249
757 1 7.22287 9.22382 3.7201
758 1 9.32973 7.85362 7.21387
759 1 5.76796 6.19604 5.98666
760 1 9.18184 5.62528 8.19681
761 1 2.08595 6.87646 3.43946
762 1 2.35824 7.65446 5.99562
763 1 4.99253 4.16677 4.9935
764 1 9.12955 2.44537 6.37978
765 1 7.17556 2.89674 6.14231
766 1 5.4706 3.63474 5.67637
767 1 5.89267 6.20021 3.79323
768 1 5.17229 7.09977 1.00673
769 1 1.93085 7.56029 0.751471
770 1 8.67001 0.311785 6.5278
771 1 3.69355 5.88266 5.94583
772 1 4.1925 7.76901 4.08791
773 1 8.68968 7.39819 2.2707
774 1 3.52472 1.7407 6.59367
775 1 0.0670041 0.489927 3.66251
776 1 7.57708 1.23446 3.67176
777 1 8.85151 1.50433 5.20159
778 1 4.49321 8.78293 1.64422
779 1 6.30136 9.09921 5.23599
780 1 0.154046 3.31007 3.86456
781 1 0.0937303 6.93407 0.809906
782 1 0.707471 3.88946 3.50476
783 1 8.62332 3.38488 5.54801
784 1 1.95972 1.48957 0.647277
785 1 8.16144 1.54778 0.959189
786 1 1.43189 0.547253 7.08808
787 1 8.73508 3.52774 1.10276
788 1 4.45674 2.88865 2.84517
789 1 6.72357 1.0528 2.61597
790 1 5.58036 2.47728 5.69961
791 1 1.07503 4.17188 1.61113
792 1 8.19487 6.77858 8.13863
793 1 7.73064 3.5293 2.27545
794 1 0.149159 3.37669 2.1029
795 1 8.42673 5.89812 7.71956
796 1 5.21292 0.753483 3.31119
797 1 4.47526 3.33622 1.19559
798 1 6.02239 0.296624 2.64197
799 1 5.51626 8.30571 3.90376
800 1 5.10135 2.26835 3.39166
801 2 8.46342 8.78447 7.68113
802 2 5.94627 2.75252 8.24037
803 2 4.21959 4.01966 6.87301
804 2 2.47246 6.94564 5.14751
805 2 2.39043 5.7329 7.29807
806 2 9.11252 0.381411 0.741046
807 2 7.71173 5.11886 2.04625
808 2 5.77847 2.80408 2.63526
809 2 6.83557 1.59892 4.83491
810 2 2.89569 1.61928 9.09821
811 2 4.35787 7.9155 0.97521
812 2 6.23512 0.151559 3.6762
813 2 3.83401 6.99165 4.3754
814 2 8.25392 7.42718 3.92268
815 2 5.74367 8.70158 1.1955
816 2 9.21008 4.52968 0.493162
817 2 4.60992 6.80403 2.46067
818 2 5.92325 0.441688 1.20098
819 2 5.02763 1.46659 2.7657
820 2 5.03946 3.29036 2.20324
821 2 9.05926 1.65432 0.829258
822 2 9.27569 2.24838 4.54064
823 2 6.66954 3.68193 5.54664
824 2 5.60953 2.61711 7.3593
825 2 8.78482 0.49833 5.1483
826 2 3.73899 7.97988 2.05507
827 2 2.03983 7.25224 6.76162
828 2 8.65772 5.01543 7.25551
829 2 9.24902 6.32084 6.14924
830 2 4.26247 5.34057 5.11576
831 2 9.24223 7.26655 3.51079
832 2 0.575111 6.71541 6.67643
833 2 3.1596 4.24476 1.96044
834 2 3.73264 2.04709 0.106047
835 2 5.95454 0.694051 0.172447
836 2 0.0213114 7.39824 6.42228
837 2 2.71521 0.594536 1.95756
838 2 6.2978 5.9132 1.49119
839 2 6.72618 1.97139 2.46005
840 2 6.21891 9.20413 7.07558
841 2 7.91737 9.28795 5.86505
842 2 8.06024 9.0623 1.79408
843 2 7.58224 2.71013 1.11071
844 2 2.13662 4.52884 1.28488
845 2 2.76689 7.46422 2.14185
846 2 3.86001 1.8163 2.49097
847 2 7.95287 6.58502 3.45615
848 2 0.595206 8.68834 6.89356
849 2 4.97806 2.33827 8.5629
850 2 8.32711 6.489 6.88335
851 2 1.03804 1.23279 0.568525
852 2 7.17628 7.7813 8.42047
853 2 9.04182 9.24919 1.72981
854 2 4.06175 8.81841 2.57301
855 2 1.66332 3.87195 0.686966
856 2 1.92795 4.19304 4.62399
857 2 5.50326 2.97044 6.41255
858 2 0.416466 8.85332 1.26057
859 2 2.38774 4.55241 5.58031
860 2 8.32771 8.64426 5.06493
861 2 0.737808 2.67864 5.34273
862 2 2.37061 8.53593 8.78131
863 2 8.77375 3.13818 4.31025
864 2 8.06308 8.89663 3.87992
865 2 5.00272 6.28339 3.67801
866 2 4.1158 6.27208 6.63989
867 2 8.90405 7.49859 1.31612
868 2 3.37407 3.50934 8.45467
869 2 2.53515 3.40974 3.04453
870 2 3.79122 7.28611 7.08171
871 2 7.99368 0.893776 8.23667
872 2 3.89459 2.10867 5.33358
873 2 9.20872 8.9243 8.13762
874 2 5.64793 6.43135 0.252918
875 2 8.89223 0.39661 7.92976
876 2 2.75194 8.59537 6.40452
877 2 7.20481 2.1148 6.81993
878 2 8.92626 5.22191 1.07894
879 2 0.6224 4.52978 5.62412
880 2 3.95637 8.57264 0.47284
881 2 1.47511 4.02735 8.0744
882 2 6.14668 7.54068 2.34455
883 2 8.07659 5.33177 8.83694
884 2 4.52967 8.07297 5.76665
885 2 3.49492 0.533242 8.84682
886 2 5.02856 8.15241 4.69984
887 2 3.85693 9.10127 9.05746
888 2 3.86682 5.02241 7.67935
889 2 7.73511 1.72427 5.30013
890 2 1.04942 7.92328 0.186017
891 2 1.88281 5.47737 1.8601
892 2 8.78893 2.45544 1.04517
893 2 8.28159 2.20547 1.72897
894 2 0.402748 7.25107 8.03387
895 2 0.430118 2.98034 6.20914
896 2 4.66519 4.23245 2.38676
897 2 4.1526 3.27592 3.88594
898 2 6.38668 4.54835 7.68855
899 2 3.12632 8.21146 7.63064
900 2 4.11349 0.691598 0.0933098
901 2 2.25206 0.71591 3.93733
902 2 5.66084 1.51294 7.51048
903 2 5.14224 4.60958 6.59435
904 2 2.33594 2.13577 1.30326
905 2 2.55247 1.30161 2.51806
906 2 6.4636 0.504102 4.65015
907 2 1.73221 2.25037 2.2998
908 2 0.677025 1.31175 1.94066
909 2 5.3422 7.30067 3.61904
910 2 7.67828 1.20932 2.74213
911 2 2.46524 3.89889 7.45263
912 2 5.16476 5.96653 2.07752
913 2 3.72094 9.07306 4.11636
914 2 3.32717 1.30942 0.403459
915 2 1.29406 0.245069 4.00293
916 2 8.86855 2.44462 0.0733895
917 2 5.30902 2.48519 4.30639
918 2 5.68617 3.51374 8.79204
919 2 6.73758 3.43562 0.373721
920 2 3.99034 6.11919 7.58036
921 2 2.09279 1.82419 6.49949
922 2 3.32285 0.417205 7.99934
923 2 0.566008 8.07667 3.85243
924 2 3.3844 6.82802 6.31262
925 2 8.53117 7.53969 6.7796
926 2 7.1555 9.24154 7.10334
927 2 7.91134 0.890818 1.77672
928 2 4.18407 6.94321 0.899733
929 2 4.60681 8.57021 7.94888
930 2 1.05393 8.19711 5.54626
931 2 9.28376 6.38512 7.10892
932 2 7.74627 4.84628 2.92455
933 2 1.45235 3.82767 9.22968
934 2 7.38094 0.792505 4.57536
935 2 3.7734 4.62189 2.4878
936 2 3.58988 9.25511 3.16381
937 2 3.95854 7.86019 8.03358
938 2 7.89508 4.41486 9.18673
939 2 0.671414 1.63893 4.85529
940 2 4.32235 4.77805 3.32465
941 2 3.63404 8.67769 8.27813
942 2 4.62938 5.53992 3.11164
943 2 3.01717 2.64661 0.936852
944 2 5.99032 2.29263 3.62115
945 2 8.54055 0.380371 2.19206
946 2 7.73578 5.61749 6.83154
947 2 3.67054 6.21724 3.94951
948 2 2.25422 5.57205 0.62226
949 2 3.14389 3.74003 3.77972
950 2 5.12344 7.97093 1.52245
951 2 1.5997 0.790723 8.02032
952 2 7.70964 5.02958 4.32396
953 2 8.95553 4.79327 3.3281
954 2 2.7209 3.79674 5.81058
955 2 7.08891 7.99639 7.28891
956 2 8.90284 8.97235 0.290633
957 2 6.49714 4.1041 8.49085
958 2 4.02051 6.54267 5.24344
959 2 9.32919 5.9884 9.01354
960 2 1.48297 2.34009 4.74848
961 2 8.25596 3.72886 3.51782
962 2 6.56508 6.30635 2.6256
963 2 9.10071 2.57755 2.34593
964 2 5.05606 1.08575 8.17646
965 2 3.30657 2.62531 6.95262
966 2 4.44604 0.0176778 3.6274
967 2 -0.0362276 1.55997 3.47875
968 2 6.89242 5.30937 7.35227
969 2 7.64476 6.1549 5.52445
970 2 8.37828 2.37347 3.88737
971 2 4.92526 5.87957 7.59293
972 2 4.96984 2.35738 2.32537
973 2 5.81455 0.531096 8.41115
974 2 7.15831 8.859 4.71284
975 2 6.33651 7.67704 8.88551
976 2 2.03595 3.11551 1.36252
977 2 7.28485 1.22496 1.20837
978 2 2.55447 4.69959 7.79824
979 2 5.25086 3.1198 0.577085
980 2 2.64426 5.16701 2.89092
981 2 1.58218 8.24904 1.97753
982 2 7.79369 8.02551 4.71089
983 2 4.57381 6.33328 1.45619
984 2 8.60577 5.98838 3.69808
985 2 1.14071 5.79546 3.57472
986 2 9.10082 7.50774 4.38772
987 2 0.722833 0.0693745 3.18409
988 2 0.00785675 7.90067 0.546897
989 2 3.82929 2.07342 1.01533
990 2 2.2944 0.995537 6.78554
991 2 1.53854 7.11404 0.0585098
992 2 5.10396 4.06611 3.97672
993 2 2.12707 0.531783 2.59195
994 2 3.68554 0.34035 5.71426
995 2 8.32733 2.36923 7.8813
996 2 1.0004 6.78719 2.81388
997 2 0.826496 2.43281 3.86517
998 2 0.440663 5.56922 7.50154