#bin. KALJ data file T=0.5

1000 atoms
2 atom types

0 9.4 xlo xhi
0 9.4 ylo yhi
0 9.4 zlo zhi

Masses

1 1.0
2 1.0

Atoms

1 1 7.67946 4.37941 6.72344
2 1 4.45634 6.40786 4.57324
3 1 8.90605 6.30955 5.81351
4 1 7.49484 5.71831 3.57897
5 1 0.99376 2.77987 0.621862
6 1 5.822 6.95035 0.369887
7 1 6.14756 1.51096 5.31632
8 1 9.42388 8.91468 1.00778
9 1 4.96558 3.97599 3.07768
10 1 5.02096 2.5861 0.492769
11 1 5.86805 4.41002 6.20707
12 1 0.585051 1.25182 3.23931
13 1 7.77445 0.435389 6.51829
14 1 4.71385 7.03092 6.25229
15 1 9.20616 7.74296 3.67746
16 1 0.241698 9.04605 5.34633
17 1 0.862221 1.07231 5.31192
18 1 5.55752 1.84002 3.71089
19 1 5.43665 7.47777 3.2513
20 1 0.806367 8.58187 6.03333
21 1 6.37207 9.30841 2.49178
22 1 4.91794 3.43573 6.42127
23 1 4.23239 6.04495 0.433683
24 1 5.81449 4.29307 5.23234
25 1 7.58853 0.337651 8.21832
26 1 9.16304 1.55736 2.70101
27 1 3.19397 5.39559 6.88344
28 1 7.77836 6.94111 9.10571
29 1 7.98109 8.65589 7.30887
30 1 3.60905 4.58345 6.92651
31 1 8.86167 7.56041 0.531171
32 1 3.56353 1.01228 5.45804
33 1 0.934225 8.83654 8.0059
34 1 1.37111 4.95985 2.4675
35 1 7.23178 1.15423 9.10068
36 1 0.44534 5.19077 2.57616
37 1 1.3448 3.66903 1.25272
38 1 8.04813 3.8549 5.27731
39 1 6.89829 5.31361 5.62591
40 1 4.5091 5.00547 1.78676
41 1 5.49028 1.48139 6.61307
42 1 2.43343 1.48667 7.36818
43 1 2.98472 5.15241 2.07093
44 1 2.46318 3.82657 3.2752
45 1 9.21181 2.39887 2.55606
46 1 2.495 2.17424 1.41855
47 1 9.26677 7.0986 2.86183
48 1 2.31066 5.54694 8.32615
49 1 2.64292 0.834936 7.95827
50 1 5.53853 4.52522 2.15169
51 1 4.89715 9.05758 3.48719
52 1 2.52647 8.59994 1.69178
53 1 3.88774 5.21062 9.11316
54 1 3.78574 0.267217 3.0097
55 1 2.61835 2.64288 0.535381
56 1 6.95201 3.91833 8.33233
57 1 3.24931 0.789137 4.65909
58 1 6.43263 1.57014 7.03767
59 1 2.62733 0.708982 6.33952
60 1 0.582498 0.013869 6.35941
61 1 5.0331 1.71538 0.430916
62 1 5.28641 4.10168 0.164671
63 1 5.22796 0.818337 0.0307725
64 1 0.953704 7.10979 9.23593
65 1 0.21305 8.07992 8.29267
66 1 3.11711 4.37825 2.8293
67 1 0.837802 6.07052 4.43679
68 1 5.61179 2.58917 2.04315
69 1 5.7261 0.746358 0.727672
70 1 3.17835 3.7487 2.19543
71 1 1.73644 6.94756 2.91654
72 1 8.96577 3.81268 2.72024
73 1 3.29475 8.02914 3.85418
74 1 5.2083 3.06761 3.32894
75 1 6.79873 7.66393 4.26594
76 1 6.26561 2.05948 6.01753
77 1 6.94129 7.61622 -0.0208532
78 1 7.48614 6.19373 6.71266
79 1 3.85819 8.7466 6.81376
80 1 1.61435 1.12479 2.46379
81 1 7.64101 6.13632 0.840457
82 1 2.98974 7.03772 0.266393
83 1 5.32511 7.59151 0.242519
84 1 0.691501 0.22611 7.31367
85 1 7.73225 4.32976 8.57929
86 1 0.872105 7.74646 4.42917
87 1 4.67628 7.79462 1.41119
88 1 9.07072 2.51758 5.95123
89 1 1.71029 7.68213 1.52399
90 1 1.05204 9.06534 4.74378
91 1 1.08315 8.11849 7.4399
92 1 8.2501 3.01556 6.62877
93 1 7.06734 5.67059 2.79275
94 1 7.96434 1.3448 8.09014
95 1 7.97888 1.42787 2.41632
96 1 6.6476 7.34139 5.10314
97 1 7.20423 0.162431 9.2263
98 1 2.39678 3.45295 4.14048
99 1 5.3008 3.82278 1.44245
100 1 3.59917 7.97106 2.27154
101 1 0.408532 7.00457 0.720755
102 1 4.71796 6.34658 6.80219
103 1 7.98604 0.367151 5.60403
104 1 0.693667 1.84738 0.570687
105 1 6.77523 0.257477 6.67152
106 1 4.07877 0.827781 1.81513
107 1 0.693378 6.05968 7.9166
108 1 6.22941 8.80354 1.45444
109 1 9.24396 1.53988 1.11875
110 1 8.7075 8.9799 5.92801
111 1 0.145038 0.614269 1.41884
112 1 8.36185 2.3278 2.47931
113 1 7.60633 0.159718 4.81429
114 1 0.595068 7.32473 7.41879
115 1 5.90485 3.70378 3.42549
116 1 0.913775 6.88582 4.11516
117 1 7.827 4.89451 1.17881
118 1 7.17881 4.10386 0.156021
119 1 7.28187 2.48692 1.56304
120 1 1.83817 4.85206 1.61361
121 1 7.89095 9.02347 8.79839
122 1 5.92822 6.26492 8.68737
123 1 4.93823 2.91006 1.27062
124 1 2.14548 5.96357 5.49114
125 1 5.90839 8.50344 5.97923
126 1 7.24511 1.2231 1.23018
127 1 2.35391 5.87654 0.522306
128 1 2.57516 7.7304 1.86539
129 1 4.35851 4.75333 2.76411
130 1 4.38339 5.83009 5.31
131 1 9.04169 8.00995 2.79794
132 1 3.06579 7.83818 8.03853
133 1 8.03619 2.72306 7.52414
134 1 6.77297 4.16497 6.81432
135 1 1.89608 2.1745 7.71554
136 1 0.783017 7.74713 1.22659
137 1 9.03104 2.91048 8.73086
138 1 5.82292 0.606184 6.89473
139 1 6.21158 1.04996 0.057292
140 1 9.10974 8.93242 4.42767
141 1 6.13376 9.08692 6.87986
142 1 4.77776 6.08847 2.606
143 1 1.29524 4.42132 3.27574
144 1 6.42434 7.3252 2.75067
145 1 2.74973 6.35186 4.27708
146 1 4.29226 6.27083 8.70107
147 1 0.224216 2.13259 1.82227
148 1 3.23433 6.52381 8.12242
149 1 7.9151 1.34121 6.32901
150 1 0.960758 8.20609 5.28219
151 1 5.9337 2.38121 8.24698
152 1 2.3759 9.18832 9.05049
153 1 7.68185 6.27524 7.56754
154 1 0.704523 1.48621 1.44994
155 1 0.546913 0.943233 7.80084
156 1 3.24908 7.11543 7.45881
157 1 3.71645 4.44953 8.50587
158 1 1.03707 5.64044 5.3379
159 1 1.0421 7.12748 6.53244
160 1 4.43005 7.61027 9.01791
161 1 2.62058 3.03242 8.99735
162 1 5.96448 3.43128 8.68675
163 1 8.86956 3.4335 4.76853
164 1 6.94006 1.84896 0.533146
165 1 3.79938 8.59839 7.76767
166 1 6.11543 0.153944 4.10578
167 1 5.47801 8.44447 0.188299
168 1 6.68518 4.66823 7.71468
169 1 4.70996 8.58266 2.27657
170 1 8.45913 1.7709 7.2993
171 1 6.12687 2.48757 7.29726
172 1 2.94011 1.54999 6.38224
173 1 0.858467 0.493948 4.08855
174 1 2.47615 5.4751 6.36275
175 1 4.78708 3.13983 2.27712
176 1 1.49732 5.35246 6.21853
177 1 5.03171 4.85439 5.76137
178 1 4.42711 2.01796 6.39219
179 1 2.672 4.33056 7.12753
180 1 2.77471 7.13031 8.7145
181 1 6.64196 5.81874 7.32889
182 1 8.27952 1.28621 1.56405
183 1 3.61486 9.02904 2.25168
184 1 5.4502 2.93013 7.64372
185 1 6.9105 6.45989 5.04676
186 1 3.33247 3.83339 6.9232
187 1 7.43559 3.28288 5.93048
188 1 4.66002 5.58163 1.15359
189 1 1.03068 8.16329 8.69551
190 1 6.63347 5.94124 6.20312
191 1 6.43011 3.86272 2.73239
192 1 6.20824 4.08219 0.550749
193 1 4.60993 1.90804 4.41844
194 1 1.29399 2.41318 6.90557
195 1 6.95687 6.77685 0.301389
196 1 8.31235 3.7565 6.16007
197 1 5.07602 8.58425 5.66701
198 1 6.65269 7.3061 1.10338
199 1 3.09398 3.15613 2.89121
200 1 3.66864 5.43637 1.43396
201 1 3.20282 6.1009 1.67546
202 1 2.25317 7.99481 7.56331
203 1 1.74982 3.74653 6.9018
204 1 5.85105 9.12659 8.60766
205 1 2.60985 9.38565 2.02617
206 1 4.67948 4.85324 4.89192
207 1 8.6451 0.567962 0.884326
208 1 2.89154 8.33058 4.68561
209 1 1.25149 1.4966 6.01125
210 1 1.30566 3.61395 2.87933
211 1 6.16153 4.35283 8.95212
212 1 0.943346 1.72922 3.85242
213 1 5.72067 0.136995 7.81208
214 1 5.96949 7.15377 7.89691
215 1 3.78931 4.64604 2.08432
216 1 1.36013 1.35977 7.38513
217 1 3.29625 1.38182 2.883
218 1 1.52497 3.91593 3.95379
219 1 5.32751 6.01344 3.31715
220 1 5.16215 8.59192 4.46972
221 1 0.0228359 8.19507 4.87594
222 1 1.1848 0.0564699 5.57308
223 1 5.06846 5.018 7.00183
224 1 3.5785 8.81009 4.97347
225 1 8.66311 8.52018 7.89875
226 1 0.998061 0.018318 2.37741
227 1 0.978352 1.86721 5.26431
228 1 1.9908 3.44542 0.775203
229 1 8.43976 3.66054 1.85882
230 1 1.65639 6.48249 1.96933
231 1 9.04205 5.91157 1.45036
232 1 7.60882 4.36543 7.61859
233 1 3.4586 7.10195 1.68671
234 1 3.27002 5.63006 5.63159
235 1 5.73815 9.01165 5.2487
236 1 2.02179 4.69595 6.61574
237 1 7.97726 6.81619 6.27054
238 1 8.02372 0.353621 1.63054
239 1 7.28584 4.33444 3.70087
240 1 0.0981561 1.22466 8.65925
241 1 4.56598 5.42756 3.31656
242 1 7.53337 5.8543 9.25757
243 1 4.88228 9.07702 1.33564
244 1 1.24208 5.43792 0.290792
245 1 9.11594 9.29513 2.12939
246 1 0.538008 4.68 5.97793
247 1 9.36441 2.19998 0.0460504
248 1 5.16696 0.747698 1.86814
249 1 2.39771 4.74362 7.90278
250 1 2.77788 6.2267 7.24343
251 1 2.94535 0.0597598 3.13265
252 1 0.0593448 4.0046 0.35014
253 1 8.97648 1.01535 0.116583
254 1 1.42817 2.86239 8.43364
255 1 2.55696 5.50461 9.16729
256 1 6.17558 8.57916 4.26385
257 1 1.79646 4.85645 5.09057
258 1 7.66356 7.01528 2.4538
259 1 6.15995 7.3508 8.86108
260 1 5.03361 6.42525 8.31782
261 1 7.24634 2.14055 8.56354
262 1 0.710433 4.36324 8.21037
263 1 4.85587 6.72023 5.36213
264 1 7.02008 8.35326 1.90933
265 1 2.70018 7.57742 0.85835
266 1 8.7372 7.29053 6.68547
267 1 4.7538 0.823643 1.02932
268 1 5.60259 7.21125 5.20014
269 1 1.66421 7.63635 8.09418
270 1 1.41851 1.19181 4.35446
271 1 5.38348 8.04943 8.72995
272 1 3.74733 9.2089 8.72006
273 1 1.45318 4.49536 7.40905
274 1 5.88257 3.22109 1.52996
275 1 4.29891 5.09864 7.47069
276 1 1.3632 8.71508 1.17138
277 1 4.17222 4.94866 0.569994
278 1 6.06627 2.61646 5.26783
279 1 8.19397 0.921844 4.93568
280 1 5.29569 6.91516 8.96454
281 1 5.40501 7.76238 6.28591
282 1 7.73605 1.95284 1.0805
283 1 7.10912 7.79758 8.47348
284 1 0.748891 1.62417 2.43942
285 1 0.42349 8.92087 8.71909
286 1 2.59187 4.59031 0.578699
287 1 5.50407 3.61967 2.37877
288 1 0.0619847 6.865 3.80294
289 1 2.71563 2.30062 6.96049
290 1 4.35216 8.03775 8.20852
291 1 5.46574 7.74436 4.11973
292 1 3.10644 8.91366 3.89246
293 1 5.85704 7.99923 4.90674
294 1 5.33368 5.30669 2.71385
295 1 6.65866 5.39648 3.59901
296 1 4.343 1.4099 7.58731
297 1 2.58629 6.98974 3.31124
298 1 2.88204 6.34957 6.14233
299 1 6.98468 6.08911 1.95996
300 1 5.95314 0.24857 9.36648
301 1 0.0577478 4.11481 7.76168
302 1 6.05858 5.81191 2.90473
303 1 1.6209 7.92636 6.69222
304 1 4.95136 1.19057 3.98868
305 1 8.14086 3.00635 8.86268
306 1 5.71516 0.092706 3.30651
307 1 0.612776 7.41885 5.77182
308 1 4.42121 0.0411989 2.00015
309 1 1.63394 4.3996 0.84473
310 1 6.52774 2.65282 0.750033
311 1 0.612133 3.32765 5.797
312 1 0.313418 3.99279 5.2704
313 1 6.58783 9.26316 4.87591
314 1 6.01271 1.27779 3.14823
315 1 6.60032 9.02071 3.39284
316 1 1.63076 9.40546 6.51291
317 1 7.04126 2.04474 6.39422
318 1 0.809745 7.06387 3.27013
319 1 3.67898 6.66537 4.02609
320 1 0.330746 6.47061 5.2645
321 1 2.8242 6.78703 5.15155
322 1 1.73442 0.712279 4.95017
323 1 1.78899 6.53861 3.66943
324 1 3.63991 6.95023 9.0034
325 1 0.289115 4.33832 4.29541
326 1 7.79911 5.43677 6.29886
327 1 1.85005 1.47368 5.3453
328 1 8.13365 3.22723 2.66093
329 1 9.19634 2.85439 4.07389
330 1 3.40369 8.37376 1.49278
331 1 1.99408 7.89774 2.5296
332 1 6.99056 5.52635 0.538407
333 1 1.68848 0.195411 3.9886
334 1 3.19011 5.63517 8.61684
335 1 8.65806 5.61045 2.651
336 1 2.46126 8.10136 3.53131
337 1 6.3505 3.64391 4.83203
338 1 6.30963 2.11756 1.49603
339 1 5.82323 5.5142 9.17577
340 1 5.46931 5.8535 0.737015
341 1 5.03936 3.05497 8.78869
342 1 7.42692 4.04211 4.63207
343 1 3.52974 6.22799 6.72556
344 1 7.73367 2.83047 0.875041
345 1 1.47187 0.202145 9.13456
346 1 5.2203 4.73022 8.99405
347 1 1.45352 7.46386 5.12441
348 1 0.433396 3.00345 8.17807
349 1 1.84672 6.73284 4.54731
350 1 1.05145 4.18228 6.39257
351 1 3.87008 3.06788 7.11378
352 1 8.9001 8.45611 2.02181
353 1 2.36814 2.69764 8.23609
354 1 9.32962 0.287427 5.88533
355 1 6.9566 5.00684 4.40015
356 1 4.11596 3.72081 2.7261
357 1 8.11941 8.10663 8.61422
358 1 4.91475 7.76098 5.34728
359 1 6.6143 2.03005 3.3866
360 1 4.60276 2.34955 5.27372
361 1 4.58827 9.28665 4.89291
362 1 3.42974 2.47666 1.02129
363 1 4.18307 2.97235 9.06819
364 1 1.47052 0.898987 8.56783
365 1 8.86068 2.39239 1.2151
366 1 8.2276 3.00841 5.64194
367 1 0.762319 4.50537 9.30448
368 1 6.434 3.38866 0.139482
369 1 7.48155 1.14113 3.20785
370 1 9.17047 9.22109 7.31825
371 1 3.55472 3.80192 3.5671
372 1 4.24253 2.48161 8.19078
373 1 7.28243 3.65661 2.85902
374 1 0.153114 3.10395 0.217059
375 1 7.98963 4.86309 3.69937
376 1 8.92491 6.67309 9.35411
377 1 4.91638 0.768116 6.4777
378 1 3.33821 0.0275884 7.75071
379 1 7.80061 5.31687 5.32671
380 1 9.09083 3.46849 5.71299
381 1 9.05722 1.5103 6.43379
382 1 0.588849 8.26685 1.93098
383 1 6.69993 5.08221 9.13349
384 1 4.64518 2.72124 6.96185
385 1 1.70355 8.21819 5.7076
386 1 0.440789 2.15418 3.18491
387 1 0.554531 0.503227 8.98525
388 1 0.395739 2.60061 6.431
389 1 2.40034 9.39305 7.01106
390 1 3.91991 2.94952 3.02332
391 1 6.74662 5.96141 8.53473
392 1 8.65393 5.19895 0.2275
393 1 3.80276 7.41513 3.36727
394 1 4.01744 3.98055 4.83858
395 1 3.21726 9.1962 0.163014
396 1 3.23733 3.10257 4.18128
397 1 5.2928 1.54965 1.30184
398 1 8.18364 8.19721 3.49474
399 1 0.310609 2.69163 5.31306
400 1 1.84646 2.953 0.0350646
401 1 6.90894 0.451087 3.09931
402 1 2.48875 2.71745 3.45364
403 1 5.33864 4.98665 1.15775
404 1 5.36605 6.67325 3.97572
405 1 8.32571 6.09149 0.278239
406 1 4.18169 7.80202 4.17887
407 1 7.74256 0.984443 0.443498
408 1 5.51619 9.12983 2.0522
409 1 5.38283 7.75674 7.76074
410 1 4.54458 6.20843 3.7061
411 1 4.17554 2.63751 1.66143
412 1 8.8595 7.10651 8.60066
413 1 4.10388 1.4773 3.57343
414 1 6.52376 2.59846 8.97993
415 1 8.80332 4.8833 4.20169
416 1 3.40835 7.06372 6.14151
417 1 0.185903 5.4846 4.52468
418 1 2.94137 1.59722 2.16349
419 1 3.84122 7.04939 4.82471
420 1 9.27978 7.94721 1.19924
421 1 1.96085 2.09058 2.07828
422 1 4.07731 1.59528 8.44984
423 1 0.423458 0.601389 2.67484
424 1 3.22817 5.23271 4.60425
425 1 1.02932 6.5045 8.55423
426 1 7.89775 3.74607 9.23391
427 1 1.27612 8.45282 2.34205
428 1 6.88391 3.046 8.31789
429 1 7.14781 7.36135 6.83854
430 1 9.15029 6.06306 7.79796
431 1 9.00958 4.50819 6.61065
432 1 7.84981 3.84237 0.948915
433 1 8.53184 6.9618 4.07644
434 1 4.68063 3.87786 8.51967
435 1 7.48362 7.63073 1.24874
436 1 7.88025 3.40073 8.14319
437 1 8.73831 3.3697 0.182686
438 1 3.88753 2.14391 7.05588
439 1 4.78574 4.57159 3.83412
440 1 0.0673045 3.34505 7.27963
441 1 8.16133 2.81893 1.80625
442 1 7.98768 6.71466 1.47477
443 1 8.61191 9.02244 1.35632
444 1 3.7347 0.901443 8.03371
445 1 0.230712 2.19179 8.58417
446 1 7.96359 5.36624 7.74975
447 1 2.2848 5.38464 7.231
448 1 3.48509 2.64631 0.179752
449 1 5.85219 0.940538 4.45912
450 1 7.0373 0.359329 4.06068
451 1 2.51032 0.861176 2.52624
452 1 2.10495 8.98752 0.65505
453 1 0.0965069 0.220385 8.15508
454 1 2.64255 4.07568 5.3165
455 1 3.84994 2.21986 2.48989
456 1 6.15287 8.07987 0.769705
457 1 8.02958 0.531639 2.57065
458 1 5.06613 5.84661 5.90032
459 1 8.12985 8.73994 2.43424
460 1 9.25969 6.60926 7.15881
461 1 4.23492 2.42937 3.77567
462 1 0.0344643 5.20579 5.37388
463 1 4.44812 1.75462 1.99589
464 1 1.30613 7.16413 0.735993
465 1 2.77371 5.62025 3.47071
466 1 5.1478 0.218965 4.23889
467 1 6.91763 2.65953 5.59734
468 1 5.27221 5.69364 1.84418
469 1 1.01143 3.22922 6.71497
470 1 3.26891 3.44859 1.18033
471 1 3.88374 7.17822 8.1937
472 1 3.11401 8.59031 2.84322
473 1 6.1963 4.41429 4.27687
474 1 0.530672 3.36121 1.10048
475 1 2.55845 2.58265 4.61417
476 1 6.74997 8.2232 6.9134
477 1 7.00325 8.99164 8.48358
478 1 5.02799 4.84702 7.97782
479 1 0.776154 5.18895 6.71051
480 1 4.96312 5.73818 7.47018
481 1 7.30051 1.32517 5.60276
482 1 0.836888 2.91494 3.58402
483 1 6.59259 0.472588 8.63183
484 1 8.41861 1.74492 5.61794
485 1 6.05416 6.94799 4.47636
486 1 0.222714 8.8996 2.81267
487 1 1.8514 1.9239 0.48857
488 1 6.40196 1.69522 8.77821
489 1 0.125652 6.50623 8.64596
490 1 1.07196 3.64496 0.337249
491 1 8.59181 5.59029 4.93271
492 1 3.48433 6.10551 9.25775
493 1 5.4201 1.06453 5.80492
494 1 6.17885 7.5546 5.91071
495 1 1.96073 7.84934 8.99125
496 1 3.97138 3.96409 7.51637
497 1 5.67396 5.02211 3.81784
498 1 1.69239 7.17737 7.22166
499 1 7.57131 2.14675 9.34598
500 1 2.63941 1.50347 0.92837
501 1 4.2807 1.95746 0.897196
502 1 7.04151 6.76107 6.11846
503 1 1.90275 6.1826 7.54802
504 1 7.41289 5.20393 7.11517
505 1 2.34152 4.88048 2.72705
506 1 7.23849 2.79347 2.53943
507 1 0.783069 3.43881 2.04789
508 1 8.26408 4.92353 8.79994
509 1 7.79945 8.64595 1.58684
510 1 4.82358 7.22641 8.13609
511 1 2.66868 0.83384 5.45563
512 1 2.42541 0.579313 3.66836
513 1 7.31853 9.27385 2.25685
514 1 5.50184 0.448056 5.12845
515 1 6.25645 6.1401 0.274381
516 1 2.38568 1.18804 9.11586
517 1 4.48216 3.60483 3.80411
518 1 5.06997 1.32888 3.10478
519 1 8.38351 5.86682 8.78062
520 1 8.21164 0.955799 7.08284
521 1 4.29454 5.36494 8.27802
522 1 9.00031 1.00225 5.17978
523 1 6.97604 3.40891 1.02781
524 1 4.86666 9.28409 0.40905
525 1 0.0592383 7.3812 1.99039
526 1 4.40514 0.438435 3.71749
527 1 0.495118 0.721244 0.48886
528 1 6.80875 2.87939 4.6774
529 1 3.33857 2.36898 5.36602
530 1 3.46191 2.39298 8.68447
531 1 4.64019 7.05667 3.5066
532 1 0.563642 3.47331 4.4855
533 1 3.18785 1.4831 8.72017
534 1 2.88853 7.36923 4.32584
535 1 4.27657 8.69252 4.12395
536 1 8.70974 3.97278 8.85088
537 1 2.79915 8.66303 7.26112
538 1 3.09877 8.72856 8.32508
539 1 4.40849 4.17632 1.01623
540 1 3.32147 5.48805 0.482151
541 1 2.32397 2.23702 9.10456
542 1 0.0815839 6.28909 2.33328
543 1 0.935344 8.84927 6.96487
544 1 0.603686 7.29571 8.27284
545 1 3.76422 4.88039 5.31555
546 1 0.887496 7.29104 2.33782
547 1 9.01422 8.47914 9.04285
548 1 7.40531 1.63554 7.06924
549 1 5.07661 2.28336 2.72725
550 1 3.44228 1.45899 7.20427
551 1 1.9037 3.0376 7.3704
552 1 7.73136 2.06576 5.16916
553 1 4.76204 0.437518 2.83554
554 1 1.08692 0.865576 6.69806
555 1 5.84569 5.97863 6.8117
556 1 2.91677 4.0298 8.0113
557 1 1.89118 0.199553 2.79794
558 1 4.76945 8.15857 3.59712
559 1 7.26546 0.743627 7.30784
560 1 7.67696 7.45503 4.18123
561 1 2.22554 6.14641 3.00857
562 1 8.28337 2.54527 4.3048
563 1 1.06471 6.14439 7.09456
564 1 8.70914 9.18437 8.54586
565 1 7.41863 8.48416 3.93574
566 1 8.81757 4.49722 5.08533
567 1 0.76549 4.31253 0.793163
568 1 1.17246 5.65151 1.90944
569 1 8.62408 1.26496 3.44153
570 1 7.07767 4.31253 1.14967
571 1 5.80248 4.91635 0.392523
572 1 4.10543 1.07555 4.4326
573 1 6.89628 1.88403 4.8333
574 1 2.07311 4.27007 4.53245
575 1 4.54439 0.676483 8.50797
576 1 3.96608 5.39867 6.24214
577 1 1.43648 5.40791 7.51798
578 1 8.61644 0.748055 6.20719
579 1 5.93917 4.65486 2.87011
580 1 9.36157 9.39114 0.0842423
581 1 5.78733 5.01904 8.40366
582 1 7.15226 8.56281 2.93874
583 1 2.47861 7.79297 5.876
584 1 6.16982 5.63805 1.28962
585 1 2.31935 6.73412 0.869634
586 1 5.41898 8.12308 2.78536
587 1 1.20355 0.493898 1.58215
588 1 1.21219 0.199247 8.16811
589 1 4.97805 5.18923 0.3921
590 1 5.37927 4.25839 7.15098
591 1 5.27926 6.81676 2.6154
592 1 6.49772 1.09041 6.25653
593 1 3.91057 5.69899 2.21778
594 1 1.98801 6.0996 6.68316
595 1 2.94653 0.762193 0.480909
596 1 0.69427 5.94295 0.984281
597 1 4.65086 2.23776 9.11981
598 1 4.61749 3.28563 7.81264
599 1 1.45758 2.65361 3.09208
600 1 7.6881 7.14785 8.21535
601 1 7.19741 1.90816 2.52061
602 1 5.19432 6.09418 9.33489
603 1 3.56495 3.70375 8.98549
604 1 8.24355 3.99055 4.39965
605 1 6.23489 6.5332 1.19765
606 1 6.52498 1.12964 3.94204
607 1 6.19033 7.20264 1.88524
608 1 4.10657 7.30277 5.64498
609 1 4.39467 7.81649 2.79315
610 1 6.35084 3.35013 6.74565
611 1 4.02393 8.97238 0.504117
612 1 1.88903 7.80241 4.23235
613 1 7.01069 1.27436 8.14583
614 1 2.42676 2.981 5.39195
615 1 2.36016 3.21587 1.69387
616 1 0.467184 5.07556 3.57494
617 1 1.28016 1.05078 0.116497
618 1 0.285831 7.86224 6.57988
619 1 1.62225 3.45748 5.9543
620 1 6.07398 8.01269 1.74826
621 1 3.59663 3.23996 8.25811
622 1 4.71351 0.931475 5.06565
623 1 2.13355 2.00946 3.92402
624 1 4.00025 7.02684 6.86475
625 1 9.11538 6.28594 4.46902
626 1 4.4124 6.44593 7.67755
627 1 3.70511 6.13059 3.22137
628 1 2.67352 4.66992 8.87657
629 1 0.865681 7.87696 0.269997
630 1 6.47268 8.06117 3.39563
631 1 5.38409 6.0972 5.03904
632 1 2.26947 0.0641372 5.69928
633 1 2.37095 6.348 8.9031
634 1 8.33599 5.46906 1.69773
635 1 2.46199 7.07444 6.73604
636 1 8.69036 0.417798 7.63631
637 1 7.20609 2.33141 3.98252
638 1 5.66834 3.41261 0.63396
639 1 8.54433 9.38856 6.67224
640 1 7.84443 7.90592 6.58928
641 1 2.65495 4.91757 5.35158
642 1 3.48028 6.05308 4.80617
643 1 1.81407 7.9783 0.71816
644 1 0.652696 5.34955 8.60646
645 1 5.56812 1.99542 8.98561
646 1 2.73729 4.56885 3.79317
647 1 8.42829 5.38221 6.94728
648 1 5.6 9.20733 0.903539
649 1 1.59211 5.59725 8.84241
650 1 7.73513 4.98961 0.137585
651 1 5.86748 4.15916 7.93928
652 1 3.8513 3.47795 0.427475
653 1 2.42195 0.78872 4.51607
654 1 7.69973 9.33129 0.85794
655 1 4.46368 4.25389 6.49274
656 1 0.10338 5.7183 7.01195
657 1 0.155132 0.807513 6.60413
658 1 1.30106 5.11271 4.20141
659 1 7.9361 4.78731 4.65682
660 1 2.81698 8.16649 8.90152
661 1 8.1271 0.861261 9.00292
662 1 5.85368 4.98978 7.43519
663 1 3.60305 8.10049 0.000271298
664 1 5.38725 3.45739 4.64594
665 1 9.29513 4.5881 8.9876
666 1 0.175111 0.213643 4.65649
667 1 8.34126 1.645 0.498995
668 1 2.15347 8.80945 2.88655
669 1 7.41701 8.62557 0.272271
670 1 3.4275 0.0255653 5.55281
671 1 4.99704 0.0572458 7.23058
672 1 2.16928 5.72506 2.15621
673 1 7.1031 7.89644 5.98474
674 1 4.44845 1.43103 5.73672
675 1 8.99924 0.519164 3.15422
676 1 2.30319 5.11272 4.4121
677 1 4.24737 8.33297 5.04534
678 1 4.46619 9.28341 6.52607
679 1 2.77855 3.94954 6.22507
680 1 2.00817 4.41237 5.82217
681 1 0.500929 6.21689 3.32653
682 1 6.1796 4.5576 1.44653
683 1 1.71874 2.92573 4.00856
684 1 6.81149 8.75308 6.21951
685 1 3.70588 5.83689 7.49531
686 1 5.11739 1.55762 8.30439
687 1 0.198126 8.40969 0.230233
688 1 8.04067 7.76008 7.47522
689 1 8.53815 7.587 1.81952
690 1 0.632966 1.74406 6.63325
691 1 6.32385 8.89706 0.251236
692 1 4.37601 8.58334 9.15251
693 1 2.04458 1.62952 6.54166
694 1 7.21744 9.12676 7.20617
695 1 3.09075 5.89726 2.57364
696 1 5.8377 1.61359 7.68465
697 1 4.01317 8.51568 3.19827
698 1 1.80627 8.77168 7.31475
699 1 8.15379 3.67673 7.1468
700 1 1.77628 0.755098 5.94488
701 1 4.09482 8.87074 5.83182
702 1 5.8925 5.19355 5.65441
703 1 4.1672 0.503328 9.32798
704 1 4.42875 7.88496 6.30404
705 1 8.7607 7.26124 5.74809
706 1 8.03399 7.85851 0.105614
707 1 1.52174 7.55557 3.47816
708 1 8.29122 4.6477 5.87954
709 1 2.02844 3.82376 8.01565
710 1 4.57473 8.16469 0.561555
711 1 0.465891 4.05623 2.65109
712 1 2.75152 5.24578 1.18628
713 1 8.73667 0.168872 5.07352
714 1 7.08766 7.43966 2.01017
715 1 4.19748 6.51511 1.52163
716 1 7.6711 6.6809 3.51357
717 1 5.18505 2.98706 5.54597
718 1 6.76402 3.30949 3.70451
719 1 0.748399 4.87041 4.99059
720 1 7.49839 7.13556 5.38
721 1 0.835341 -0.00972786 0.79035
722 1 4.73783 3.42823 0.196172
723 1 4.85398 7.3652 7.03198
724 1 6.52142 6.59825 6.85363
725 1 8.66136 1.96791 9.0355
726 1 7.94318 7.79345 2.5077
727 1 6.50351 5.10573 6.58453
728 1 0.782734 4.44968 1.8774
729 1 4.09587 6.33619 6.02772
730 1 7.17429 0.246835 5.81212
731 1 7.28305 2.97803 0.0978053
732 1 2.83915 1.61879 4.9366
733 1 5.38751 2.07297 5.61423
734 1 6.22977 0.416736 5.76548
735 1 4.49088 7.11718 2.16076
736 1 3.88564 1.75029 5.09993
737 1 1.27504 3.8039 8.74479
738 1 8.43075 4.24075 0.338859
739 1 8.43284 6.84661 7.65242
740 1 7.1167 4.30441 5.97673
741 1 0.560403 8.45418 3.82829
742 1 7.65427 9.39334 3.2541
743 1 1.07647 6.24071 6.15046
744 1 7.02305 8.55894 1.04043
745 1 8.91552 2.47239 7.89251
746 1 2.10863 0.550223 0.36504
747 1 3.9411 2.61975 4.70392
748 1 6.90742 6.53219 2.84437
749 1 9.39694 3.96064 1.71787
750 1 7.12532 4.58294 2.78397
751 1 8.13803 6.80293 4.99667
752 1 3.2042 2.27347 7.7785
753 1 5.92424 7.35614 6.94452
754 1 6.1613 6.66305 5.73384
755 1 6.1667 2.11304 4.29647
756 1 1.2198 4.0975 4.89829
757 1 3.8819 7.68209 0.860757
758 1 2.18089 8.5685 6.3625
759 1 2.6457 2.44235 2.57315
760 1 4.05328 3.02382 5.68594
761 1 1.63414 1.34688 1.19366
762 1 8.96706 4.76168 3.21378
763 1 1.18522 2.43942 1.99136
764 1 3.22328 0.939152 1.53368
765 1 3.56264 1.98264 4.22572
766 1 8.66361 8.17764 6.40581
767 1 7.26081 7.55824 3.16648
768 1 3.50294 8.17573 6.04549
769 1 4.55443 3.27616 4.60325
770 1 5.82533 6.06129 4.34268
771 1 5.7136 0.598663 2.59809
772 1 6.6978 0.762765 4.85832
773 1 6.15109 0.29736 1.66836
774 1 8.89391 4.50499 1.09651
775 1 7.15526 6.71258 1.23374
776 1 7.30342 5.19178 8.48564
777 1 3.86866 5.62508 4.05882
778 1 8.34895 7.29951 3.29851
779 1 5.40887 1.66538 4.79451
780 1 6.32169 1.9948 2.43721
781 1 7.92867 8.70924 6.25732
782 1 0.557524 6.74737 1.65191
783 1 5.50789 6.82438 6.42105
784 1 6.30911 2.9995 2.44562
785 1 8.42805 8.33566 0.850146
786 1 0.301811 7.17397 4.82134
787 1 4.32043 9.28324 7.84745
788 1 9.3375 8.15156 5.83239
789 1 9.17929 5.94144 0.563505
790 1 1.75388 5.94458 1.22124
791 1 7.68216 2.09018 3.23696
792 1 5.29689 6.55364 1.76438
793 1 5.5291 7.45472 1.08949
794 1 8.84047 7.40651 4.84151
795 1 2.40111 1.54391 2.99705
796 1 2.75373 6.73506 2.37101
797 1 6.3638 8.25081 2.52998
798 1 4.13673 1.27675 2.66948
799 1 6.96773 6.74297 4.026
800 1 5.30277 7.47557 1.96962
801 2 5.93936 2.94897 4.1093
802 2 8.57855 2.94435 3.33046
803 2 1.95759 0.737184 7.00615
804 2 3.17073 4.26543 4.59425
805 2 7.91421 0.530234 3.95365
806 2 0.323134 5.90825 5.96762
807 2 7.8885 7.04459 0.566358
808 2 6.22076 7.20327 3.68575
809 2 1.51427 3.01147 5.1096
810 2 8.30036 9.05387 0.289743
811 2 3.52892 4.41125 0.880829
812 2 8.65198 8.15113 4.25448
813 2 5.71509 0.873283 8.68765
814 2 8.7839 0.861398 4.36372
815 2 1.884 5.14309 3.49401
816 2 7.4535 8.40838 7.93549
817 2 3.52081 1.74236 0.231614
818 2 2.09249 6.87993 5.81094
819 2 3.39415 0.637261 3.85292
820 2 1.81807 4.77034 9.24619
821 2 5.44383 0.0732479 6.09903
822 2 2.64307 8.67801 5.54801
823 2 1.47172 1.74303 3.12804
824 2 6.16899 6.35737 3.57216
825 2 7.92 8.1915 4.67901
826 2 3.51994 0.0950624 1.35765
827 2 2.8785 3.6343 0.378525
828 2 4.39894 7.01472 0.281092
829 2 3.34733 0.54453 2.2672
830 2 0.147312 5.02471 1.67694
831 2 2.37172 7.71216 4.95033
832 2 7.42423 1.09623 4.49082
833 2 8.33711 2.52284 0.35315
834 2 6.09643 6.34414 2.18104
835 2 1.73504 9.13431 1.96169
836 2 7.61138 6.27687 8.53267
837 2 1.1426 1.77825 8.87234
838 2 4.98867 8.80498 8.01972
839 2 1.15163 6.1672 2.66517
840 2 0.331653 3.15899 2.82815
841 2 1.96193 5.89207 4.32287
842 2 3.05135 4.77973 6.20746
843 2 4.24552 0.451375 5.83135
844 2 5.71413 5.74724 7.94675
845 2 0.609011 6.25913 0.0345736
846 2 6.79175 5.87541 4.45489
847 2 5.02524 6.66259 0.792625
848 2 0.214245 8.3127 7.38217
849 2 2.95994 0.633947 7.10443
850 2 1.87891 2.64096 1.00248
851 2 5.45491 2.63783 6.46011
852 2 7.21303 0.880255 2.32883
853 2 0.116935 3.82138 6.44271
854 2 6.45487 8.31898 8.85649
855 2 7.66346 2.95517 4.87052
856 2 0.0424094 6.85712 6.3125
857 2 2.31517 1.73138 8.34401
858 2 8.92204 5.44103 6.12926
859 2 6.78704 2.11598 7.74667
860 2 8.25429 9.01893 4.17337
861 2 0.123243 5.07675 0.485306
862 2 8.63582 8.51732 5.1959
863 2 0.917849 5.03829 1.29677
864 2 3.01995 9.3462 4.5896
865 2 2.8712 1.39528 3.8058
866 2 4.41362 4.35619 0.0456579
867 2 3.16866 2.71543 1.89239
868 2 8.93044 3.53612 1.02408
869 2 5.6408 2.3334 1.03924
870 2 3.16921 0.562132 8.74204
871 2 7.67406 6.22919 4.31934
872 2 0.510782 4.33822 7.05483
873 2 8.61453 6.65332 2.39191
874 2 8.82748 0.76494 2.06435
875 2 0.899782 3.65365 7.63335
876 2 6.75057 6.63397 7.74471
877 2 3.30793 2.36908 6.21411
878 2 0.191262 1.61558 5.6616
879 2 8.61874 6.437 3.37085
880 2 5.79975 2.66569 0.0736981
881 2 3.11455 7.82592 6.89634
882 2 4.8526 9.2314 8.84142
883 2 6.77539 4.46341 5.10882
884 2 7.06337 5.2708 1.39378
885 2 8.8 2.55508 5.05063
886 2 9.0912 7.5836 7.78158
887 2 9.13429 5.71409 3.65952
888 2 3.17665 5.1821 7.77181
889 2 2.88897 8.43385 0.695985
890 2 3.29113 2.2667 3.29148
891 2 0.923226 2.12717 7.88894
892 2 2.45435 4.10309 1.40132
893 2 3.63788 5.31032 3.19682
894 2 6.96704 6.87603 8.84235
895 2 2.36815 9.20192 7.89075
896 2 2.54983 2.13646 5.79912
897 2 9.20179 5.65495 9.09217
898 2 5.23554 1.57463 2.24424
899 2 3.60714 0.270312 6.49538
900 2 7.48063 8.69581 5.29412
901 2 2.27258 1.03873 1.6529
902 2 4.53359 4.03902 1.96928
903 2 5.73752 8.655 3.41578
904 2 6.78307 7.49523 7.6624
905 2 1.72919 4.18488 2.28214
906 2 0.440995 5.05904 7.80033
907 2 0.472369 3.759 3.54222
908 2 9.13226 5.02011 7.3463
909 2 7.95238 6.11637 2.76638
910 2 3.84125 3.97956 5.92563
911 2 0.499864 9.19642 1.64505
912 2 6.52673 8.72502 7.76164
913 2 4.18371 0.617172 7.10622
914 2 2.93397 7.54847 2.68438
915 2 6.02694 1.70288 0.577214
916 2 3.58169 6.5802 0.826088
917 2 5.95439 8.24512 7.19545
918 2 6.50831 3.74611 1.80415
919 2 1.573 2.17009 4.59313
920 2 2.03884 3.14408 2.63452
921 2 8.78479 1.56007 8.18564
922 2 1.76876 8.54233 8.3876
923 2 4.86544 7.19877 4.53064
924 2 6.34881 5.24656 2.27796
925 2 2.08853 7.08832 0.0653295
926 2 5.13459 0.902479 7.67457
927 2 9.02951 3.90417 3.88383
928 2 1.38752 0.867637 3.46248
929 2 2.5525 0.286854 1.14521
930 2 8.69989 3.47288 7.9975
931 2 2.27349 8.75333 4.10232
932 2 2.25575 3.94001 9.27569
933 2 5.34955 8.34675 1.08258
934 2 8.0498 7.99937 5.64448
935 2 8.03043 4.16212 3.02716
936 2 8.13999 1.57005 4.24573
937 2 4.31098 1.39655 9.31052
938 2 3.54723 1.83785 1.58525
939 2 4.86514 3.86343 5.33655
940 2 1.12411 8.81396 0.184214
941 2 6.10133 1.15764 1.48927
942 2 8.34301 5.61042 3.9266
943 2 1.29261 5.82177 3.59045
944 2 1.26846 6.51586 5.28848
945 2 5.34439 6.73174 7.38963
946 2 0.0102148 8.72268 6.59365
947 2 0.325217 3.70154 8.80385
948 2 1.50126 6.35986 0.232787
949 2 8.81541 6.6883 0.96441
950 2 3.35493 4.57343 0.0541769
951 2 8.06747 2.04616 8.41441
952 2 6.26061 5.90596 5.26483
953 2 7.66589 6.20108 5.55946
954 2 7.21139 2.98505 6.75037
955 2 2.92403 3.08391 7.34109
956 2 3.87662 7.76377 7.39425
957 2 0.788068 7.99165 2.97738
958 2 6.75113 0.17365 7.81136
959 2 5.32047 2.46676 4.49778
960 2 0.769952 2.81279 8.97869
961 2 9.07824 2.49034 7.03762
962 2 9.32744 3.06679 1.77207
963 2 7.73944 3.23349 3.68578
964 2 4.63657 8.44476 7.32242
965 2 5.28632 8.72778 6.66029
966 2 7.84854 4.338 1.91043
967 2 5.97242 3.47077 5.76379
968 2 6.31005 3.40643 7.71678
969 2 6.04219 5.23943 4.72063
970 2 7.46057 3.41141 1.79004
971 2 1.3278 2.50631 5.9454
972 2 8.51595 9.18417 3.30467
973 2 1.49545 8.64953 3.41757
974 2 4.81491 5.51707 4.33454
975 2 9.23546 1.78204 3.98467
976 2 8.44262 4.55181 7.89501
977 2 8.57749 6.18159 6.65969
978 2 2.66399 3.07146 6.51124
979 2 1.99673 8.81746 4.95375
980 2 0.362077 1.54553 4.73965
981 2 3.34769 3.48522 5.13381
982 2 3.93044 3.46406 1.82201
983 2 0.167647 1.65762 7.41641
984 2 8.69974 4.77591 2.39081
985 2 8.16415 2.23775 6.33399
986 2 7.23497 3.53814 7.55119
987 2 0.0201405 0.0478208 3.71249
988 2 2.9317 9.08943 6.24145
989 2 5.81634 2.54375 3.18557
990 2 3.75006 1.18557 6.3281
991 2 6.79202 0.629549 0.603825
992 2 3.72986 6.60346 2.39558
993 2 9.15953 5.111 8.32825
994 2 6.16931 7.94981 8.14384
995 2 3.78066 0.96505 0.802379
996 2 7.91676 5.15266 2.92894
997 2 5.00166 2.11305 7.53677
998 2 2.32314 6.902 7.91667