#bin. KALJ data file T=0.5

1000 atoms
2 atom types

0 9.4 xlo xhi
0 9.4 ylo yhi
0 9.4 zlo zhi

Masses

1 1.0
2 1.0

Atoms

1 1 5.18968 9.06897 6.29913
2 1 8.7497 2.53046 1.80487
3 1 5.33704 6.82148 1.70341
4 1 1.11407 9.02706 5.44238
5 1 7.19204 2.27859 4.57181
6 1 1.3553 7.89047 3.15688
7 1 8.81869 6.26815 4.7996
8 1 7.70998 2.77435 1.76092
9 1 0.874369 6.23893 1.1034
10 1 4.19246 5.13692 0.962155
11 1 8.36154 5.36661 8.93903
12 1 8.00079 5.40898 1.66354
13 1 6.89174 2.1434 8.47285
14 1 9.04528 7.04329 3.11227
15 1 2.6965 8.74228 1.64009
16 1 3.57329 1.91518 8.62734
17 1 3.182 8.00609 8.34295
18 1 4.24178 6.43575 8.30856
19 1 2.35767 2.22359 4.65459
20 1 4.68692 0.482328 1.85795
21 1 4.10895 5.58382 1.89132
22 1 5.04275 0.533546 5.82477
23 1 5.36656 1.00264 7.53522
24 1 2.10186 4.41057 4.47553
25 1 4.99 4.1474 6.28597
26 1 7.52594 8.88952 0.20651
27 1 0.174025 0.511698 1.06361
28 1 7.07218 3.87742 7.60417
29 1 6.88267 8.66324 5.14214
30 1 1.43469 6.94907 6.63504
31 1 1.85446 0.699819 2.61835
32 1 3.38504 0.753234 3.49611
33 1 3.86269 4.47388 1.75026
34 1 6.87831 1.41582 4.79812
35 1 6.08809 4.69362 5.57363
36 1 8.67491 4.08349 5.69125
37 1 3.58103 5.876 9.24674
38 1 1.34885 4.73555 2.17253
39 1 0.334913 4.9338 3.6867
40 1 6.13675 4.4201 2.86567
41 1 0.205486 1.59866 2.83185
42 1 7.30666 8.95477 8.10514
43 1 5.94505 8.72969 5.16817
44 1 8.82312 6.92769 7.70251
45 1 6.14655 4.60151 0.607205
46 1 4.73348 4.98184 0.300897
47 1 2.72689 6.17276 8.71262
48 1 6.83913 6.59638 3.50749
49 1 3.69629 2.52646 9.29274
50 1 7.50664 2.18323 5.52738
51 1 7.69943 6.3315 6.64512
52 1 8.87259 5.02662 4.63668
53 1 8.79374 0.742301 5.48238
54 1 0.985843 2.79591 0.186745
55 1 1.39523 5.97873 5.63858
56 1 3.53039 1.84597 2.40318
57 1 7.8954 7.60327 4.32501
58 1 8.56284 5.60812 5.62416
59 1 1.42119 7.26876 5.13568
60 1 7.84532 5.63558 7.44353
61 1 7.28598 3.07246 4.19787
62 1 8.30937 7.65434 7.33277
63 1 3.43823 5.55606 8.43037
64 1 2.2763 6.8984 6.27234
65 1 8.24637 0.523594 8.54374
66 1 0.449305 1.29188 3.96787
67 1 8.54726 5.39112 0.424538
68 1 4.42326 2.55081 3.10826
69 1 0.907291 3.59911 6.55206
70 1 7.88912 4.61777 1.12749
71 1 3.49872 5.73519 0.843483
72 1 7.94048 2.91489 6.51082
73 1 2.49477 4.879 3.72593
74 1 6.71709 0.615521 0.00962276
75 1 3.2731 7.01692 6.28276
76 1 8.40695 2.3584 3.32635
77 1 4.27168 7.96665 3.92726
78 1 4.06208 5.17173 9.0391
79 1 8.05155 8.51288 3.1455
80 1 1.15494 3.35831 4.90293
81 1 9.30665 7.00909 6.37664
82 1 2.43367 2.9154 7.77833
83 1 0.840715 2.41863 3.37987
84 1 7.08758 4.98783 1.49873
85 1 0.229474 7.41398 8.19055
86 1 8.13582 1.0472 1.1682
87 1 1.95387 8.58172 8.98536
88 1 1.99774 6.54009 1.31723
89 1 0.863009 5.24108 0.932479
90 1 5.05438 7.38409 6.50129
91 1 4.32116 1.02351 7.31755
92 1 4.68972 2.35563 0.298515
93 1 6.54137 4.73966 7.52342
94 1 6.98974 5.89198 4.50449
95 1 2.63139 4.30173 3.05465
96 1 1.81457 8.02082 4.81479
97 1 3.38199 3.44422 5.11229
98 1 6.16326 5.16991 1.41018
99 1 1.15064 1.67226 3.64612
100 1 4.85789 5.80466 5.46339
101 1 0.338879 1.41868 1.34288
102 1 5.16849 6.51667 8.25186
103 1 5.87867 2.66589 1.78284
104 1 7.42804 0.346372 1.79527
105 1 8.62091 7.55677 5.49761
106 1 2.10567 9.04556 0.525583
107 1 5.29615 8.82296 2.8105
108 1 6.3345 5.68637 2.38319
109 1 2.51254 7.19136 8.23058
110 1 2.84927 7.43863 9.24592
111 1 6.43347 1.26431 7.18846
112 1 0.540937 1.54716 7.84881
113 1 2.91228 7.8958 5.54551
114 1 8.75976 2.99685 4.16843
115 1 7.20191 1.00822 8.70538
116 1 0.598955 5.61611 7.0141
117 1 1.38237 7.44975 1.15539
118 1 6.76106 6.5804 5.77045
119 1 5.71229 0.572586 9.14892
120 1 9.04763 9.15175 8.68334
121 1 3.12345 4.01201 7.01452
122 1 4.28511 7.72716 7.19784
123 1 4.35999 2.11374 6.41184
124 1 1.41571 3.85876 1.77849
125 1 0.971343 3.61886 9.04576
126 1 6.16449 7.25095 7.99396
127 1 2.30034 9.07429 4.0111
128 1 7.16828 5.85306 1.82624
129 1 5.13193 9.09497 5.43789
130 1 6.17237 3.837 9.14716
131 1 5.77018 8.27575 8.04134
132 1 0.101573 8.03663 0.304103
133 1 1.23394 8.97125 9.3604
134 1 1.87627 2.13482 2.22471
135 1 3.91408 3.87934 4.4647
136 1 6.08125 2.43536 8.8934
137 1 0.853719 5.73008 3.75422
138 1 2.52211 7.01513 0.685564
139 1 6.50292 2.08874 4.03882
140 1 8.8795 1.10308 7.58059
141 1 3.98455 2.89165 4.80946
142 1 6.8942 7.3888 0.165961
143 1 1.16834 0.707977 4.06729
144 1 0.135254 2.12984 0.815291
145 1 0.84373 8.05783 2.44926
146 1 0.345058 0.977108 7.14665
147 1 5.98514 4.68312 8.85026
148 1 4.79493 5.83071 8.83004
149 1 5.08662 0.734569 2.49604
150 1 0.886052 1.07011 8.81948
151 1 0.931291 5.02507 9.33286
152 1 7.14673 4.53339 0.511961
153 1 1.66597 1.51121 3.00037
154 1 8.02694 6.48655 8.58914
155 1 6.02845 5.5671 5.65812
156 1 6.26448 0.525646 7.7392
157 1 2.45976 1.35864 2.15812
158 1 6.81642 5.73438 0.88855
159 1 9.13643 2.96688 1.15752
160 1 2.16762 0.142018 6.79955
161 1 1.68888 8.94577 8.25061
162 1 3.47834 9.24383 4.66463
163 1 8.37253 2.30324 5.84086
164 1 7.93001 7.25946 2.82032
165 1 8.61798 9.15472 3.83109
166 1 5.8729 5.54495 3.36123
167 1 0.152478 1.65438 9.00496
168 1 2.01007 7.01793 9.07677
169 1 8.95192 1.53096 3.56837
170 1 4.42769 1.70042 2.806
171 1 6.54714 0.230096 8.64719
172 1 6.16597 3.42756 2.72148
173 1 8.97323 7.19385 0.299334
174 1 1.75687 5.33297 9.34303
175 1 7.07601 3.36315 4.93385
176 1 2.21923 3.18691 2.14709
177 1 4.31345 1.236 8.28457
178 1 5.37932 6.65773 5.86716
179 1 5.13519 1.95075 3.50241
180 1 4.25655 8.72503 3.21532
181 1 9.273 5.08547 5.39684
182 1 8.03081 4.78422 5.61834
183 1 1.13924 9.32717 0.939081
184 1 8.39366 4.0298 7.32909
185 1 0.176273 6.8934 9.03815
186 1 7.92571 7.19581 5.11753
187 1 4.70394 0.136066 3.30047
188 1 8.60303 3.87 4.13978
189 1 6.98433 1.14978 5.81387
190 1 8.46873 6.94387 6.79069
191 1 1.8392 8.8744 4.83003
192 1 5.67284 1.3955 2.99978
193 1 6.80117 8.81723 8.96534
194 1 7.62728 8.33246 7.50192
195 1 5.12149 4.17857 7.9694
196 1 2.76373 8.99122 2.49269
197 1 1.33716 3.36162 1.04845
198 1 7.68541 1.5247 4.29168
199 1 2.80944 2.36872 0.636731
200 1 5.49764 3.72819 2.20922
201 1 8.20398 7.17766 0.995292
202 1 1.24327 3.04021 3.81872
203 1 4.70666 7.72625 8.06191
204 1 4.15116 3.63986 2.17938
205 1 6.38513 2.16598 0.916389
206 1 1.54349 1.32289 8.37744
207 1 3.39254 2.46155 6.26855
208 1 1.68788 2.43421 0.688767
209 1 4.48111 4.60758 4.30484
210 1 3.74934 8.68368 1.38833
211 1 1.99903 1.15715 5.7097
212 1 0.989527 1.24515 2.18921
213 1 1.69127 0.484822 0.52139
214 1 2.5735 4.17059 2.01142
215 1 5.38548 4.02621 8.75412
216 1 2.708 2.08279 2.83851
217 1 6.05798 7.55959 0.558304
218 1 8.01234 8.20347 1.35288
219 1 7.8304 6.24891 1.01389
220 1 3.61339 4.38771 0.12284
221 1 0.461554 3.78483 1.38738
222 1 6.19571 4.06255 8.12571
223 1 0.174086 5.48776 6.22937
224 1 2.51007 5.66247 0.834745
225 1 6.33306 7.38614 5.19509
226 1 0.973571 1.70606 0.370545
227 1 7.00468 7.9381 6.51833
228 1 0.405027 3.43728 0.419061
229 1 7.18282 3.42909 2.47641
230 1 8.14837 0.346567 6.77384
231 1 7.70319 1.95287 7.04334
232 1 5.15352 8.23746 6.34179
233 1 4.56528 7.41354 1.75565
234 1 0.144493 0.352545 8.95575
235 1 3.10658 8.90149 3.49021
236 1 6.96101 5.55435 7.02997
237 1 1.05418 2.07808 2.51455
238 1 3.81247 8.19574 5.12713
239 1 1.75748 2.39166 3.38281
240 1 5.56703 3.07585 7.67137
241 1 0.200007 8.63573 1.04354
242 1 5.45935 6.60855 0.433782
243 1 4.71821 4.40861 2.14217
244 1 1.79065 6.9888 4.1698
245 1 9.12139 0.567512 3.77699
246 1 3.48497 8.15938 3.13321
247 1 4.27209 4.61077 6.32107
248 1 7.58157 4.25131 2.11085
249 1 7.36358 4.59505 7.19731
250 1 6.36541 3.02842 3.96144
251 1 2.44368 1.56069 0.461489
252 1 2.98099 1.7908 7.1355
253 1 6.60616 3.0486 9.35875
254 1 5.5407 2.50141 4.17907
255 1 2.64887 0.382063 3.1363
256 1 3.51812 9.23792 8.75484
257 1 1.9095 5.04883 5.84367
258 1 7.95624 0.133289 7.78582
259 1 0.678472 6.01384 8.821
260 1 4.24074 7.01668 3.15345
261 1 4.73802 5.50751 4.47131
262 1 7.42048 2.78241 8.97133
263 1 3.63305 7.80405 2.06822
264 1 5.71151 0.25087 1.51917
265 1 8.69555 3.42312 6.65431
266 1 6.18625 6.20874 4.11098
267 1 4.26759 0.359103 8.66387
268 1 6.97568 4.31847 8.45986
269 1 5.94226 0.966097 4.76564
270 1 3.86359 7.17085 7.96058
271 1 1.28191 5.38935 8.29469
272 1 8.18722 2.55792 0.997294
273 1 2.29977 4.33057 6.10265
274 1 9.28695 5.09846 7.15395
275 1 5.01323 9.36701 9.09178
276 1 6.60679 4.4326 2.19858
277 1 6.41764 3.93561 4.27783
278 1 7.81189 6.50485 3.4265
279 1 9.20126 1.56248 1.95873
280 1 6.07859 1.61079 6.45317
281 1 4.72223 3.41698 7.36266
282 1 4.02603 9.21266 7.62096
283 1 0.177238 2.7486 9.26034
284 1 8.61874 8.71522 7.2986
285 1 1.26008 5.23922 6.59286
286 1 1.65309 4.44517 6.82921
287 1 8.10026 7.14492 9.32651
288 1 2.10876 8.51738 2.96345
289 1 7.1852 8.85029 6.02633
290 1 3.07798 1.13638 6.0929
291 1 6.33859 1.81742 1.93253
292 1 0.150128 6.12078 5.57071
293 1 4.65361 2.6707 2.21012
294 1 8.24082 7.99414 9.25733
295 1 3.35384 3.25233 0.0222847
296 1 5.39606 2.57251 1.02514
297 1 9.2764 0.787732 2.91007
298 1 9.26801 2.40924 3.52765
299 1 0.222434 2.57404 5.63655
300 1 7.37267 3.72882 1.26471
301 1 7.15789 8.1755 3.10617
302 1 9.23773 4.77979 0.61374
303 1 2.98175 9.15119 7.3559
304 1 5.14152 1.59332 5.65448
305 1 4.78873 8.69037 0.391968
306 1 5.41692 7.60843 8.51364
307 1 1.50806 2.9468 2.71021
308 1 4.53657 1.40552 1.65241
309 1 8.77905 1.00932 0.559363
310 1 7.7937 3.12692 3.43511
311 1 3.15657 9.14341 0.506707
312 1 8.07662 2.74105 4.7922
313 1 5.37402 7.69206 7.34048
314 1 4.48394 2.27923 1.32752
315 1 6.71448 1.87046 3.03105
316 1 4.79198 0.321656 7.80579
317 1 0.469093 8.6982 3.26765
318 1 8.99727 7.82423 8.99599
319 1 6.43518 5.23953 4.83195
320 1 2.77192 8.97353 8.22935
321 1 9.15645 3.29024 7.72721
322 1 2.03807 5.92393 3.99937
323 1 8.36324 3.6892 2.10027
324 1 2.9905 8.5688 9.08282
325 1 2.97352 5.85086 5.82548
326 1 3.3776 5.06425 2.39703
327 1 0.684817 2.3415 7.46178
328 1 4.6265 1.38142 0.693294
329 1 4.1088 1.27034 9.24383
330 1 0.828888 8.6914 4.5647
331 1 1.63869 1.68933 4.9655
332 1 9.35907 6.09123 3.03056
333 1 7.59995 3.97452 3.03945
334 1 0.707233 9.37097 2.41224
335 1 0.765085 6.08863 2.80671
336 1 5.52155 2.34697 6.4698
337 1 7.69843 4.7955 4.46192
338 1 6.67821 2.51937 2.29117
339 1 7.77745 0.246753 0.868329
340 1 4.22895 5.59047 7.75008
341 1 4.65536 4.18495 5.35204
342 1 6.67745 6.03984 8.9601
343 1 3.70209 1.88415 3.36362
344 1 0.388371 8.67154 6.96048
345 1 3.34407 6.3266 3.44772
346 1 1.6469 6.28558 2.3586
347 1 7.9716 0.433241 5.92497
348 1 3.51961 5.90564 4.92987
349 1 5.60588 6.80677 3.95424
350 1 5.57266 2.19624 0.153896
351 1 6.61782 7.9296 3.73704
352 1 9.00851 0.0773611 0.535364
353 1 0.970379 6.93717 8.54977
354 1 1.27841 9.11734 3.80503
355 1 3.32712 2.79158 1.20242
356 1 7.33405 7.43271 3.56909
357 1 4.5372 8.89032 4.69228
358 1 7.28348 0.384288 4.59101
359 1 6.0601 6.40796 2.99675
360 1 4.50871 5.87874 0.450669
361 1 0.577817 7.37275 0.568648
362 1 5.29748 5.14353 5.13837
363 1 9.05603 7.85307 1.45639
364 1 4.00296 7.54584 8.89532
365 1 1.61201 9.35922 6.15743
366 1 4.82552 0.662559 0.190432
367 1 3.93437 0.483843 0.179566
368 1 1.34302 3.95229 4.14653
369 1 5.89613 3.49991 0.987214
370 1 3.45741 3.15589 7.57938
371 1 3.57591 1.09188 1.8858
372 1 0.97069 6.79562 1.86174
373 1 1.42015 6.84357 0.35706
374 1 1.68835 6.8942 7.93382
375 1 7.45731 3.38045 5.82378
376 1 0.330157 8.7942 6.06415
377 1 5.2392 4.14749 0.386956
378 1 2.37595 3.79006 8.79212
379 1 7.03209 7.8358 4.80069
380 1 9.03856 8.08968 4.84815
381 1 8.59455 4.16786 2.90211
382 1 0.688546 0.425733 0.236591
383 1 4.7654 6.55444 7.35475
384 1 7.23544 8.90288 2.10863
385 1 9.37661 8.68062 7.88788
386 1 2.91301 2.70986 5.20864
387 1 7.01597 3.17218 6.96896
388 1 8.99735 6.16062 9.02742
389 1 1.36992 4.31665 8.42829
390 1 8.28659 1.70667 5.06851
391 1 4.00942 4.86353 8.18203
392 1 4.51664 4.41029 3.44775
393 1 8.80612 3.3045 3.34139
394 1 4.67956 6.58302 4.92367
395 1 3.22162 8.00072 1.02838
396 1 5.94831 7.24972 2.43685
397 1 0.326561 7.77188 6.72771
398 1 6.75948 7.35278 1.95362
399 1 0.588978 6.70281 5.07572
400 1 3.08669 1.04062 2.67588
401 1 6.58882 8.17567 2.31846
402 1 6.49549 0.0955126 1.23023
403 1 1.02768 4.16302 3.32997
404 1 5.96258 0.328658 5.44578
405 1 2.5276 7.63143 4.25334
406 1 2.26353 7.22313 5.06226
407 1 1.17087 0.69464 5.76191
408 1 0.540169 7.42978 3.18469
409 1 2.92971 5.85941 6.85225
410 1 4.3935 1.1389 5.48954
411 1 5.45303 2.03177 2.296
412 1 7.08033 7.26926 7.86517
413 1 6.24069 2.55526 4.77655
414 1 6.68179 4.00569 5.51414
415 1 8.95599 5.53653 2.04476
416 1 0.0961106 3.40329 5.95245
417 1 5.41479 8.35867 0.96383
418 1 8.72583 4.65795 3.63933
419 1 1.50052 8.91636 7.33934
420 1 5.09988 8.21368 5.15693
421 1 9.23909 4.9952 2.7564
422 1 7.76625 3.25867 8.23668
423 1 5.86445 2.5349 3.04177
424 1 9.22312 8.01539 3.19119
425 1 1.13828 8.1114 5.57225
426 1 3.09509 5.66346 3.95779
427 1 8.47536 5.47285 3.13446
428 1 6.29103 1.04373 8.51593
429 1 5.07773 5.0026 8.70085
430 1 2.03116 8.05892 1.19341
431 1 1.70175 5.63579 2.94987
432 1 5.94447 7.89725 1.6988
433 1 9.32536 2.57722 2.5282
434 1 2.37263 1.29049 7.80562
435 1 5.17388 1.30996 6.48012
436 1 8.89135 7.99339 2.4006
437 1 5.87528 4.999 6.58543
438 1 3.43603 0.518196 7.90045
439 1 8.91799 1.89145 0.134454
440 1 5.86861 3.22502 8.54634
441 1 3.75806 0.799453 4.60146
442 1 2.62452 0.502233 8.43715
443 1 0.530416 4.377 0.42495
444 1 6.29699 7.0683 1.30002
445 1 1.61772 2.26266 5.78449
446 1 4.34172 1.50249 3.75982
447 1 0.773245 6.27421 6.29038
448 1 3.86761 6.31939 1.49416
449 1 4.32929 8.90496 5.90067
450 1 2.6345 6.54635 2.34822
451 1 1.68732 9.29105 2.91669
452 1 9.30127 2.02463 4.29982
453 1 5.13787 3.58603 1.40999
454 1 4.69104 8.58998 7.09196
455 1 2.66906 0.0474134 4.95667
456 1 2.57471 0.255804 1.98723
457 1 4.50164 7.43476 0.358406
458 1 0.473089 7.63813 4.9321
459 1 5.10327 5.13082 6.10356
460 1 5.57652 6.93245 5.01594
461 1 0.610243 5.34415 4.5271
462 1 7.42264 0.128753 8.81392
463 1 4.23517 1.00501 6.4764
464 1 4.59683 2.50025 4.21127
465 1 5.45005 3.30979 6.89203
466 1 2.01946 0.200977 7.78353
467 1 0.456253 5.77279 1.98931
468 1 6.14264 8.00111 6.90715
469 1 3.0732 5.61947 1.69749
470 1 0.296457 0.903322 5.99276
471 1 3.24885 1.45295 0.198674
472 1 0.00574148 3.51674 8.85902
473 1 4.09527 7.96182 1.07842
474 1 0.29536 5.28401 7.98023
475 1 5.23353 8.36002 8.91968
476 1 8.87451 8.69449 9.38399
477 1 7.60526 7.35741 6.97502
478 1 6.45587 5.10446 3.98952
479 1 8.20947 2.91628 0.0345715
480 1 5.70837 3.51886 3.50698
481 1 0.611841 7.82872 1.54963
482 1 4.07758 4.10136 7.65049
483 1 3.54122 8.68273 2.29089
484 1 8.95539 9.27947 5.31133
485 1 1.51848 4.35174 5.1725
486 1 5.76932 1.58912 3.90772
487 1 0.786685 6.00982 7.91165
488 1 0.241828 7.00235 1.23661
489 1 0.671969 4.46189 4.46263
490 1 6.66232 0.223973 7.00465
491 1 8.18056 1.59347 1.86867
492 1 7.20237 6.34165 2.7461
493 1 4.55218 6.26569 2.2255
494 1 3.51232 2.77484 2.9718
495 1 2.95259 6.55054 1.48712
496 1 1.46668 1.51174 6.59792
497 1 6.12182 6.33975 8.29019
498 1 4.1221 4.1502 0.883525
499 1 0.995217 0.767028 1.23385
500 1 3.15177 4.14427 6.13769
501 1 1.78492 1.32792 9.24902
502 1 2.49043 9.36519 9.16255
503 1 9.18841 9.26623 1.7296
504 1 6.93712 2.68471 3.23573
505 1 6.27782 3.64286 6.99076
506 1 9.29469 6.48451 2.21099
507 1 0.265646 8.32584 8.78114
508 1 7.30206 2.65234 7.64684
509 1 2.50659 8.1984 7.53356
510 1 8.57507 3.1807 5.70143
511 1 2.44596 1.85276 5.39226
512 1 4.72894 4.8084 7.40929
513 1 1.69241 9.24159 2.03816
514 1 1.54923 3.09664 8.33174
515 1 6.08658 6.18238 1.63462
516 1 9.00024 7.21167 4.81671
517 1 3.80816 4.31325 2.90936
518 1 5.54511 0.405697 4.27716
519 1 0.322888 8.55202 5.27527
520 1 4.10236 6.5898 9.38659
521 1 6.10796 5.60856 7.49248
522 1 8.21114 0.308858 4.91911
523 1 6.397 3.56726 1.77239
524 1 6.66493 6.37273 7.48439
525 1 7.34949 8.23494 8.5903
526 1 8.80291 0.696292 1.68038
527 1 1.96782 5.92142 6.52046
528 1 8.9694 4.56597 9.15677
529 1 3.41169 0.965019 8.69676
530 1 8.74654 6.35907 3.66442
531 1 0.0678155 4.34448 7.7352
532 1 5.56999 1.36076 0.235762
533 1 2.92934 6.37614 0.224858
534 1 5.94771 8.81041 1.90879
535 1 0.78331 8.14524 7.74899
536 1 5.06757 5.80657 2.87102
537 1 5.5394 0.105912 8.32465
538 1 5.01376 8.87929 3.87221
539 1 6.58275 9.18505 0.38913
540 1 2.83542 9.04851 6.35291
541 1 9.31115 0.232884 8.01878
542 1 0.476618 6.9428 7.31679
543 1 0.666395 9.36514 7.45714
544 1 9.26374 7.35247 3.91687
545 1 3.77348 2.70396 1.97536
546 1 3.73815 2.65139 3.89728
547 1 0.67611 7.03832 4.27029
548 1 7.05938 7.43554 5.76485
549 1 3.65433 0.0119108 3.05998
550 1 6.10798 8.6417 3.75629
551 1 0.112587 7.35562 2.25962
552 1 8.62215 7.89339 0.647711
553 1 5.13614 0.984465 3.75117
554 1 8.81245 4.01074 8.30673
555 1 3.46545 7.92618 7.00133
556 1 1.77696 0.886319 7.30936
557 1 4.62551 3.68887 8.40334
558 1 2.3434 3.74364 0.963915
559 1 5.60452 4.8856 7.8121
560 1 2.72163 8.00431 2.50535
561 1 7.57568 9.24271 3.14123
562 1 6.06733 2.28811 7.08494
563 1 5.96931 3.00985 6.12599
564 1 2.52833 2.42731 6.0298
565 1 2.0033 2.91346 5.43049
566 1 3.77431 6.2831 5.82046
567 1 8.83288 5.81772 7.91255
568 1 9.03208 3.90927 0.985668
569 1 5.06855 9.09355 1.6426
570 1 3.24506 3.59546 0.838799
571 1 8.64186 6.45101 5.93509
572 1 6.93758 4.98371 3.02413
573 1 1.88113 7.75184 8.51519
574 1 6.6515 8.06775 7.72039
575 1 8.19901 2.91302 2.69117
576 1 2.3642 0.238779 1.16216
577 1 6.96524 4.36538 3.812
578 1 1.77233 1.07872 1.68985
579 1 2.88679 2.1521 8.01979
580 1 0.827425 5.21913 5.65764
581 1 3.78533 2.39652 7.038
582 1 7.81194 4.41925 7.92451
583 1 4.46204 2.3677 5.42731
584 1 6.09272 5.42958 0.164266
585 1 2.27537 2.24122 6.87997
586 1 4.96841 7.50155 4.293
587 1 0.218981 0.729493 1.96642
588 1 2.84891 6.60132 5.34773
589 1 7.2189 1.64796 2.16757
590 1 3.2511 7.55094 4.76294
591 1 4.24958 0.197602 5.21575
592 1 1.84053 7.13642 1.9833
593 1 1.6099 6.5519 3.29486
594 1 2.94561 5.10227 6.36409
595 1 0.378512 2.73136 6.69522
596 1 8.40635 6.40151 2.51548
597 1 8.7278 2.43822 6.78144
598 1 3.6468 7.19552 1.31393
599 1 2.77937 7.4641 1.72767
600 1 3.95048 3.58153 6.80052
601 1 6.53752 0.913455 4.02757
602 1 7.36642 0.774234 2.69623
603 1 2.78539 0.643773 0.425127
604 1 5.43435 5.77997 6.80663
605 1 7.89658 1.3763 6.17272
606 1 4.80933 5.99587 1.30852
607 1 3.4906 0.613386 5.48868
608 1 2.42504 5.16353 2.69608
609 1 7.53204 5.71986 9.15505
610 1 5.9278 7.98889 4.49233
611 1 6.50235 8.92242 2.94685
612 1 2.71803 4.85147 5.10251
613 1 2.02931 3.88191 3.63389
614 1 2.78998 5.23852 9.33406
615 1 8.64253 6.28517 1.58373
616 1 5.91304 8.18262 2.9486
617 1 2.54436 6.67604 3.75166
618 1 8.41478 0.422529 3.06702
619 1 8.74991 7.84307 6.53423
620 1 1.73996 3.22065 9.34514
621 1 7.2857 7.06175 1.14622
622 1 5.82375 5.54689 8.60555
623 1 4.96991 6.20234 3.7278
624 1 5.50078 2.5346 5.51675
625 1 0.0604675 3.9972 6.90747
626 1 6.45699 1.41651 9.34981
627 1 4.69181 3.3245 9.24254
628 1 5.14392 0.562363 1.0511
629 1 0.732377 2.76644 1.08497
630 1 7.39537 0.87396 6.7232
631 1 9.12328 5.54563 3.78804
632 1 2.89021 3.31828 5.96371
633 1 4.10204 0.824602 2.61715
634 1 3.47933 8.41688 4.11249
635 1 0.983834 8.60364 1.62154
636 1 4.19502 0.813939 1.21865
637 1 4.51557 1.91387 8.84514
638 1 5.00021 6.88597 9.1101
639 1 6.61213 1.10468 1.23041
640 1 7.09796 6.92521 4.82214
641 1 8.74278 9.23554 6.21798
642 1 5.06629 0.539664 4.94014
643 1 5.26047 5.12418 1.36477
644 1 3.22307 7.20568 2.85126
645 1 3.1909 3.71156 2.55588
646 1 0.0806186 8.58292 2.41191
647 1 0.140798 6.47581 0.426631
648 1 8.62863 1.01105 9.10133
649 1 0.91465 1.69179 5.70295
650 1 2.55959 1.50097 8.71219
651 1 0.506033 2.03099 4.9898
652 1 2.98994 4.17706 4.44716
653 1 6.52779 0.915469 2.12416
654 1 4.16053 5.25854 5.24304
655 1 2.23327 5.76808 1.96349
656 1 4.84954 8.75581 8.19346
657 1 4.32961 6.94413 6.31185
658 1 0.265046 0.10955 6.54277
659 1 5.07459 1.42974 4.56459
660 1 8.52211 2.73179 7.60272
661 1 4.23682 2.30165 7.87049
662 1 5.2356 7.83225 2.46757
663 1 7.12196 6.84746 8.89451
664 1 2.64661 4.14392 0.138404
665 1 9.28033 1.993 7.35828
666 1 3.17714 1.53469 4.04397
667 1 4.93517 3.38922 2.93874
668 1 1.52581 7.60652 7.37608
669 1 5.71174 4.73222 2.07816
670 1 7.29022 6.16096 8.14771
671 1 3.71366 4.46474 3.78614
672 1 5.57034 1.6807 8.66886
673 1 2.05696 3.67209 7.02271
674 1 0.740735 2.95249 2.19995
675 1 4.09901 5.79183 3.23442
676 1 3.5041 3.50102 1.64911
677 1 0.992545 6.12911 0.237372
678 1 2.01618 2.11193 8.1569
679 1 0.44061 0.260486 3.26406
680 1 3.61223 4.82947 4.63822
681 1 0.295743 1.16529 0.357159
682 1 3.68104 4.92681 7.0713
683 1 0.450537 2.70233 8.309
684 1 7.02217 2.07662 6.46807
685 1 4.20846 3.3779 3.48792
686 1 4.07155 5.43785 6.1317
687 1 7.53801 7.90374 0.66823
688 1 1.41916 3.81175 7.70697
689 1 8.20669 6.16113 0.00678746
690 1 7.63793 5.15261 8.36535
691 1 5.64224 9.26351 0.579325
692 1 1.77183 3.93473 2.66959
693 1 8.23924 8.66809 4.87373
694 1 6.3089 8.55621 1.06713
695 1 7.9287 8.31116 6.60784
696 1 7.00989 5.56995 5.37473
697 1 0.874897 7.29652 5.88177
698 1 8.52377 1.56752 6.85974
699 1 2.59871 4.73014 7.07307
700 1 3.37903 3.57597 3.51838
701 1 4.17966 8.00397 6.07464
702 1 6.16766 0.669182 6.42452
703 1 7.10913 8.15172 1.5832
704 1 5.3886 4.31949 4.72364
705 1 7.36173 8.94173 1.13473
706 1 2.71168 0.963666 4.95904
707 1 6.64682 7.11704 7.01074
708 1 0.0457417 1.79147 6.46255
709 1 3.98918 6.06424 6.89207
710 1 1.14614 6.18945 4.51209
711 1 2.35882 4.91977 1.70267
712 1 2.24705 4.16492 7.90396
713 1 6.05611 7.33419 3.44866
714 1 6.78773 9.37656 3.77598
715 1 7.75013 9.10967 4.04392
716 1 6.8879 5.06971 9.01327
717 1 6.72073 8.27681 0.31015
718 1 5.38466 1.6235 1.33494
719 1 4.11765 7.29742 4.64804
720 1 8.46392 8.84399 0.845132
721 1 8.34246 7.14578 3.78813
722 1 6.71827 5.78909 3.32664
723 1 5.49915 0.271906 7.06901
724 1 6.83369 3.53664 3.34687
725 1 6.04463 4.02721 6.1893
726 1 5.63471 8.75793 7.06867
727 1 2.26606 1.02415 6.5429
728 1 8.19924 3.65359 4.90824
729 1 7.56472 2.07814 3.56896
730 1 5.20437 6.85597 2.90133
731 1 8.41548 5.67748 6.66408
732 1 7.71546 1.07645 5.15856
733 1 6.68766 5.54474 8.13048
734 1 7.39704 6.61938 0.306362
735 1 6.395 6.45808 0.404964
736 1 4.42719 4.37284 8.8723
737 1 8.49727 4.35342 0.498067
738 1 1.0768 8.28707 0.550429
739 1 7.64378 1.86559 8.95713
740 1 1.13421 7.80405 4.10603
741 1 5.65384 6.77376 6.95395
742 1 0.654817 4.10013 5.2975
743 1 8.13051 0.772386 2.20079
744 1 6.01532 6.26173 6.22547
745 1 1.52968 6.12437 8.94515
746 1 5.31112 7.54175 5.66019
747 1 7.79622 6.35197 5.45047
748 1 1.38066 2.94957 7.20734
749 1 8.75257 0.745694 6.38597
750 1 2.20455 8.65568 6.73436
751 1 8.61941 7.08981 1.99779
752 1 1.95635 5.96577 8.08907
753 1 8.86701 1.76953 1.16717
754 1 1.70615 3.64297 5.75899
755 1 9.24865 4.43762 2.03719
756 1 1.70224 0.427918 8.88189
757 1 2.65183 2.36128 3.78006
758 1 8.93226 0.188793 7.14834
759 1 9.1003 4.18282 4.92253
760 1 1.33619 6.11308 7.20396
761 1 6.24123 9.09112 6.40415
762 1 1.27636 7.07775 2.71274
763 1 3.06949 6.61079 4.47306
764 1 3.27568 4.86148 1.11603
765 1 7.75504 3.47481 7.23691
766 1 4.59751 0.418653 4.19648
767 1 7.55376 2.37911 2.61019
768 1 8.60664 4.79434 1.49001
769 1 7.96133 6.6236 7.50299
770 1 2.03492 2.19431 9.16921
771 1 5.70105 1.8944 4.86892
772 1 4.47389 0.174823 6.8952
773 1 8.74883 7.06373 8.71424
774 1 0.841049 5.1044 2.82439
775 1 7.90527 2.35772 8.20282
776 1 1.12037 4.29121 6.12386
777 1 6.93323 8.57465 4.21531
778 1 8.8805 2.5504 5.05464
779 1 2.28216 8.51927 5.67634
780 1 0.329503 8.96539 0.204248
781 1 0.732187 3.89127 2.4365
782 1 1.49559 2.76634 1.73885
783 1 0.287545 4.48746 6.18411
784 1 7.82671 6.42894 4.36878
785 1 1.4632 4.42894 0.959349
786 1 2.72995 5.23807 7.86381
787 1 8.74904 8.16626 8.19657
788 1 1.98638 5.32402 7.27238
789 1 4.84459 3.10793 4.949
790 1 3.62556 3.80004 8.6297
791 1 3.34142 9.13314 5.67605
792 1 5.19167 7.37832 1.02649
793 1 8.25877 8.76834 8.74938
794 1 7.95075 4.11262 6.55826
795 1 4.27513 9.38026 0.909151
796 1 8.19667 9.3957 1.66905
797 1 1.44227 2.2771 4.27537
798 1 8.37557 2.13612 4.23705
799 1 1.00685 3.03603 5.77294
800 1 3.69767 4.56855 5.61468
801 2 6.13213 7.17915 6.31138
802 2 4.16231 1.65906 4.6937
803 2 5.23342 5.71996 2.06613
804 2 0.184371 5.58357 0.335141
805 2 3.56365 7.05557 5.42542
806 2 2.43041 0.416837 5.69888
807 2 2.15664 5.07452 8.48093
808 2 7.26536 2.62176 0.634119
809 2 8.6986 3.01741 8.49742
810 2 8.56552 1.03384 4.47869
811 2 8.86749 3.56548 0.183323
812 2 1.04361 2.22014 8.87366
813 2 6.87507 4.11391 6.41595
814 2 0.264055 0.50933 4.77293
815 2 8.03847 0.612094 3.82962
816 2 7.69491 4.53378 9.1286
817 2 3.61485 6.106 2.39081
818 2 7.68996 5.10392 6.51461
819 2 3.38088 8.30841 6.16673
820 2 5.36808 3.53284 5.61617
821 2 7.16456 5.8289 6.2213
822 2 3.74842 6.87108 7.08383
823 2 0.0764711 4.09796 2.94914
824 2 9.00641 8.9821 3.04659
825 2 9.25899 1.72164 5.60768
826 2 6.01703 1.82702 7.87026
827 2 9.38024 5.36007 8.89151
828 2 2.60883 5.79507 4.69753
829 2 8.07031 1.61687 0.435248
830 2 5.40055 7.49958 0.0514916
831 2 5.33804 4.22383 7.03685
832 2 0.522173 3.70834 8.17238
833 2 3.95473 8.20345 7.93883
834 2 1.73039 4.65081 3.0489
835 2 1.62965 1.47306 0.902084
836 2 3.92562 9.27111 3.85675
837 2 3.80656 6.8979 2.21779
838 2 5.18006 7.63553 3.41526
839 2 2.7863 8.43169 4.71473
840 2 2.4836 3.61796 5.0486
841 2 2.85684 0.797465 7.20337
842 2 2.44028 1.26415 3.44118
843 2 4.39877 6.74119 0.980529
844 2 8.74613 8.06584 3.93159
845 2 1.96721 8.15442 3.77079
846 2 4.83352 5.15098 3.50218
847 2 2.83028 2.57633 2.03267
848 2 4.7439 6.18021 6.28878
849 2 0.609454 3.41122 7.36193
850 2 3.22569 4.51682 8.73732
851 2 9.38361 1.13074 8.39316
852 2 7.97882 7.26766 8.24002
853 2 6.92902 1.36551 7.92056
854 2 3.6131 1.46706 7.62898
855 2 2.2954 2.02164 1.40176
856 2 1.88565 0.412164 3.63864
857 2 4.29225 9.10414 2.02958
858 2 3.74344 8.82942 6.8269
859 2 4.81294 2.5213 7.16083
860 2 7.89736 8.29029 5.58165
861 2 4.34796 5.00702 2.77614
862 2 5.1332 2.68187 8.57535
863 2 7.68517 3.83129 4.16361
864 2 6.26231 7.86755 8.87307
865 2 2.52309 3.1785 0.326503
866 2 4.60625 5.48828 6.89964
867 2 1.9228 6.14475 0.361047
868 2 5.20371 5.74362 7.74523
869 2 8.55525 8.62147 1.92031
870 2 3.18588 4.48975 7.79894
871 2 6.72428 5.02721 6.11341
872 2 8.29403 0.0616793 0.017545
873 2 3.71747 2.87592 8.44523
874 2 0.946521 7.71125 9.14884
875 2 1.33379 4.91513 3.89842
876 2 0.150263 3.31589 5.02481
877 2 0.53314 2.91637 4.27889
878 2 7.99372 1.07506 7.73172
879 2 0.226352 7.8357 5.80274
880 2 8.27624 4.84073 2.30703
881 2 4.36785 7.78121 2.843
882 2 7.82995 5.63202 3.85484
883 2 5.41492 6.11168 4.75505
884 2 1.89779 0.42201 4.66154
885 2 7.68092 5.42421 0.713155
886 2 9.25964 3.46385 2.30319
887 2 0.604367 2.17393 1.77122
888 2 9.22721 7.91217 7.47247
889 2 0.535888 4.64111 1.41555
890 2 4.97423 0.875891 8.75239
891 2 6.34952 8.13225 5.75598
892 2 5.90593 3.39859 4.84879
893 2 1.92474 3.02641 4.33773
894 2 7.2388 3.73248 9.04526
895 2 4.14271 3.12574 0.987461
896 2 6.40388 9.34935 4.60583
897 2 6.6338 1.95012 5.44926
898 2 7.84877 0.892256 9.35393
899 2 2.60395 2.84168 8.90508
900 2 8.10596 5.58467 4.77062
901 2 1.89861 6.38187 5.06814
902 2 7.48843 4.15698 5.13981
903 2 2.80778 0.678381 4.13166
904 2 5.63221 5.18248 4.17302
905 2 4.4885 7.34678 5.49573
906 2 7.48906 9.16351 7.0224
907 2 7.88629 7.05597 6.18011
908 2 2.38495 3.25465 3.02443
909 2 4.27104 8.52724 8.89409
910 2 8.31771 3.37728 1.24083
911 2 7.70757 9.16185 5.38881
912 2 0.473973 6.5682 3.5718
913 2 2.60574 1.17695 1.27557
914 2 1.67071 4.28676 0.0439474
915 2 5.86202 0.142755 3.3527
916 2 0.284347 6.2225 4.32664
917 2 1.15919 0.43253 6.775
918 2 2.44184 4.66134 0.870542
919 2 3.07986 7.29888 7.55493
920 2 3.39245 1.86034 1.47902
921 2 1.6474 5.72654 1.15409
922 2 0.915953 9.35734 8.48893
923 2 3.41948 7.21375 3.86421
924 2 5.16313 2.08418 7.94886
925 2 0.479681 3.73233 3.92882
926 2 6.33836 8.86142 7.62222
927 2 1.63142 8.21223 2.07115
928 2 8.3056 1.42048 2.76219
929 2 9.17728 6.2594 6.8677
930 2 6.54878 4.29455 1.33455
931 2 9.24938 9.02216 4.44355
932 2 3.30915 5.25591 3.27051
933 2 3.97079 6.38035 4.27543
934 2 1.00772 0.706377 7.98177
935 2 6.10139 0.676326 0.533382
936 2 8.73704 4.85065 6.24182
937 2 1.87433 1.24977 4.19475
938 2 8.78617 4.97016 8.16683
939 2 2.53588 5.92063 3.23606
940 2 1.07145 0.814034 3.11876
941 2 3.61552 0.399683 6.44273
942 2 6.84506 3.35033 8.33811
943 2 5.36787 5.64822 0.677193
944 2 1.92397 7.58352 5.91036
945 2 1.80321 5.22804 4.95317
946 2 3.40915 1.56853 5.35954
947 2 7.69029 8.13877 2.35517
948 2 6.78634 2.76981 5.81301
949 2 5.90579 0.168291 2.40451
950 2 0.298 8.20446 4.01806
951 2 5.64136 4.37261 3.74899
952 2 3.4256 6.22191 7.9557
953 2 7.25533 1.17732 3.51438
954 2 8.88852 8.49167 5.64475
955 2 7.09394 0.501747 7.78098
956 2 6.77352 2.80578 1.37288
957 2 1.26869 8.46771 6.51362
958 2 0.56219 3.29963 3.19037
959 2 0.5023 4.48338 8.73748
960 2 0.815651 4.2417 7.21413
961 2 5.91722 1.1921 5.56971
962 2 7.81984 3.62496 0.461287
963 2 7.58124 5.60882 2.78983
964 2 1.36356 4.89601 7.69018
965 2 1.80843 7.86075 0.0160905
966 2 9.37231 6.52954 8.16871
967 2 8.75921 6.25402 0.616327
968 2 6.35877 6.16487 5.098
969 2 1.06117 2.2951 6.55048
970 2 2.7997 3.00648 6.95401
971 2 5.2787 4.36225 2.95056
972 2 4.91596 3.47712 4.13476
973 2 8.12281 3.76563 8.94539
974 2 6.70292 3.74784 0.640496
975 2 3.42524 6.7877 8.79151
976 2 2.43096 7.64588 6.67641
977 2 8.38207 1.6306 8.31943
978 2 5.57143 3.21935 0.0904919
979 2 3.85967 1.90662 0.636548
980 2 7.72635 7.31644 1.80648
981 2 1.8061 2.9403 6.45851
982 2 5.71349 6.46488 9.04951
983 2 2.31153 6.64028 7.40905
984 2 2.16989 7.38789 3.2363
985 2 3.39989 0.304133 1.52521
986 2 3.67579 8.07185 0.172402
987 2 2.32799 2.83489 1.26336
988 2 2.8443 3.30147 4.22627
989 2 6.94657 0.219769 5.40986
990 2 5.90388 8.82645 9.2251
991 2 7.40877 1.78259 1.06495
992 2 6.34704 7.18403 4.35096
993 2 3.93001 8.97077 0.185766
994 2 9.16065 5.59421 1.11591
995 2 7.78251 4.79469 3.27104
996 2 4.01615 3.77107 5.86752
997 2 4.8579 2.912 6.13592
998 2 6.53161 0.697597 3.04582