#bin. KALJ data file T=0.5

1000 atoms
2 atom types

0 9.4 xlo xhi
0 9.4 ylo yhi
0 9.4 zlo zhi

Masses

1 1.0
2 1.0

Atoms

1 1 6.4355 9.40714 0.994223
2 1 7.70127 7.37033 5.15984
3 1 1.9971 2.64484 9.08492
4 1 0.642864 4.78242 5.86048
5 1 6.23176 3.41846 7.2011
6 1 2.62312 4.29458 0.156375
7 1 8.07354 4.6363 6.87579
8 1 6.51641 8.56369 6.09472
9 1 2.76948 5.29065 7.32074
10 1 5.53608 9.23848 6.64101
11 1 2.22745 0.559774 6.39818
12 1 9.18103 2.92497 9.39312
13 1 3.51456 1.10612 8.65514
14 1 4.38558 8.35268 8.5073
15 1 1.81119 4.45552 1.75799
16 1 0.768926 8.77498 5.79404
17 1 7.17795 9.37416 1.67731
18 1 6.8935 9.03194 2.61692
19 1 6.59166 7.23525 2.90389
20 1 4.81999 6.26549 4.19079
21 1 8.22559 7.0283 1.35799
22 1 5.36775 2.43381 3.11822
23 1 3.56621 3.48857 6.3086
24 1 3.04007 6.00064 2.26796
25 1 1.14439 4.11321 0.914564
26 1 9.22927 7.82933 7.85002
27 1 6.87108 8.39165 0.443358
28 1 3.82707 6.83619 7.80376
29 1 1.7042 6.97575 8.68317
30 1 3.87572 6.23462 9.35882
31 1 0.565263 3.10716 6.06156
32 1 7.75791 7.53511 1.9882
33 1 7.27019 7.65409 1.0726
34 1 4.86571 5.77129 1.70961
35 1 6.26418 8.70037 3.3665
36 1 9.01794 1.10743 3.80251
37 1 2.51667 8.77376 0.912032
38 1 1.90298 7.92457 3.10256
39 1 8.7725 3.20441 1.01077
40 1 1.75031 7.17665 5.63334
41 1 2.06377 2.44084 7.57411
42 1 2.81712 2.13285 2.11465
43 1 0.615091 6.12428 2.87638
44 1 1.2757 5.0378 8.81119
45 1 2.992 0.404208 2.91876
46 1 9.3931 6.88331 4.16985
47 1 4.5112 5.3177 4.266
48 1 1.04093 7.5295 7.51334
49 1 2.37327 0.196499 8.50479
50 1 0.138484 7.04921 2.24158
51 1 6.791 4.71659 8.77989
52 1 3.1185 4.45709 4.29243
53 1 7.90865 4.43266 2.23054
54 1 4.15066 1.31183 1.00565
55 1 1.43482 1.21471 1.40713
56 1 3.91119 0.199702 7.35953
57 1 9.28118 8.31486 6.31775
58 1 7.32903 3.91671 0.00818645
59 1 7.92901 8.62387 0.33139
60 1 4.63624 8.11767 4.10922
61 1 8.29435 1.64904 0.189899
62 1 0.568134 6.90694 7.31087
63 1 3.04147 5.43289 1.03078
64 1 7.22145 3.98756 8.3027
65 1 8.68616 0.0365639 3.94876
66 1 5.28205 9.35582 0.504785
67 1 7.33277 1.50911 3.06279
68 1 4.11212 7.0197 9.25978
69 1 5.85135 3.42002 0.706289
70 1 0.811581 8.982 4.80705
71 1 2.13854 4.72284 3.46079
72 1 3.56697 4.35926 5.07918
73 1 8.55315 5.5881 9.28946
74 1 2.21095 0.291015 1.32787
75 1 8.47458 7.21494 2.52148
76 1 2.9541 8.26173 6.48485
77 1 7.43735 2.74811 6.68063
78 1 1.82717 3.61352 9.17995
79 1 2.78194 7.59322 4.15692
80 1 0.112073 6.82116 5.78569
81 1 0.468711 4.55441 3.07014
82 1 7.14676 2.00529 3.99494
83 1 7.71789 2.22794 7.35915
84 1 1.85632 6.73119 7.22731
85 1 6.71226 5.25652 5.81921
86 1 3.14339 1.02104 1.25282
87 1 5.90443 1.97031 1.33335
88 1 2.24744 3.12343 7.00391
89 1 3.00122 0.528856 3.96606
90 1 4.96963 1.70482 4.68852
91 1 9.32685 3.6825 8.90336
92 1 6.97373 8.08184 7.11462
93 1 4.61934 7.95732 6.58741
94 1 1.36092 3.40019 7.60688
95 1 0.00295323 9.0568 0.707438
96 1 3.04503 0.338923 1.77019
97 1 6.98134 1.06061 6.01157
98 1 2.50989 0.300184 7.56375
99 1 6.11987 4.39806 5.48759
100 1 0.289773 4.26552 3.94259
101 1 8.33063 7.66361 0.791347
102 1 8.57666 2.26602 1.99347
103 1 1.66544 2.348 3.1725
104 1 1.98155 4.85307 5.4552
105 1 2.38597 2.77029 2.71272
106 1 2.12872 8.90976 7.00377
107 1 7.4966 8.02007 9.12369
108 1 0.406206 2.68219 3.2724
109 1 2.36633 5.35499 8.15769
110 1 6.70727 4.23407 1.71652
111 1 5.0081 9.31824 5.60268
112 1 9.14762 3.1879 5.50911
113 1 3.16751 6.90533 3.68319
114 1 8.3093 8.85789 4.70281
115 1 1.06042 4.22869 7.5116
116 1 8.66024 5.52602 6.43714
117 1 6.12776 4.41613 6.47432
118 1 6.32918 8.66072 5.15001
119 1 4.37231 3.84108 1.49347
120 1 6.114 3.98574 2.39372
121 1 2.549 1.11791 7.0678
122 1 2.11567 3.60192 8.13458
123 1 3.01658 4.40174 2.05635
124 1 1.02027 1.48866 0.69659
125 1 6.62906 3.71518 5.68218
126 1 2.9327 8.96058 4.20887
127 1 7.08163 7.89156 8.0711
128 1 3.52763 7.36842 0.748407
129 1 7.87034 5.21368 3.34793
130 1 6.89512 4.39157 5.08847
131 1 1.06951 7.32852 0.347349
132 1 7.49983 5.77478 5.24848
133 1 5.50421 6.36116 6.84041
134 1 8.79276 7.54628 5.54109
135 1 7.20384 1.75702 2.25395
136 1 0.137668 5.47407 3.16195
137 1 0.393252 2.39023 8.78619
138 1 4.1982 5.00501 1.89974
139 1 7.13959 5.49723 1.91097
140 1 4.63457 7.77741 9.31193
141 1 5.25632 6.73535 8.5061
142 1 6.15115 0.935317 4.54735
143 1 4.56089 2.50079 8.40411
144 1 7.92347 7.08907 4.31856
145 1 7.83334 9.02394 2.34408
146 1 2.07423 2.31458 4.48619
147 1 5.16631 2.71336 5.01944
148 1 3.62876 8.60832 7.92818
149 1 0.112986 2.28891 7.85587
150 1 0.951849 5.15668 7.97838
151 1 8.0095 1.58889 4.86297
152 1 6.0173 0.0289769 4.77763
153 1 4.14601 6.89303 5.47451
154 1 2.43353 2.76924 1.47221
155 1 4.74294 4.37836 0.77347
156 1 2.80998 6.38462 6.118
157 1 6.90956 0.113114 5.64208
158 1 7.62901 9.42916 5.18408
159 1 1.46677 5.63784 0.253406
160 1 2.73981 6.404 7.20998
161 1 3.94079 9.32518 6.47246
162 1 1.04983 2.41374 7.68525
163 1 0.114509 9.18389 4.17501
164 1 2.74128 2.19234 6.95357
165 1 1.07269 2.2998 4.34888
166 1 2.96793 3.13644 3.34075
167 1 0.3547 5.45125 5.43285
168 1 5.85297 2.77593 5.89372
169 1 6.10251 2.03251 7.28733
170 1 3.55721 3.87138 9.34365
171 1 3.49722 7.65927 8.26504
172 1 0.0454708 6.99266 0.5603
173 1 9.4016 9.12397 9.15552
174 1 7.20783 8.29145 1.81624
175 1 3.1699 1.85443 4.40668
176 1 5.38326 8.99701 7.81778
177 1 6.21382 5.22856 5.06992
178 1 0.354485 1.0325 2.84454
179 1 4.68437 4.91445 6.87608
180 1 8.49545 8.39573 8.15523
181 1 9.1981 5.16425 8.96074
182 1 6.68987 6.34099 3.42721
183 1 8.28202 0.419938 4.7086
184 1 6.39445 0.852293 1.24618
185 1 2.16229 8.01447 1.2987
186 1 1.09264 0.0117325 1.05698
187 1 7.43321 8.72814 5.82139
188 1 1.74573 4.69477 7.95955
189 1 4.30108 5.11474 7.98185
190 1 5.34491 4.62897 2.88343
191 1 5.40282 6.41795 2.01303
192 1 1.09473 6.32172 2.06063
193 1 3.53874 2.84611 8.88531
194 1 5.51529 0.239879 1.3761
195 1 5.69604 0.623069 6.24278
196 1 0.204755 2.53648 1.55198
197 1 5.7356 7.56454 9.12426
198 1 6.066 8.44397 6.96666
199 1 0.362907 2.29471 0.442548
200 1 8.3192 7.41137 7.82329
201 1 0.391046 1.64244 1.24643
202 1 7.39262 2.35038 5.11175
203 1 9.18878 4.4491 0.179382
204 1 1.42407 7.54915 2.04575
205 1 8.72848 6.34957 1.79059
206 1 1.47256 0.0511987 8.52741
207 1 6.37479 5.31835 3.07642
208 1 4.26446 1.61451 2.50363
209 1 6.49163 5.20155 0.248378
210 1 7.98225 6.36084 6.05957
211 1 6.35406 8.13817 2.11183
212 1 7.68515 8.43547 7.5763
213 1 1.09319 1.44323 4.92872
214 1 4.25737 6.53893 1.60679
215 1 2.79535 7.96405 0.504869
216 1 6.78445 7.34414 1.97655
217 1 3.5363 3.61211 4.14734
218 1 1.34636 3.98757 8.35427
219 1 3.99457 2.71232 3.34448
220 1 6.26137 1.69843 6.13405
221 1 3.46073 1.71902 2.70478
222 1 2.70844 1.0538 2.31776
223 1 5.36342 3.4426 4.51592
224 1 6.65411 4.4099 4.15011
225 1 3.72814 0.787157 2.29553
226 1 5.97333 8.4352 0.0362259
227 1 0.634363 5.81735 8.52598
228 1 3.0453 3.7849 1.13285
229 1 4.97571 6.5014 0.982021
230 1 8.04104 5.75965 4.19378
231 1 7.78441 9.29135 9.00976
232 1 4.52925 7.44622 8.53307
233 1 1.94038 7.85634 8.9858
234 1 1.60086 3.19284 1.36884
235 1 2.96671 0.126103 6.65689
236 1 3.78349 2.24828 1.20356
237 1 2.41525 6.88721 2.07907
238 1 4.8052 6.01088 3.23033
239 1 0.602491 6.83598 3.41399
240 1 6.94597 6.57247 0.568629
241 1 1.18082 8.06013 5.08618
242 1 9.02155 1.98705 3.3162
243 1 5.80571 5.42004 7.5827
244 1 6.86733 4.72818 2.51344
245 1 7.67581 6.54902 3.64958
246 1 4.75596 2.29712 3.90693
247 1 7.84097 2.99454 0.103271
248 1 6.53318 3.74111 0.200252
249 1 6.93891 7.99956 5.50816
250 1 7.13601 2.73854 1.93648
251 1 3.23474 4.29921 5.94823
252 1 2.81158 7.54871 3.03206
253 1 0.790848 0.767946 8.79649
254 1 2.22292 6.42662 3.66839
255 1 6.61751 9.14056 0.0310507
256 1 5.60555 5.6883 1.17302
257 1 0.546669 6.73442 8.93025
258 1 1.60916 5.6834 7.81043
259 1 5.3634 3.02838 8.61858
260 1 0.300923 2.76561 6.93102
261 1 7.4303 2.59277 3.33469
262 1 0.609438 0.940687 3.86516
263 1 9.21483 5.37453 0.508943
264 1 4.30708 3.73041 4.81745
265 1 3.54408 6.33187 3.1008
266 1 6.35196 3.3425 1.79482
267 1 0.0587108 8.02281 2.31997
268 1 5.66932 0.782708 3.10487
269 1 2.50867 4.0218 3.74891
270 1 6.37859 7.50843 6.64676
271 1 0.208684 5.43701 2.24357
272 1 1.8491 1.51102 7.53916
273 1 3.37139 -0.0152743 0.2
274 1 5.91519 6.50698 1.13844
275 1 6.53263 7.92037 8.8137
276 1 2.00419 8.7496 2.70858
277 1 5.21712 4.15064 7.0972
278 1 8.51444 8.65964 7.05602
279 1 4.69092 0.313871 3.54
280 1 5.45189 7.9902 1.56051
281 1 3.2901 7.4119 5.88682
282 1 1.23181 8.53077 3.14544
283 1 7.23941 7.28144 3.61847
284 1 0.36522 1.88386 3.94991
285 1 3.1291 3.13126 0.515465
286 1 3.85434 2.00793 8.71333
287 1 6.60975 8.84368 4.17588
288 1 5.99523 0.0405905 5.69725
289 1 0.941552 2.09363 6.66486
290 1 5.35205 2.26391 6.69337
291 1 0.89132 1.754 8.40388
292 1 3.47833 8.81956 8.80071
293 1 6.60627 2.69296 1.13353
294 1 7.3416 3.17814 8.76591
295 1 4.60698 8.95123 6.91731
296 1 2.45924 2.15728 3.55627
297 1 2.92336 8.00718 7.4714
298 1 4.43203 8.57262 5.83087
299 1 8.58431 7.69091 6.99857
300 1 0.908791 2.48764 1.1001
301 1 5.3179 9.16674 3.07739
302 1 3.12102 0.233278 5.80469
303 1 2.60231 1.61275 6.07961
304 1 0.940403 9.31792 2.69634
305 1 7.82446 4.65379 8.68879
306 1 3.51743 9.21099 2.4571
307 1 2.11859 5.73862 5.50265
308 1 5.78868 0.371829 7.28916
309 1 5.90554 0.481293 8.15091
310 1 6.19766 1.51885 2.04874
311 1 3.93725 1.33577 0.0839868
312 1 4.58771 0.358653 4.85615
313 1 1.66351 3.1866 4.91036
314 1 1.54563 7.34098 4.61428
315 1 5.99311 5.23577 8.85553
316 1 5.50702 8.53962 5.46232
317 1 2.29764 1.21897 1.5108
318 1 1.18591 7.97407 1.26801
319 1 2.28615 1.81128 2.71389
320 1 8.26557 5.72387 8.46921
321 1 0.255266 4.63886 4.86935
322 1 4.85955 3.4808 8.05307
323 1 8.2713 5.88005 7.29469
324 1 5.39555 1.1431 1.54323
325 1 9.01416 2.22112 7.1035
326 1 7.32989 0.577811 3.37117
327 1 3.74626 5.20879 5.28678
328 1 6.8767 2.71216 7.42901
329 1 4.92675 5.62614 8.45599
330 1 3.87215 4.64315 6.60915
331 1 3.70001 2.31067 0.27754
332 1 6.88255 1.41605 5.17579
333 1 6.62493 7.51069 0.218254
334 1 2.92936 1.97354 1.16931
335 1 5.70765 1.14471 8.84984
336 1 4.17266 7.72209 7.63323
337 1 7.76288 9.07692 3.26843
338 1 7.80068 2.27704 1.47385
339 1 4.86275 1.40764 9.23087
340 1 0.985345 8.47515 2.19638
341 1 6.46993 5.89276 1.39492
342 1 5.99059 7.71665 5.34772
343 1 2.98693 1.27954 5.1717
344 1 0.370824 8.02678 5.67301
345 1 0.450779 3.14676 8.12916
346 1 1.03317 7.60416 8.87812
347 1 4.41319 2.78879 6.41884
348 1 5.29632 4.66066 4.55773
349 1 6.26746 3.043 8.88269
350 1 8.04121 0.917627 9.06169
351 1 4.14891 8.91372 4.98366
352 1 8.04482 8.08104 4.32449
353 1 9.34608 8.55732 4.74453
354 1 8.29925 0.183284 0.422831
355 1 1.52948 3.98277 5.43648
356 1 9.07139 0.783546 6.40803
357 1 0.47041 0.11122 1.77153
358 1 8.00191 5.53721 1.42157
359 1 2.58675 7.72714 8.3037
360 1 8.43101 8.46774 3.03706
361 1 9.2456 6.05542 4.28625
362 1 7.77162 1.45772 7.63755
363 1 2.66674 5.05852 4.78023
364 1 1.4768 6.39974 4.06151
365 1 8.55742 1.01907 7.14936
366 1 1.50005 5.41114 3.2394
367 1 9.40039 7.46149 6.51519
368 1 3.98176 5.87602 2.28865
369 1 0.703982 7.17653 1.28357
370 1 8.89262 0.901888 0.16459
371 1 8.13851 1.86439 2.71517
372 1 6.35453 5.97876 2.23434
373 1 3.73644 8.34823 0.245325
374 1 4.75759 0.357037 7.30366
375 1 7.83777 3.28348 1.34476
376 1 7.01083 6.94797 7.75654
377 1 5.57385 0.107214 4.0175
378 1 4.48671 9.18753 7.92732
379 1 1.77389 8.96898 4.39753
380 1 1.21594 4.76125 3.76
381 1 8.56634 7.86913 1.85553
382 1 8.02602 6.52159 8.14667
383 1 6.21765 6.03541 0.432558
384 1 7.47152 4.70966 4.33277
385 1 0.0319693 1.26873 4.79413
386 1 3.92741 0.876156 6.68903
387 1 5.59185 6.63793 3.19853
388 1 8.49047 9.31911 7.73357
389 1 2.13847 7.93598 6.93142
390 1 5.94883 7.35093 8.20156
391 1 1.57238 5.98826 8.78174
392 1 8.09541 5.68351 2.30607
393 1 9.20858 0.22177 8.19036
394 1 0.196093 7.65123 3.3204
395 1 3.63444 3.88719 3.12236
396 1 1.5236 5.11169 7.06313
397 1 0.981488 1.82944 2.01328
398 1 8.13709 4.73893 0.232393
399 1 3.2454 4.284 8.4327
400 1 8.55414 5.82806 4.94943
401 1 0.822807 1.43011 7.42159
402 1 0.324211 6.12551 6.49766
403 1 0.19715 4.07291 8.0694
404 1 8.62458 1.09896 2.76392
405 1 0.111182 4.01312 6.29327
406 1 2.06009 3.63301 3.11894
407 1 5.15907 6.93145 7.65651
408 1 1.83924 1.85511 6.6969
409 1 3.32736 6.10018 7.75678
410 1 4.65948 3.19973 3.18734
411 1 2.92865 7.69112 5.14705
412 1 0.0815674 4.98108 7.91982
413 1 4.89752 4.18026 3.8028
414 1 9.34225 0.848988 1.27663
415 1 1.90799 4.89732 2.58771
416 1 2.30148 4.45824 8.71259
417 1 8.02544 1.19705 6.26949
418 1 1.7987 8.7491 5.51433
419 1 5.2781 4.75828 1.4472
420 1 3.96219 3.13435 0.237983
421 1 4.91187 3.48755 0.758773
422 1 7.79512 0.567912 2.58886
423 1 0.941103 2.607 2.47486
424 1 3.95705 0.160404 4.21157
425 1 0.582683 0.338891 5.68464
426 1 4.65775 5.94229 0.368497
427 1 2.56181 1.05504 8.18204
428 1 0.763632 3.90627 2.26528
429 1 5.06706 9.04649 8.7271
430 1 4.98749 6.85998 0.0962172
431 1 8.12572 0.622452 8.06199
432 1 9.34488 1.1792 7.58366
433 1 7.05258 2.92396 5.84092
434 1 1.71581 6.87508 1.32607
435 1 1.71928 0.743882 0.649863
436 1 8.88751 8.9174 1.49192
437 1 8.82627 1.89902 1.25607
438 1 3.92541 5.54249 7.17884
439 1 0.542983 4.57018 1.61826
440 1 2.17279 5.83866 6.79435
441 1 0.554126 0.635573 6.91189
442 1 0.196253 2.06071 2.4506
443 1 4.77115 3.88069 2.34868
444 1 8.79685 8.48585 5.54194
445 1 7.02685 5.41609 4.61164
446 1 9.14805 9.03491 2.3748
447 1 9.27431 0.107208 7.23267
448 1 6.2868 6.31715 6.22014
449 1 3.40919 8.43048 5.59735
450 1 3.6369 1.54316 1.84847
451 1 5.47595 1.30201 3.89477
452 1 8.83195 3.32426 6.44007
453 1 9.23784 8.23051 8.7813
454 1 7.64741 6.21136 0.063669
455 1 6.33903 1.58741 0.504512
456 1 2.73059 8.86497 5.2734
457 1 0.674562 4.77282 6.77661
458 1 4.52139 1.87183 6.6333
459 1 3.84924 0.47979 1.25202
460 1 6.67402 6.02303 7.93648
461 1 0.0765711 0.139372 3.31857
462 1 1.75994 6.15422 2.75379
463 1 0.834482 9.12911 7.56074
464 1 8.55216 2.42526 6.01468
465 1 0.214012 5.11102 4.13304
466 1 7.2632 6.30775 8.44907
467 1 0.953375 8.0393 6.21825
468 1 4.84981 5.23089 0.857305
469 1 4.96243 5.70201 6.65749
470 1 8.17652 1.24544 2.00395
471 1 4.33912 8.06712 3.20068
472 1 8.1801 3.99345 7.47913
473 1 2.09555 0.35736 3.65096
474 1 6.78687 2.18496 9.07861
475 1 3.92692 7.49687 2.04819
476 1 1.24852 3.25655 3.38357
477 1 4.71307 7.8733 2.3401
478 1 9.19266 6.18431 2.59107
479 1 8.96412 6.89904 7.36764
480 1 0.0335026 2.25548 5.20962
481 1 0.309834 6.20037 1.35978
482 1 8.46324 0.208328 6.72964
483 1 1.9438 1.33098 5.14027
484 1 1.65412 8.06315 0.446348
485 1 0.53891 9.15086 6.68821
486 1 3.60277 1.74866 6.542
487 1 5.9999 5.10085 4.19426
488 1 3.7669 0.796774 3.23159
489 1 4.84323 0.510381 6.29177
490 1 7.15582 5.95285 6.36202
491 1 5.22065 4.85667 7.8802
492 1 4.6893 5.24663 2.71395
493 1 5.58718 8.00349 6.29567
494 1 8.84452 6.8216 8.21601
495 1 9.26794 4.50367 2.30831
496 1 7.64471 0.339751 6.10333
497 1 6.19783 3.09853 2.84112
498 1 8.04395 8.35517 1.26835
499 1 7.3358 4.49021 3.31166
500 1 8.51236 2.45218 0.643779
501 1 6.57302 0.508775 2.08524
502 1 6.6702 5.07694 7.56037
503 1 6.37238 5.98905 4.20925
504 1 5.96444 8.10891 7.79369
505 1 7.06384 0.566527 4.83053
506 1 3.01622 2.95246 7.59521
507 1 7.432 4.90186 5.50083
508 1 6.46019 2.62732 6.6757
509 1 0.96353 5.27008 2.5525
510 1 0.477324 0.802866 0.511203
511 1 5.79031 6.10237 8.1563
512 1 3.81121 6.22752 4.90799
513 1 2.41621 6.48289 8.21774
514 1 5.73842 8.43636 4.43191
515 1 1.31333 2.03068 9.27436
516 1 3.7372 8.52409 4.31277
517 1 6.13688 6.87641 7.38135
518 1 6.54828 7.86295 3.54918
519 1 4.63745 1.95501 1.54772
520 1 2.47096 5.37443 0.368472
521 1 1.64613 4.60443 0.100039
522 1 7.76477 0.0699591 7.24712
523 1 1.00018 0.130569 0.0629752
524 1 2.59161 6.80936 5.34119
525 1 1.84685 8.948 1.75661
526 1 6.23432 3.22628 3.77019
527 1 6.75401 1.58193 7.66717
528 1 2.15069 8.63523 3.58185
529 1 6.58267 6.10573 7.03268
530 1 4.40031 2.13529 5.6331
531 1 0.484094 3.98113 5.53024
532 1 5.37845 7.55246 0.65425
533 1 8.88189 4.64873 4.28262
534 1 3.57051 2.37148 5.92026
535 1 2.34589 0.356598 4.69953
536 1 4.4938 7.4474 0.80844
537 1 1.03177 7.75066 2.86105
538 1 2.98354 6.63911 0.463362
539 1 3.47162 5.61168 8.40039
540 1 3.70302 7.14579 2.90393
541 1 7.41708 5.42991 8.21418
542 1 5.48659 5.98911 4.96327
543 1 6.06533 4.42933 7.44417
544 1 1.75031 2.34212 1.97276
545 1 7.32077 0.918233 1.70468
546 1 4.4633 6.54472 7.07376
547 1 3.3531 1.08015 7.64835
548 1 3.23245 7.72138 9.11682
549 1 5.84364 4.17024 4.02187
550 1 7.42164 2.08649 0.697667
551 1 1.21656 9.19859 3.74677
552 1 0.108323 2.26594 6.14605
553 1 2.88356 7.09393 7.63651
554 1 8.33889 3.79395 0.43701
555 1 2.06709 7.92145 6.02876
556 1 6.31286 1.04901 7.08393
557 1 0.392475 8.07244 7.09258
558 1 5.23045 2.61858 1.28798
559 1 3.61693 5.32769 4.35082
560 1 5.80354 7.63642 3.06049
561 1 7.63306 0.979058 5.43304
562 1 4.64262 4.71339 5.22962
563 1 1.14151 6.26952 1.01461
564 1 1.46416 0.860199 4.31203
565 1 8.354 6.16447 3.01343
566 1 7.2506 0.878265 8.24613
567 1 2.28 3.83841 6.08742
568 1 2.74097 7.19666 1.149
569 1 0.715858 2.83227 4.97902
570 1 9.28348 1.62822 0.485992
571 1 2.17175 6.32983 0.0396995
572 1 1.25909 6.59834 8.04725
573 1 3.43278 8.10803 1.31223
574 1 8.32716 2.77766 6.86877
575 1 2.02297 1.80407 8.53618
576 1 6.15526 0.0564733 2.83098
577 1 8.95148 6.56004 6.56227
578 1 0.309254 1.44834 6.65107
579 1 7.93334 2.33083 9.01788
580 1 1.18524 7.3645 6.66624
581 1 8.74645 1.49138 5.37375
582 1 8.97931 3.24978 7.58919
583 1 3.27108 2.24736 3.334
584 1 8.44816 2.57979 7.89501
585 1 8.06573 6.68053 6.94325
586 1 9.06602 2.85374 8.46906
587 1 5.61151 3.93869 1.55996
588 1 3.76012 2.78001 7.97583
589 1 2.05885 5.33188 9.04383
590 1 9.16954 3.84981 4.75393
591 1 8.65654 6.67368 0.651157
592 1 2.01229 7.26224 0.338335
593 1 7.883 2.40312 4.13158
594 1 2.41778 6.85318 4.4559
595 1 4.41535 8.0982 1.2938
596 1 2.97312 8.83101 7.21618
597 1 1.68324 1.58682 3.67695
598 1 8.30478 3.50156 8.36668
599 1 7.69085 1.9537 5.88982
600 1 5.57389 0.881219 0.372867
601 1 1.37741 0.195249 5.06934
602 1 6.29525 8.55312 1.28294
603 1 6.49723 6.99946 8.72881
604 1 2.9375 5.98919 8.97106
605 1 1.60521 0.0733562 7.70079
606 1 9.10435 7.2007 1.49181
607 1 7.21869 0.99019 0.850458
608 1 8.76618 8.35772 0.320811
609 1 6.57337 8.87438 7.79991
610 1 3.17232 0.00690735 8.11303
611 1 7.38784 6.77224 1.49031
612 1 7.15544 4.902 6.58706
613 1 6.77543 7.05078 4.82695
614 1 6.60509 5.96073 9.01253
615 1 4.4523 3.21056 8.93236
616 1 1.59936 9.01148 0.505184
617 1 3.74268 2.5747 2.41039
618 1 6.63597 1.18768 8.78637
619 1 1.79291 2.31619 5.28673
620 1 8.19224 4.38091 3.87415
621 1 2.63502 3.40003 4.41992
622 1 7.30601 9.15245 0.714752
623 1 2.50379 5.51443 2.92993
624 1 8.37458 3.57646 2.72137
625 1 6.06359 8.98052 8.53967
626 1 0.646776 8.46164 8.99283
627 1 7.91862 3.6019 6.75377
628 1 4.80991 7.28442 1.64546
629 1 1.93602 4.23667 7.1136
630 1 8.79554 4.78347 1.12348
631 1 7.41316 3.61692 3.16116
632 1 5.40441 5.9989 9.0999
633 1 2.36585 1.23999 4.35276
634 1 1.33496 2.91667 8.40971
635 1 7.43964 6.04862 7.27327
636 1 3.73688 4.54474 1.314
637 1 7.51662 3.24158 7.63164
638 1 5.25605 1.2877 2.34469
639 1 0.964114 3.72546 6.60155
640 1 5.7383 2.16133 9.05571
641 1 4.48618 3.5909 6.82834
642 1 5.71608 4.40929 0.429084
643 1 2.82576 2.82167 6.21806
644 1 7.00094 5.29904 3.73458
645 1 0.948141 2.02596 5.71278
646 1 3.93137 7.41048 3.90018
647 1 3.53991 6.5061 6.7169
648 1 5.22594 8.43469 0.645407
649 1 7.50334 8.13793 2.82846
650 1 8.72639 0.63287 5.59189
651 1 4.88762 0.68553 8.25034
652 1 8.30829 7.28552 6.18012
653 1 6.27739 1.91504 8.20455
654 1 9.32366 2.65146 4.27117
655 1 5.63822 0.224705 9.0382
656 1 3.97049 7.75386 5.04626
657 1 6.6357 0.301555 8.57976
658 1 1.66439 3.15414 2.46005
659 1 6.89787 4.43497 0.72602
660 1 7.39113 1.36411 9.39637
661 1 4.94039 8.17892 7.78561
662 1 3.90982 3.94476 0.712765
663 1 3.06571 1.47801 0.38367
664 1 4.0904 4.30105 4.14543
665 1 2.60563 0.910289 9.1057
666 1 7.01989 8.73282 8.7074
667 1 2.83914 2.28858 5.23411
668 1 7.09398 1.82612 6.76452
669 1 4.49063 3.12419 5.47884
670 1 2.31062 3.68701 1.80048
671 1 0.323174 8.63158 3.00548
672 1 2.62282 5.22869 1.87934
673 1 0.228719 7.97868 0.342809
674 1 3.63661 3.53625 7.25808
675 1 6.55617 0.408245 6.4304
676 1 2.48716 8.94231 6.12313
677 1 4.13691 0.366091 5.61955
678 1 1.33675 1.05673 6.04017
679 1 3.97564 0.281132 8.57038
680 1 2.03423 4.37216 4.38867
681 1 4.56476 2.42659 2.64318
682 1 4.15272 2.05394 4.49261
683 1 2.47233 5.49584 3.81166
684 1 4.94145 6.39785 5.91147
685 1 8.76078 4.50008 8.3008
686 1 8.22564 2.62984 5.15876
687 1 6.04605 5.44395 6.72444
688 1 4.03854 4.5091 8.89218
689 1 4.39417 6.32169 8.10533
690 1 3.77657 2.83006 4.67284
691 1 2.81795 8.70244 1.83907
692 1 9.0433 1.07046 8.49013
693 1 6.4357 0.336555 3.70235
694 1 0.683663 0.50873 4.65562
695 1 8.28517 6.63303 5.11685
696 1 0.101005 3.65528 3.03887
697 1 4.88701 8.22875 4.98881
698 1 1.55753 0.774759 7.03708
699 1 6.60631 3.30634 8.06363
700 1 1.24163 0.594777 3.17466
701 1 0.60868 5.41609 1.21812
702 1 6.15067 7.04421 3.79278
703 1 5.32435 1.82209 0.637984
704 1 7.31539 0.969958 7.03734
705 1 6.10838 0.921318 5.45474
706 1 6.17049 2.52978 2.01015
707 1 5.8415 2.67163 7.8912
708 1 6.65334 1.30503 3.75051
709 1 2.91903 7.71379 2.02454
710 1 3.43334 1.06173 5.96962
711 1 0.65898 7.41915 4.55695
712 1 3.48379 4.63222 0.395122
713 1 0.307122 6.61252 8.04914
714 1 7.41066 7.22339 8.55827
715 1 3.1591 4.83249 3.49503
716 1 1.90936 7.46257 7.77463
717 1 1.5322 2.98788 5.92661
718 1 0.369676 1.17747 5.83733
719 1 5.241 1.86647 8.36117
720 1 3.44372 6.98131 4.71992
721 1 0.264802 5.90365 7.44291
722 1 7.18978 7.734 4.46558
723 1 7.08487 2.97571 0.471996
724 1 7.01497 2.9937 4.0795
725 1 4.54182 3.00592 4.33937
726 1 8.92202 2.04202 9.15431
727 1 0.331745 6.45775 4.90083
728 1 2.64913 4.4241 7.75259
729 1 6.28554 4.43543 3.17327
730 1 4.74962 9.02632 1.7317
731 1 6.04283 1.99895 5.30197
732 1 2.77149 8.4199 9.08451
733 1 5.87606 4.13554 8.66549
734 1 2.56609 7.01881 8.99333
735 1 3.03874 3.41145 2.4966
736 1 4.39414 2.74178 1.00916
737 1 5.4122 2.9698 3.76648
738 1 1.56327 1.19943 2.36201
739 1 4.20229 9.18513 9.29502
740 1 8.87589 5.12129 7.33483
741 1 5.37889 5.61849 5.79284
742 1 5.17997 7.18978 3.9099
743 1 0.386377 4.52595 8.79307
744 1 2.5743 2.35886 0.427348
745 1 5.18876 0.305834 2.34798
746 1 8.52911 6.53277 3.9941
747 1 7.01334 3.78131 6.51736
748 1 4.14064 5.87684 6.35845
749 1 2.8753 1.94769 9.00756
750 1 2.78757 1.30261 3.47547
751 1 4.64614 6.59383 2.43301
752 1 5.49057 3.59017 3.12712
753 1 5.8618 6.79868 0.0220266
754 1 5.30483 3.1232 7.08284
755 1 4.13026 4.11697 5.87568
756 1 3.44508 5.4934 0.223845
757 1 8.96006 3.323 3.72454
758 1 7.5402 9.2435 8.09313
759 1 5.23924 1.83832 5.80963
760 1 5.40188 7.654 4.59787
761 1 8.80121 5.47034 3.78198
762 1 5.30962 2.1579 2.21965
763 1 8.9275 6.10444 5.7298
764 1 4.21281 8.9231 0.93818
765 1 3.88644 2.03752 7.55561
766 1 5.05361 6.03847 7.57186
767 1 0.666001 3.59834 1.43514
768 1 4.48057 0.961291 1.80181
769 1 1.4311 5.04815 0.821649
770 1 0.901557 8.37673 4.08817
771 1 8.9195 2.90675 2.67657
772 1 6.55341 2.70106 5.02822
773 1 1.51696 0.167911 6.03351
774 1 5.02963 7.41484 5.58464
775 1 9.19848 5.91752 8.32129
776 1 3.42048 6.80049 8.59638
777 1 9.20572 7.27343 8.91055
778 1 5.35515 8.47576 3.594
779 1 3.3824 8.08528 3.47138
780 1 8.20638 1.65294 3.64139
781 1 4.807 4.89157 0.083346
782 1 5.17814 5.2404 3.54099
783 1 0.859069 8.57529 0.554918
784 1 9.30697 8.74591 7.79169
785 1 4.38199 2.95952 7.38633
786 1 7.60387 7.44456 7.41748
787 1 7.00242 4.02293 7.47638
788 1 4.14973 5.4468 3.36395
789 1 1.14644 6.06993 6.98388
790 1 2.65577 4.08367 5.16269
791 1 2.1451 3.91695 0.764559
792 1 3.82164 6.21633 3.9303
793 1 3.97136 3.53385 2.40106
794 1 2.89139 4.01785 6.8923
795 1 0.828146 7.20857 5.44093
796 1 0.575861 1.0419 1.96113
797 1 7.81337 4.20148 6.05762
798 1 3.75672 3.57316 8.47769
799 1 5.65373 6.76526 4.52012
800 1 7.35651 5.82018 2.89743
801 2 7.29091 0.391289 0.157771
802 2 9.40405 0.133575 5.0235
803 2 2.90197 1.90472 7.8968
804 2 5.58676 1.19593 7.75068
805 2 0.992464 3.71746 4.69288
806 2 7.99903 3.19572 5.93565
807 2 6.33114 7.35402 1.06741
808 2 4.20559 5.4945 9.04977
809 2 9.17768 6.21397 9.18147
810 2 6.55778 1.0504 2.89262
811 2 1.44246 8.37395 7.42283
812 2 2.25778 0.250581 2.35928
813 2 8.99829 1.48625 2.05066
814 2 0.583063 5.35656 9.36333
815 2 1.0992 2.97622 0.288162
816 2 5.81951 3.5502 6.40021
817 2 7.80474 4.17463 5.05892
818 2 0.546444 9.21264 8.41603
819 2 8.84285 4.08134 5.65964
820 2 2.93816 5.14558 5.74157
821 2 3.40019 5.13814 2.43126
822 2 3.65187 2.61181 6.86947
823 2 3.00425 5.00158 8.89689
824 2 4.47918 2.92156 1.86786
825 2 7.30689 8.5801 4.73112
826 2 1.65485 2.16343 0.836241
827 2 5.49717 5.7758 2.68124
828 2 0.438791 6.19685 0.392486
829 2 4.47261 0.974906 4.15535
830 2 4.4548 4.46768 3.11104
831 2 0.723344 6.04488 3.84478
832 2 4.66048 7.09557 4.79174
833 2 2.45729 4.77287 6.38638
834 2 3.01152 6.34998 1.37237
835 2 5.53083 8.24127 8.60714
836 2 2.96079 6.00889 4.75365
837 2 4.35393 9.39202 2.69148
838 2 0.787199 3.82363 0.105189
839 2 8.18483 0.234134 1.76069
840 2 1.69936 6.45759 5.06577
841 2 0.862165 1.81409 3.17179
842 2 7.52763 5.44278 0.572356
843 2 4.90791 9.01219 4.42559
844 2 4.60081 5.70079 5.12334
845 2 2.53757 3.0694 5.43968
846 2 9.12481 6.85464 3.1825
847 2 9.2761 7.81289 4.12485
848 2 8.38391 4.51826 3.00739
849 2 2.31601 8.55554 7.87224
850 2 4.01572 5.59466 1.21255
851 2 0.979883 6.15701 5.72928
852 2 8.33374 7.58452 8.73272
853 2 1.69881 0.823129 8.97182
854 2 8.59821 0.338375 8.81724
855 2 5.30705 4.54616 5.97024
856 2 2.57123 4.29887 2.72741
857 2 4.39675 4.05385 7.52385
858 2 1.42449 2.85803 6.90686
859 2 5.65543 5.93497 3.75019
860 2 5.33753 0.77148 5.00493
861 2 3.48717 3.24419 5.46777
862 2 8.9049 8.57755 3.81736
863 2 4.4243 1.28308 5.3103
864 2 2.0854 7.97882 5.00252
865 2 7.89945 5.20882 6.1615
866 2 8.57356 3.82908 1.77062
867 2 4.99946 1.82745 7.42336
868 2 5.6817 3.58552 7.87634
869 2 6.60833 6.13979 5.06362
870 2 5.91313 5.0635 2.18806
871 2 1.46542 0.421842 1.94959
872 2 8.56791 0.101656 2.84741
873 2 8.02595 8.15973 5.48017
874 2 2.0787 1.54417 0.254031
875 2 5.27215 1.13628 6.82438
876 2 4.36029 1.07142 7.45515
877 2 1.2301 4.15504 3.06611
878 2 0.506028 3.34845 4.0082
879 2 0.628202 4.66022 0.563383
880 2 9.05471 0.503554 2.10549
881 2 2.06339 8.09289 2.21721
882 2 2.32031 9.29115 9.37854
883 2 2.32083 0.380929 5.52907
884 2 9.13987 4.84882 6.27792
885 2 8.9415 4.18894 7.10363
886 2 6.4653 0.785837 0.274501
887 2 2.643 2.5842 8.35454
888 2 7.01867 3.62634 1.10234
889 2 6.89284 1.75311 1.36703
890 2 5.54915 7.29599 2.31264
891 2 9.11912 8.09713 1.10315
892 2 5.66135 2.17818 4.37734
893 2 6.32166 7.81003 4.50114
894 2 9.32094 3.98218 1.02112
895 2 7.79152 2.72912 2.61897
896 2 0.254273 1.41274 9.06081
897 2 8.09862 7.45521 3.54231
898 2 3.3613 8.26672 2.58726
899 2 6.44324 5.03305 1.22563
900 2 4.39191 1.59422 8.22816
901 2 3.93606 6.54385 0.766736
902 2 3.55542 6.22678 5.7425
903 2 5.57005 5.31144 0.254641
904 2 6.82889 0.232115 7.31975
905 2 -0.00132033 3.4288 2.14853
906 2 7.49814 4.856 1.21997
907 2 8.7082 5.15041 5.55361
908 2 7.86743 4.85338 7.72872
909 2 1.56722 0.87771 8.11812
910 2 6.30751 3.55251 4.71483
911 2 4.87203 4.44981 8.6055
912 2 5.47279 8.54871 2.37138
913 2 8.26114 1.62695 8.55787
914 2 1.12507 4.61604 4.64727
915 2 7.48999 7.23731 2.80772
916 2 7.1325 6.80972 6.86509
917 2 6.47511 1.97875 4.49651
918 2 1.81294 6.37479 6.04586
919 2 8.30927 6.60098 9.0783
920 2 3.51171 9.27732 3.42442
921 2 8.82345 5.22619 2.64108
922 2 9.13065 9.25677 6.05621
923 2 7.43544 5.29235 9.0725
924 2 5.26725 7.70184 7.14182
925 2 4.6469 0.491704 9.15164
926 2 1.84471 7.05389 2.744
927 2 3.75203 8.4582 6.75871
928 2 8.86523 1.69584 6.35119
929 2 4.95646 3.65922 6.18296
930 2 3.30193 9.04204 1.20301
931 2 4.05233 8.55978 1.96418
932 2 7.94878 3.3261 3.93851
933 2 5.86435 1.66975 2.87924
934 2 4.81135 0.625904 1.00534
935 2 6.21442 2.68729 0.263835
936 2 6.10354 6.83157 5.3647
937 2 3.28841 5.53932 6.49521
938 2 1.25511 6.5521 0.0940956
939 2 6.7088 2.34314 2.80759
940 2 5.12073 2.75773 0.334872
941 2 1.71861 5.22428 4.30287
942 2 3.36635 0.137306 4.9187
943 2 7.36768 9.3442 4.27723
944 2 1.46923 8.50281 8.53958
945 2 7.05648 9.01483 6.60682
946 2 5.33437 3.0906 2.43638
947 2 4.48637 3.97617 0.0741035
948 2 0.600263 8.12574 7.9873
949 2 1.79839 5.5889 1.89012
950 2 3.57331 3.07492 1.64297
951 2 1.42525 5.35618 6.04673
952 2 8.01271 8.11463 6.39361
953 2 8.39896 2.61538 3.32864
954 2 4.49875 7.1367 6.31699
955 2 8.07938 5.06078 4.8176
956 2 2.48102 4.70321 1.13464
957 2 1.05808 5.82497 4.79497
958 2 4.65357 0.827484 2.78762
959 2 5.32004 3.86379 5.30681
960 2 7.33778 2.46784 8.20246
961 2 2.12438 0.885161 2.98027
962 2 1.88682 7.24587 3.70639
963 2 3.37224 6.78122 2.02924
964 2 9.02176 5.62256 1.39524
965 2 7.59194 3.15722 4.74596
966 2 1.4679 4.49686 6.33722
967 2 7.49368 1.18889 4.19469
968 2 4.40652 6.76806 3.44372
969 2 5.40978 7.17644 6.41525
970 2 1.69552 8.07367 4.06112
971 2 7.26083 7.50566 6.17309
972 2 7.31289 8.39017 3.84308
973 2 7.55162 7.24467 0.146343
974 2 8.28649 9.06292 6.02781
975 2 0.326578 3.25113 0.645245
976 2 7.04467 6.50015 2.32124
977 2 3.67306 1.83495 5.26789
978 2 7.33173 6.35169 4.47121
979 2 6.13922 2.12324 3.5989
980 2 0.668294 0.572431 7.87544
981 2 0.512727 8.50489 1.45595
982 2 4.51017 2.07233 0.371882
983 2 8.77914 1.90258 4.53805
984 2 2.85548 8.77594 2.98815
985 2 8.39769 3.51517 4.89602
986 2 2.76749 6.62009 2.89588
987 2 3.48871 4.78294 7.40628
988 2 6.08292 9.05479 2.0457
989 2 3.64082 0.999818 4.6399
990 2 8.50308 1.04833 0.9655
991 2 4.00104 1.57447 3.61853
992 2 2.43607 7.18351 6.59939
993 2 7.08221 6.72833 5.71459
994 2 2.7396 3.42381 8.86449
995 2 8.70296 1.80738 7.76666
996 2 4.9283 1.62495 3.24669
997 2 3.44169 7.38954 6.7637
998 2 8.16063 0.816006 3.63233
999 2 1.86038 3.12977 3.98217