#bin. KALJ data file T=0.5

1000 atoms
2 atom types

0 9.4 xlo xhi
0 9.4 ylo yhi
0 9.4 zlo zhi

Masses

1 1.0
2 1.0

Atoms

1 1 7.40321 5.89222 3.51582
2 1 7.63339 1.32195 3.47411
3 1 2.37497 6.48033 4.25968
4 1 8.02389 2.39796 3.98432
5 1 5.47375 3.6213 1.96108
6 1 8.35774 3.20601 5.52545
7 1 0.558856 4.02468 6.38219
8 1 4.65061 1.77421 1.93797
9 1 4.21294 2.45338 5.77485
10 1 5.62281 5.32377 5.10755
11 1 6.37924 7.8144 4.61534
12 1 5.1107 3.12065 6.5833
13 1 4.32377 0.836418 2.19246
14 1 1.63922 2.74683 3.67974
15 1 6.83335 6.40718 5.20945
16 1 0.980092 3.63227 1.22304
17 1 5.85435 4.96286 1.47618
18 1 8.56292 1.40753 2.388
19 1 0.997167 3.81212 9.11482
20 1 4.50095 1.37871 6.60942
21 1 0.537952 3.64481 2.02589
22 1 0.334372 1.30451 6.58687
23 1 1.24915 7.27366 6.05185
24 1 5.64696 0.881782 1.14131
25 1 5.7456 4.43244 4.90917
26 1 5.4841 1.13541 2.41052
27 1 5.09034 0.00471831 4.3847
28 1 4.02907 5.55557 6.59884
29 1 1.97579 1.74731 6.1983
30 1 4.10186 6.12359 5.95112
31 1 2.53748 8.86952 4.98829
32 1 6.90339 5.55272 7.94171
33 1 7.25168 7.9209 7.3105
34 1 7.36274 5.88028 6.95096
35 1 2.93794 7.92003 6.87926
36 1 5.34206 5.43672 7.38635
37 1 1.0498 4.64404 8.66348
38 1 3.57836 3.46867 3.72429
39 1 4.80204 8.19556 6.18731
40 1 6.37497 3.74536 5.50264
41 1 5.87993 5.21398 8.25187
42 1 6.76991 4.7015 1.78574
43 1 5.04987 3.62615 3.31512
44 1 9.18235 3.02325 7.23944
45 1 4.88743 6.32153 0.824291
46 1 6.03766 1.00222 7.29384
47 1 1.55047 7.01733 1.43471
48 1 2.94247 6.31541 2.57749
49 1 4.20928 3.04207 6.57858
50 1 2.31904 5.97688 7.5911
51 1 1.29332 7.20014 0.436787
52 1 7.67646 1.25782 2.58385
53 1 6.26491 8.26613 7.26745
54 1 4.99402 6.94224 5.25661
55 1 6.47389 4.62986 5.80269
56 1 9.35108 7.74509 1.9987
57 1 8.01093 4.60338 2.20734
58 1 2.87715 3.05463 6.96715
59 1 1.68104 7.14699 6.87679
60 1 5.11854 7.03568 3.50767
61 1 0.0945043 2.08882 6.14511
62 1 7.34697 0.519629 4.9897
63 1 1.81163 3.40887 8.5559
64 1 2.07419 8.84424 2.79204
65 1 2.3261 7.69744 1.89928
66 1 3.89152 8.73356 6.11711
67 1 8.78844 2.43765 3.41703
68 1 8.4719 5.31176 0.875582
69 1 2.05511 1.0992 4.5801
70 1 2.50011 0.147727 7.85811
71 1 0.0763616 4.21749 9.01001
72 1 6.95867 4.09674 8.60043
73 1 1.56989 0.583675 8.46216
74 1 1.30827 4.41142 2.37101
75 1 6.4829 1.10465 0.744471
76 1 4.32864 6.42889 8.66717
77 1 5.63136 8.53088 4.3861
78 1 6.38228 7.19438 2.17217
79 1 3.80264 9.01453 7.55752
80 1 6.64652 3.72731 3.30332
81 1 0.193177 0.454155 6.37828
82 1 5.11952 0.295335 2.42728
83 1 7.471 3.05567 4.17129
84 1 5.86638 1.23654 0.131232
85 1 2.5074 2.58214 5.24057
86 1 0.200761 7.40112 7.59964
87 1 0.506464 7.79716 5.82547
88 1 3.78999 1.40459 1.62422
89 1 0.459552 8.66303 1.37395
90 1 5.14173 6.5406 2.00454
91 1 1.64405 6.89175 5.21998
92 1 9.11748 8.33899 4.91964
93 1 4.70461 5.99254 3.06967
94 1 7.38796 2.24608 7.73685
95 1 0.92066 1.19798 7.86028
96 1 3.79558 3.51433 0.0397902
97 1 6.20938 0.608912 8.08361
98 1 4.2623 8.97666 5.23117
99 1 6.79038 1.93491 5.05806
100 1 2.98932 9.15773 5.95583
101 1 6.90583 6.39025 8.28864
102 1 7.85953 8.99109 7.77658
103 1 8.81939 1.40338 4.70984
104 1 7.68602 0.49251 3.04582
105 1 3.06434 0.652856 5.89601
106 1 1.2676 6.53992 8.69227
107 1 2.57716 3.77901 4.26258
108 1 0.270224 8.27361 8.0539
109 1 2.35573 2.87655 1.66489
110 1 1.56209 4.49814 1.46069
111 1 2.7693 8.69845 7.5407
112 1 6.27854 1.79594 3.55618
113 1 9.32844 8.28654 6.80307
114 1 6.23115 3.59445 8.13927
115 1 8.95401 6.48794 5.38091
116 1 2.59454 3.86822 6.43254
117 1 6.6326 9.13485 2.61664
118 1 0.85473 4.07929 3.20006
119 1 2.12335 2.31968 9.08081
120 1 5.93061 5.36333 5.95986
121 1 9.29897 5.20941 8.58152
122 1 7.26842 6.7177 1.58933
123 1 9.1347 3.83532 6.12577
124 1 2.25421 3.25769 9.32722
125 1 1.15619 4.34451 7.22131
126 1 9.01528 1.60417 3.12341
127 1 3.31766 4.67399 8.29726
128 1 4.18109 4.55133 5.14459
129 1 5.44439 4.42452 2.16519
130 1 4.16237 4.56619 8.49062
131 1 0.250905 5.50701 0.953757
132 1 3.19776 2.36518 0.647302
133 1 0.590642 4.94086 3.89812
134 1 5.13888 2.02677 4.6113
135 1 0.464504 1.94251 1.19579
136 1 2.80605 0.56551 4.64489
137 1 2.6308 5.39529 1.06525
138 1 7.35767 8.28665 8.23408
139 1 2.3558 2.14835 1.09887
140 1 1.28923 4.13677 0.502368
141 1 5.57479 4.33903 6.59017
142 1 8.6715 0.263436 7.29802
143 1 7.90606 2.7558 6.16214
144 1 1.64374 5.2774 8.88078
145 1 2.24706 0.166302 5.5355
146 1 1.47714 7.35611 3.39984
147 1 8.56446 8.81233 6.52278
148 1 8.50764 3.47599 4.59367
149 1 3.55555 1.01961 6.5235
150 1 8.32668 5.06897 7.88195
151 1 1.10918 5.36997 4.53316
152 1 1.75103 9.21559 3.72179
153 1 3.13088 1.45196 8.83832
154 1 5.27001 7.65075 4.21793
155 1 5.81085 0.1432 1.94424
156 1 9.19868 3.05365 5.1083
157 1 4.46235 5.31412 0.0800999
158 1 5.58216 5.53973 3.25639
159 1 1.64025 3.92003 5.91721
160 1 9.10345 5.94806 9.31007
161 1 3.05184 5.44382 4.53814
162 1 1.33525 8.77082 0.909072
163 1 6.23965 8.81126 6.55307
164 1 0.736017 4.80335 0.852626
165 1 2.7362 5.92472 1.83032
166 1 2.266 2.55995 8.23648
167 1 8.01107 7.39783 8.3045
168 1 1.73305 5.23549 7.20395
169 1 6.91275 2.87926 8.13699
170 1 0.00678764 2.24677 2.47296
171 1 5.55503 7.25406 2.63628
172 1 1.54139 3.53308 7.06846
173 1 9.22386 4.9116 7.66257
174 1 5.63684 6.39815 2.68202
175 1 2.56749 5.75901 0.254846
176 1 9.02789 0.0853909 1.03098
177 1 7.65289 8.85976 0.0644507
178 1 7.41576 3.96284 0.173182
179 1 8.58064 0.787712 3.11061
180 1 0.245847 3.86505 4.62723
181 1 1.44093 6.17809 6.937
182 1 2.01551 5.10782 2.05758
183 1 9.24827 1.30648 9.09842
184 1 1.60132 1.8384 1.65487
185 1 6.69467 3.20213 9.08137
186 1 9.30317 1.12003 1.22075
187 1 2.75527 7.8035 8.06904
188 1 3.52775 3.65243 6.54279
189 1 7.33384 9.04159 5.18952
190 1 3.06816 3.15605 5.83188
191 1 7.76791 6.13399 0.923709
192 1 9.12049 8.6938 0.310591
193 1 4.52906 0.219755 3.66549
194 1 7.17078 7.13817 4.51197
195 1 6.22533 7.00881 3.15667
196 1 5.37638 2.53922 2.02706
197 1 8.63935 5.93279 1.50153
198 1 4.12004 3.87802 0.760344
199 1 6.9557 0.520722 2.22594
200 1 1.64262 0.348123 0.761243
201 1 6.56894 0.0377339 5.35335
202 1 6.77103 4.73896 4.0917
203 1 4.66163 3.21955 0.622726
204 1 8.59627 1.44097 8.61559
205 1 2.64993 0.277101 6.72599
206 1 5.8868 4.07896 1.21179
207 1 2.53229 5.43417 5.58905
208 1 1.22504 2.24911 3.04397
209 1 4.86614 6.26987 9.34779
210 1 9.13333 0.26468 3.63865
211 1 4.71191 1.0503 5.53187
212 1 4.33277 2.80526 3.07219
213 1 5.63481 7.44903 7.7311
214 1 4.62529 2.23862 3.92192
215 1 7.37743 3.52033 5.79156
216 1 8.84752 1.16096 6.59935
217 1 8.39739 5.80417 3.54625
218 1 6.10632 8.60644 5.19652
219 1 7.64003 6.74517 7.85536
220 1 5.84413 5.07762 4.12642
221 1 0.16018 7.28877 3.58625
222 1 0.574371 1.55389 3.35654
223 1 9.2001 6.70024 7.10065
224 1 7.03318 4.36559 5.07201
225 1 3.7768 2.95746 7.35839
226 1 5.212 0.0965467 1.14254
227 1 3.06193 7.14266 1.39219
228 1 4.61575 7.38281 7.93909
229 1 1.76236 8.39056 4.61084
230 1 6.00999 8.09483 3.79916
231 1 9.044 9.18497 4.75893
232 1 2.01891 0.83717 6.46458
233 1 4.56427 5.42309 2.37487
234 1 0.235661 4.74277 6.87042
235 1 2.04513 3.0714 4.57071
236 1 2.50394 1.63231 0.315396
237 1 2.66287 3.79147 8.53413
238 1 3.20671 9.10517 1.05093
239 1 5.96683 2.46906 9.39724
240 1 0.753933 1.75485 5.65705
241 1 6.15068 5.93137 4.4701
242 1 6.01074 5.46219 0.418374
243 1 3.14765 4.37133 4.00904
244 1 2.13517 6.07696 8.4894
245 1 3.66436 8.95679 3.52003
246 1 0.609529 9.13223 2.19412
247 1 9.04842 4.12881 5.3165
248 1 1.26476 7.64826 4.96199
249 1 2.83905 1.05636 7.86043
250 1 2.1091 4.65954 3.01208
251 1 3.91403 5.03356 3.12007
252 1 4.54688 5.83295 7.28529
253 1 9.28721 6.57864 1.22377
254 1 7.37065 5.19141 6.51648
255 1 2.3122 7.19001 5.93601
256 1 1.84987 9.36576 7.23077
257 1 3.85609 7.83485 6.13715
258 1 9.35818 1.16516 3.81551
259 1 1.56849 0.830798 1.72826
260 1 8.01239 7.26123 9.37483
261 1 7.40078 3.11252 1.7005
262 1 1.60694 4.23218 7.98812
263 1 2.18008 1.14018 5.43394
264 1 1.14633 4.72109 6.23071
265 1 4.5146 6.46994 3.87441
266 1 5.6787 7.10355 1.182
267 1 2.4572 6.75208 0.0318469
268 1 1.2458 7.13383 2.35591
269 1 6.89269 0.662125 6.82324
270 1 5.60603 5.94738 1.39367
271 1 1.55383 3.67663 3.84578
272 1 2.23268 4.44023 7.41882
273 1 6.56171 2.66908 3.47225
274 1 8.6294 6.91172 3.32955
275 1 4.98799 3.13952 4.4857
276 1 1.61136 6.04039 0.108406
277 1 3.28378 6.88888 5.84823
278 1 8.58726 7.83573 3.10907
279 1 8.5863 5.17055 4.1678
280 1 2.55495 5.10349 8.994
281 1 6.64362 3.67847 6.36928
282 1 1.37355 1.53083 5.04166
283 1 5.30765 8.01438 3.14304
284 1 7.72488 1.87624 6.77157
285 1 1.88368 3.21919 5.39897
286 1 3.14076 2.20502 1.6255
287 1 7.08434 7.25587 5.60051
288 1 9.26045 5.21835 1.68198
289 1 1.03545 6.86487 4.13781
290 1 0.465162 8.96604 7.04085
291 1 3.59632 3.01308 1.38862
292 1 3.92556 4.78396 4.10999
293 1 1.29618 1.7796 9.19777
294 1 4.09356 3.94551 4.35657
295 1 6.27467 0.300214 3.77984
296 1 7.96881 4.5727 0.820104
297 1 7.67382 7.73612 3.44713
298 1 3.94613 1.40171 8.32474
299 1 4.52929 3.51738 1.53504
300 1 0.300536 6.2867 5.78563
301 1 8.69035 6.70256 0.488431
302 1 8.75407 0.527324 8.48708
303 1 7.25837 4.39799 6.07521
304 1 8.57766 0.344769 6.24948
305 1 5.68088 0.141872 0.309036
306 1 7.39391 5.80575 8.8184
307 1 4.18193 2.20849 7.11338
308 1 4.71786 8.21139 7.61647
309 1 2.38607 1.592 1.84931
310 1 0.557413 6.29195 0.0760661
311 1 4.20225 4.19898 3.47732
312 1 0.7613 6.86759 0.988541
313 1 0.162953 0.706728 7.3324
314 1 4.50724 7.35237 4.59855
315 1 2.79078 8.59832 3.49249
316 1 8.6204 8.80861 2.79064
317 1 6.97611 9.30022 3.40055
318 1 8.14166 9.11472 4.64819
319 1 4.52039 9.11114 6.68725
320 1 7.61814 3.23155 0.781034
321 1 1.05422 3.48557 7.99724
322 1 6.01309 1.91057 6.54094
323 1 6.55398 7.78733 6.47121
324 1 7.14402 8.1756 5.12037
325 1 7.30152 4.96927 8.55708
326 1 8.68091 4.88817 5.18082
327 1 4.55816 7.92779 5.41671
328 1 7.5215 5.3901 0.567283
329 1 4.05472 3.65797 2.75307
330 1 3.58319 7.97816 3.78091
331 1 6.90978 0.000396933 6.18904
332 1 7.11487 5.87622 1.67079
333 1 3.2223 9.2273 2.08438
334 1 2.8298 2.70661 4.45303
335 1 8.07207 8.47039 5.22172
336 1 2.27705 5.63847 2.85742
337 1 1.81465 5.29172 0.725228
338 1 2.83423 5.6505 3.65988
339 1 1.04886 0.455627 9.39372
340 1 0.271939 2.8172 6.5289
341 1 3.9892 7.14812 1.99624
342 1 3.01168 6.83208 3.32439
343 1 2.11061 1.43853 8.49562
344 1 2.28774 6.3296 5.51924
345 1 3.40392 8.5912 5.42244
346 1 2.31741 6.48323 0.999166
347 1 2.076 2.01822 4.62507
348 1 0.210598 0.843281 2.91773
349 1 3.613 7.56388 5.38281
350 1 3.01965 0.466568 8.68424
351 1 6.1775 9.20787 8.68106
352 1 4.85692 9.11495 7.76407
353 1 7.1392 0.697265 3.80769
354 1 7.71134 6.61934 8.82196
355 1 7.03642 8.32684 3.15014
356 1 6.8511 6.50364 2.57482
357 1 5.09465 1.43582 3.73049
358 1 0.414818 7.3042 0.169421
359 1 6.70504 8.5333 5.86756
360 1 8.23066 0.0675464 3.52596
361 1 4.61764 1.82613 7.92662
362 1 4.09631 0.380494 4.79531
363 1 0.445399 4.57579 2.00084
364 1 1.05616 0.146796 1.47378
365 1 4.53476 5.36783 3.7664
366 1 5.54909 2.92681 3.02133
367 1 2.06151 3.4648 1.11747
368 1 6.07249 3.70615 7.10132
369 1 6.70937 1.70948 8.06126
370 1 5.40965 8.59963 0.270009
371 1 8.57175 1.64028 3.89756
372 1 6.10817 0.688855 6.42372
373 1 6.5521 5.64339 8.98662
374 1 8.18168 3.96705 6.03347
375 1 7.39238 8.00136 5.93137
376 1 3.15092 0.845574 2.42709
377 1 5.61656 4.22225 8.28481
378 1 5.68677 6.17266 8.63073
379 1 1.45522 2.74604 1.51
380 1 2.70511 2.46952 6.26102
381 1 0.171744 0.37947 4.38789
382 1 3.55198 6.44287 1.58605
383 1 6.56717 5.67761 3.54877
384 1 4.43791 3.94159 6.76685
385 1 7.64201 8.94148 2.85759
386 1 0.866895 7.36081 8.16241
387 1 2.95252 7.57567 9.06677
388 1 1.09894 8.44456 6.36589
389 1 4.33703 3.07645 3.87349
390 1 4.64181 8.42538 8.5143
391 1 2.14507 0.687009 3.7134
392 1 3.59457 7.21507 4.35513
393 1 3.35303 3.88104 4.87362
394 1 7.58272 5.14719 1.49898
395 1 1.38768 1.36981 6.76209
396 1 4.3506 0.324682 1.47404
397 1 2.62132 6.92579 7.75067
398 1 1.14874 5.95853 0.876203
399 1 3.56248 0.544876 4.0492
400 1 0.771755 7.63028 6.77707
401 1 0.255924 2.19964 0.17507
402 1 6.13659 7.06168 4.16245
403 1 3.95263 2.60657 0.200015
404 1 6.13032 8.83136 3.19903
405 1 8.14439 5.66558 6.19893
406 1 5.52864 8.76244 1.73087
407 1 7.67844 6.46049 2.39141
408 1 1.32616 5.38767 2.98295
409 1 7.75041 7.45494 2.17295
410 1 3.62629 1.74368 2.52884
411 1 9.33497 6.37848 8.20737
412 1 2.57508 2.62991 3.44793
413 1 2.75303 8.21174 0.496854
414 1 4.76801 0.935596 4.55467
415 1 4.92675 5.24549 1.56533
416 1 5.33925 1.31327 6.24612
417 1 8.276 7.5643 5.84288
418 1 3.66815 5.45513 7.57177
419 1 0.544261 6.87214 5.1625
420 1 6.55566 4.53544 6.65652
421 1 8.10967 8.17003 0.40874
422 1 0.139058 4.57115 5.93432
423 1 3.15061 8.82415 9.33064
424 1 9.03222 4.58668 3.46584
425 1 5.04857 3.08079 5.37532
426 1 8.66112 2.04516 6.62974
427 1 3.16396 4.53163 2.18541
428 1 4.95695 4.19641 9.17891
429 1 7.14002 2.10274 4.03019
430 1 3.09915 7.25097 2.36197
431 1 3.34497 4.50458 7.28505
432 1 6.99064 4.62867 0.943849
433 1 0.0599006 5.15823 0.0887677
434 1 4.70115 8.43152 4.70529
435 1 4.0707 4.47182 2.45272
436 1 2.20248 6.62423 2.04386
437 1 4.5902 1.12034 2.98802
438 1 8.01911 4.23131 4.13884
439 1 8.07358 5.88927 0.0968825
440 1 9.12207 5.76283 4.75402
441 1 0.103077 1.59655 7.87249
442 1 5.86431 3.1795 3.87655
443 1 0.891023 2.25956 2.00917
444 1 8.62509 6.229 2.69482
445 1 0.917002 5.37669 2.19288
446 1 3.38455 4.79997 1.03551
447 1 5.44528 7.86607 5.09525
448 1 3.2578 4.03998 3.00922
449 1 2.08221 0.157285 4.58956
450 1 1.34364 0.0368636 5.29164
451 1 2.29799 1.74782 7.59115
452 1 4.45883 7.78802 3.77332
453 1 0.667214 6.15035 2.49502
454 1 7.30464 5.5383 2.58311
455 1 3.62364 7.92969 2.24975
456 1 1.6195 8.99648 9.37793
457 1 1.04718 6.33091 1.68977
458 1 7.76894 5.75271 8.01275
459 1 0.625755 2.63636 7.96484
460 1 6.96383 6.91286 9.17534
461 1 1.38798 2.07629 8.40418
462 1 6.08428 2.92947 1.6862
463 1 3.54719 5.25099 9.12591
464 1 4.06523 0.327258 5.93283
465 1 8.14343 4.20069 5.02904
466 1 1.62178 6.07523 2.41276
467 1 6.97667 1.33055 4.46294
468 1 9.03634 8.28088 5.89652
469 1 4.19667 7.87187 1.34126
470 1 7.86646 1.35943 1.61227
471 1 3.33252 3.01928 2.9872
472 1 0.364674 1.33971 0.545078
473 1 7.14354 6.89932 6.65844
474 1 7.95417 1.80319 4.78839
475 1 8.64443 8.70929 3.94425
476 1 9.04211 9.22879 5.66656
477 1 4.60608 8.82894 0.901747
478 1 7.13899 5.4435 5.48937
479 1 1.86344 2.70809 2.26485
480 1 3.3058 0.518737 7.34324
481 1 7.85353 4.83328 5.65549
482 1 5.53502 6.89018 0.295453
483 1 0.0620334 4.71675 4.81438
484 1 6.71771 2.80061 0.757999
485 1 6.50794 0.719328 9.10182
486 1 5.65329 8.18739 8.84777
487 1 6.4877 6.77962 0.889653
488 1 2.47374 1.17117 2.90885
489 1 2.37646 8.78353 6.65607
490 1 1.05192 2.70389 9.24431
491 1 2.56849 3.87056 5.37479
492 1 8.23993 5.68829 5.19208
493 1 7.92844 4.21867 7.77156
494 1 4.7156 7.19641 0.472947
495 1 2.16067 7.05856 8.64891
496 1 2.83359 9.33352 2.94994
497 1 2.07866 0.379907 2.60215
498 1 6.9383 1.52472 6.21864
499 1 5.62193 6.05614 6.65761
500 1 3.61929 8.13888 9.01616
501 1 7.6148 0.490426 5.9129
502 1 8.3881 2.64606 4.73055
503 1 7.19495 2.10945 3.08454
504 1 9.26887 5.5479 3.68442
505 1 6.96451 3.51302 7.47803
506 1 3.78736 4.42426 0.0541398
507 1 6.40749 2.98366 2.56081
508 1 5.20126 0.377452 5.19213
509 1 7.16585 0.191302 7.86466
510 1 5.66221 8.63049 7.78462
511 1 5.02067 4.35043 3.94516
512 1 8.85979 7.44351 0.0741671
513 1 3.46675 2.29958 5.16791
514 1 9.02009 4.51902 0.575873
515 1 9.0748 8.61806 1.96906
516 1 7.94741 0.458476 8.14771
517 1 5.17429 1.33039 7.27817
518 1 3.92662 2.41359 7.97529
519 1 3.93607 6.19532 2.58552
520 1 4.53814 7.775 2.81871
521 1 1.70718 0.993376 9.31573
522 1 8.14615 3.12315 9.39701
523 1 6.20338 6.50169 9.28013
524 1 1.85016 5.90543 1.47089
525 1 9.32847 5.40211 2.48756
526 1 7.62206 1.31513 7.47583
527 1 6.30743 4.71672 3.31307
528 1 8.81697 5.9465 7.66816
529 1 7.59009 4.96469 4.73957
530 1 4.96198 3.93682 4.9013
531 1 8.72115 1.18256 7.4423
532 1 4.01676 6.61479 7.73312
533 1 3.48718 0.473395 1.47015
534 1 7.73617 1.65782 8.36142
535 1 0.132906 6.47754 4.12571
536 1 4.30659 0.473087 7.292
537 1 5.77758 8.2619 5.9768
538 1 7.36598 1.20933 9.35966
539 1 0.44979 3.58656 5.58196
540 1 7.98231 1.89868 9.24696
541 1 7.674 8.18326 1.48482
542 1 3.50334 3.88772 1.42741
543 1 0.269131 8.88854 6.17387
544 1 1.43344 4.7559 3.72603
545 1 2.08091 7.77304 5.2443
546 1 5.58759 4.66426 0.263061
547 1 1.92985 4.23873 4.89727
548 1 6.10173 1.89066 5.65779
549 1 3.24198 5.46781 2.62001
550 1 6.78558 3.80625 1.34494
551 1 8.54368 8.35855 1.27357
552 1 2.78906 7.11431 6.67148
553 1 0.693121 8.04525 2.65541
554 1 4.56228 9.11512 2.76396
555 1 5.2435 3.86699 7.39401
556 1 3.82886 5.97189 3.47188
557 1 6.88618 7.65269 1.43691
558 1 8.99149 3.4543 2.08177
559 1 6.48502 5.08884 4.84973
560 1 4.49431 5.35893 5.83788
561 1 8.63683 3.92143 9.28621
562 1 3.11195 6.26978 9.14609
563 1 3.74343 0.206697 2.80422
564 1 6.42802 2.68742 4.45089
565 1 4.31447 4.56311 6.15475
566 1 8.28141 3.0676 1.48359
567 1 7.9638 3.19294 7.86391
568 1 1.23137 0.960888 5.94243
569 1 5.2426 3.01654 9.20567
570 1 6.24688 3.95676 2.20207
571 1 2.82239 1.61503 5.76621
572 1 3.57713 0.0743758 6.63409
573 1 6.84655 7.52598 3.7086
574 1 5.22132 7.6554 9.32451
575 1 4.28114 4.48836 1.58832
576 1 2.30604 4.15116 2.18244
577 1 9.01031 3.31111 3.71879
578 1 3.05978 5.90331 8.28093
579 1 7.74913 6.74124 3.29441
580 1 0.725109 5.07499 7.94502
581 1 4.83283 8.62557 3.74798
582 1 1.78594 3.87831 3.04262
583 1 8.08307 8.13155 7.54652
584 1 0.366486 1.23637 4.82443
585 1 7.53131 2.44448 5.27601
586 1 5.57723 7.35109 5.7996
587 1 3.20756 2.18182 7.15087
588 1 5.65394 1.13546 5.3146
589 1 3.58023 8.40144 0.641402
590 1 9.331 8.28056 3.2975
591 1 4.88872 1.35121 1.1934
592 1 8.66045 6.8507 8.80893
593 1 8.22108 8.16823 2.30535
594 1 1.88939 7.9636 6.23435
595 1 9.06015 0.20796 2.46611
596 1 1.51856 2.45059 5.51712
597 1 4.96179 6.40619 7.92936
598 1 4.16178 5.59422 4.8813
599 1 3.86487 8.62997 1.76358
600 1 7.08478 1.51429 2.02161
601 1 7.40883 4.09512 3.52437
602 1 1.81698 6.74388 7.59271
603 1 2.2191 4.77526 4.09232
604 1 2.69385 1.30728 6.80588
605 1 7.15611 4.83813 7.34983
606 1 5.42453 8.12744 6.97752
607 1 3.57137 5.45186 1.65123
608 1 1.29069 1.96452 7.46146
609 1 7.59407 8.06344 4.25719
610 1 1.00839 4.44159 5.39522
611 1 3.11855 5.84005 6.11767
612 1 7.5424 7.9451 9.10761
613 1 8.39535 5.34788 2.19118
614 1 2.25557 5.19317 6.45684
615 1 8.61353 2.24897 5.58729
616 1 3.6105 8.0828 7.91947
617 1 3.25708 7.50765 0.628656
618 1 2.85322 4.67658 5.14938
619 1 3.3969 2.26822 8.77165
620 1 2.5618 4.57787 1.45329
621 1 5.69003 6.30642 5.49611
622 1 2.25559 7.10706 2.85988
623 1 5.60588 3.73223 0.482409
624 1 3.89275 1.30927 5.75512
625 1 7.73746 1.82703 5.82506
626 1 3.91976 0.530187 8.0874
627 1 5.1594 8.89317 5.27909
628 1 4.89542 4.43057 0.92466
629 1 8.68604 7.77233 4.36417
630 1 6.75091 8.76751 1.6232
631 1 7.19753 2.43402 8.88495
632 1 1.07369 3.59119 4.89749
633 1 2.15302 8.72936 5.7052
634 1 3.30914 3.83773 7.87625
635 1 5.2108 2.0156 2.68724
636 1 6.75388 6.49344 3.99592
637 1 6.1434 6.99577 7.0795
638 1 6.0295 1.7553 4.65674
639 1 2.8781 8.01564 5.97702
640 1 7.648 9.09886 0.91929
641 1 2.52626 5.15816 7.96198
642 1 8.24791 4.94776 0.0668209
643 1 3.07258 6.24966 7.21731
644 1 4.13644 2.16253 1.23435
645 1 6.64682 8.57732 4.12964
646 1 8.14629 1.98448 3.0059
647 1 1.1281 2.28679 6.24935
648 1 3.13379 1.83181 3.23531
649 1 7.93679 8.17174 6.54892
650 1 8.70291 3.48013 8.45588
651 1 4.49524 3.38824 8.84187
652 1 6.86971 0.10557 0.304294
653 1 1.20091 1.41577 2.39245
654 1 3.01533 0.891712 0.315002
655 1 1.24454 1.86846 0.830658
656 1 8.1487 0.271113 2.39435
657 1 2.26222 6.10521 6.5618
658 1 0.852768 9.17119 4.18972
659 1 1.00097 3.04705 2.81046
660 1 3.78071 0.188146 0.532383
661 1 9.04535 8.97017 8.44917
662 1 5.11221 6.97437 8.78949
663 1 8.67131 7.58868 6.6011
664 1 7.97859 7.34975 4.98609
665 1 1.08853 8.43808 3.44286
666 1 2.94716 1.12353 3.90646
667 1 0.555769 5.45555 6.14818
668 1 6.81922 5.98504 0.391196
669 1 0.446961 2.05516 8.65332
670 1 7.74748 0.0700879 6.84831
671 1 5.26635 5.79918 4.41131
672 1 4.51144 6.89486 2.71939
673 1 1.57066 6.22968 4.55562
674 1 2.19722 3.38224 7.66964
675 1 1.02227 8.2597 7.52777
676 1 7.06849 0.902274 8.40477
677 1 1.24585 6.23504 5.9223
678 1 8.03548 2.95219 3.2613
679 1 6.83708 1.22738 3.0274
680 1 5.11762 5.32989 0.755489
681 1 3.01588 2.02212 8.00708
682 1 0.677994 3.57017 7.22673
683 1 1.16318 8.58983 5.52913
684 1 4.67599 6.71805 7.00543
685 1 4.42038 3.77483 5.77047
686 1 4.2885 3.87849 7.73452
687 1 9.2747 7.60067 0.899592
688 1 0.458237 9.19123 8.17241
689 1 1.82222 2.92658 6.24405
690 1 4.3902 7.1304 6.1062
691 1 9.3978 1.36077 2.18432
692 1 7.99678 4.81179 3.21872
693 1 4.73724 7.16297 1.3286
694 1 4.00908 1.59053 4.76567
695 1 1.9416 0.771279 7.61
696 1 0.46583 9.02232 5.00192
697 1 5.37522 0.177088 3.38173
698 1 7.54348 0.509298 1.62849
699 1 5.92601 1.91515 1.70054
700 1 7.83164 0.417952 0.235632
701 1 5.08771 2.49137 1.11583
702 1 4.23614 4.75665 7.37201
703 1 8.1548 5.3905 7.02454
704 1 1.00319 7.93955 4.11203
705 1 2.14065 6.45146 3.35361
706 1 1.32824 9.13807 7.90489
707 1 0.532995 2.20638 4.13069
708 1 0.469907 6.2696 6.62079
709 1 4.29419 6.54572 4.89432
710 1 0.542763 8.8064 0.0205863
711 1 0.958372 5.32133 0.134451
712 1 8.54767 4.25476 1.58332
713 1 1.6463 2.76469 0.670472
714 1 2.94027 4.11479 0.688238
715 1 0.49818 0.00883597 0.751142
716 1 3.24477 6.3489 4.06834
717 1 5.00658 4.65706 7.92324
718 1 5.31022 7.30442 6.714
719 1 3.59905 2.43032 6.36089
720 1 1.94115 8.26078 7.30574
721 1 8.2598 6.29597 7.03513
722 1 5.48829 8.75995 2.5819
723 1 5.09612 5.13627 6.48401
724 1 6.9275 2.70536 6.66491
725 1 5.39991 9.02396 6.93772
726 1 8.32332 0.86888 0.858427
727 1 8.49581 8.21181 8.9366
728 1 4.0055 1.11702 0.826689
729 1 4.3942 0.644204 9.00857
730 1 8.51172 9.19298 9.38235
731 1 8.29369 7.42705 1.21006
732 1 3.9403 8.3122 7.08383
733 1 3.13743 4.85292 6.24234
734 1 4.24335 8.95677 9.36085
735 1 0.947544 6.74543 7.257
736 1 4.32595 2.78933 2.01521
737 1 2.12151 5.39197 4.74308
738 1 0.531051 2.66807 5.49052
739 1 5.77934 3.88904 3.03516
740 1 0.349484 3.13002 8.78313
741 1 8.97119 2.86587 0.516552
742 1 0.755672 2.86234 0.928457
743 1 7.62733 2.34336 1.23636
744 1 0.0528798 6.33884 3.12287
745 1 6.40784 8.78447 0.0506279
746 1 9.32023 2.78397 1.70875
747 1 0.774297 7.79944 1.52641
748 1 3.65694 2.96084 4.44906
749 1 1.84317 7.28102 4.3141
750 1 5.98386 7.92345 1.80478
751 1 2.90914 4.87232 3.20942
752 1 6.2552 7.9129 2.86096
753 1 8.43003 3.8796 3.35518
754 1 5.33466 2.26012 8.55007
755 1 2.30943 0.409181 0.0234355
756 1 5.62696 0.970121 4.24174
757 1 0.459763 9.23699 3.25769
758 1 1.21403 0.00388513 2.78988
759 1 7.57353 3.38701 4.98389
760 1 7.19601 3.46808 2.70318
761 1 4.65263 2.97649 7.44217
762 1 4.27268 9.12221 8.45471
763 1 0.0789012 0.501706 5.39411
764 1 8.63957 4.84364 6.0035
765 1 0.879357 5.79296 3.84788
766 1 5.33585 2.26105 6.95483
767 1 4.99163 8.08303 1.8802
768 1 4.76813 4.99623 4.65132
769 1 5.02834 1.44944 8.7876
770 1 7.62063 4.08689 1.55795
771 1 6.61105 8.06237 9.12715
772 1 1.22492 6.41546 3.16509
773 1 8.6805 6.93665 4.2014
774 1 1.91684 7.97882 -0.0111162
775 1 6.31165 8.5099 0.979594
776 1 2.55516 8.35227 8.79967
777 1 3.53119 5.28597 5.50494
778 1 6.36481 2.38504 8.64564
779 1 4.83128 0.597804 6.55008
780 1 3.14381 6.47952 0.564378
781 1 1.75985 7.98882 2.67757
782 1 3.43606 7.21884 7.44952
783 1 6.84232 2.38789 1.7135
784 1 9.04262 5.4982 6.70884
785 1 7.17818 8.19771 2.23275
786 1 8.7094 4.75216 6.99046
787 1 7.13397 4.31354 2.64754
788 1 4.41089 2.48346 4.91224
789 1 9.03514 7.6037 8.33225
790 1 8.75194 1.34292 5.65481
791 1 0.626653 8.15697 0.597897
792 1 8.28937 3.47423 6.98891
793 1 3.03724 2.95849 7.92073
794 1 3.90289 8.10373 4.65349
795 1 5.5629 5.47962 2.16531
796 1 8.20329 0.852982 4.09955
797 1 6.8286 1.93314 0.910297
798 1 5.72402 3.52821 4.74685
799 1 1.69708 7.58007 7.95235
800 1 0.680728 0.663708 2.14615
801 2 3.60398 8.9171 4.57248
802 2 8.02247 2.6794 8.61782
803 2 5.91715 2.87359 6.10785
804 2 0.408865 6.91294 1.94062
805 2 2.00886 1.13311 1.06171
806 2 1.4481 0.81825 3.12249
807 2 8.94564 3.95901 7.53474
808 2 5.86231 9.21358 5.97197
809 2 6.09269 6.7016 8.16011
810 2 8.99493 2.51038 8.02641
811 2 3.3445 0.127959 5.22122
812 2 1.17283 0.720184 4.59647
813 2 8.3449 9.17991 1.61838
814 2 6.81269 7.45861 8.11267
815 2 8.55134 0.92269 9.33489
816 2 0.838612 0.702039 3.71526
817 2 8.21006 0.879327 5.11424
818 2 0.909167 0.902718 1.06939
819 2 7.38241 9.16305 4.22229
820 2 1.48127 1.58156 4.06731
821 2 3.1456 6.20735 5.12032
822 2 6.48911 0.634171 4.62453
823 2 8.85185 2.49163 9.04867
824 2 7.35421 1.01936 0.762551
825 2 7.83946 0.974709 6.62217
826 2 8.52032 3.62716 0.784555
827 2 4.16878 4.83913 0.78798
828 2 0.224722 7.08821 6.2172
829 2 0.27991 0.63305 8.36384
830 2 3.78426 8.68501 2.65492
831 2 2.40254 1.89752 3.73783
832 2 2.23462 4.54921 5.83738
833 2 1.05176 8.23712 8.65174
834 2 7.17935 7.26455 2.88509
835 2 8.06942 6.60659 5.70056
836 2 6.72903 1.71069 0.134068
837 2 7.14156 8.28713 0.662605
838 2 5.00191 6.38242 6.08686
839 2 4.14573 1.27457 3.79089
840 2 0.723297 1.19112 8.93878
841 2 0.708513 3.2654 3.84981
842 2 1.00237 0.441397 7.38661
843 2 0.122229 8.49533 4.1937
844 2 5.96766 4.04881 4.02156
845 2 9.11545 5.59809 5.79572
846 2 5.80881 2.89613 0.722927
847 2 8.81489 6.30743 6.30256
848 2 1.97459 5.59584 3.7303
849 2 6.17024 5.98832 7.46872
850 2 6.19478 6.78822 6.18178
851 2 4.9749 1.25172 0.328088
852 2 8.72298 4.47178 8.47793
853 2 4.67898 8.95287 1.84764
854 2 7.4703 3.48048 6.7124
855 2 3.25464 8.97177 8.24012
856 2 1.00532 2.792 7.00973
857 2 4.49361 8.07812 0.280605
858 2 6.54407 6.00312 6.61697
859 2 3.97821 7.02377 0.0660767
860 2 6.81548 0.142755 1.18126
861 2 0.241533 2.15992 7.16431
862 2 5.75171 2.86807 7.8368
863 2 2.89194 9.41196 3.88936
864 2 0.201479 7.97043 9.12972
865 2 6.32876 4.71218 8.88528
866 2 7.12815 8.59815 6.66624
867 2 4.71726 0.314732 0.479393
868 2 5.41918 3.84337 5.82625
869 2 4.97045 4.72633 2.92112
870 2 7.97389 4.35693 6.83312
871 2 8.95621 4.24318 4.27424
872 2 5.01436 3.39989 8.13918
873 2 1.99489 2.46555 7.01154
874 2 6.34282 6.22555 1.96496
875 2 4.39829 7.57736 8.75724
876 2 4.62441 5.557 8.10942
877 2 3.5328 7.22225 8.41306
878 2 1.84076 8.03507 1.19312
879 2 5.22455 6.8419 4.45494
880 2 8.72893 7.0092 1.98601
881 2 7.28486 6.19928 6.06888
882 2 5.13237 9.10897 8.84672
883 2 1.60924 9.31976 6.33795
884 2 5.61464 2.29414 3.78079
885 2 3.38822 1.00777 5.06736
886 2 2.77663 8.20906 2.46707
887 2 8.62051 6.89418 7.79434
888 2 4.23772 3.38101 4.97739
889 2 2.73767 7.61854 3.98484
890 2 5.60552 0.579406 8.83271
891 2 2.56114 0.367361 0.951875
892 2 6.51803 1.00195 5.53889
893 2 0.626856 5.72577 8.69686
894 2 0.396755 5.49357 5.26262
895 2 7.61356 2.2398 2.25474
896 2 1.24828 2.62121 4.57775
897 2 1.00084 4.39546 4.49405
898 2 5.89947 1.04953 3.34846
899 2 6.07331 7.36275 8.7733
900 2 2.92521 1.7245 4.65328
901 2 4.37867 2.5418 8.79371
902 2 5.2307 2.18341 5.91844
903 2 0.356894 7.74475 4.75403
904 2 1.54018 5.27466 5.68378
905 2 7.94942 4.31166 8.75343
906 2 7.91523 1.65457 0.713855
907 2 2.20266 9.01793 0.722961
908 2 1.05457 3.31035 6.16423
909 2 5.12637 5.07137 8.78852
910 2 8.32211 2.18897 7.5026
911 2 6.36518 8.38171 8.29039
912 2 2.59134 0.661793 1.79048
913 2 8.22689 3.78736 2.44264
914 2 8.87694 2.95216 6.20446
915 2 6.68058 3.67228 4.53137
916 2 8.67564 0.691754 1.7752
917 2 3.89508 7.06264 3.30095
918 2 6.16516 0.564777 2.6399
919 2 5.99513 6.92691 5.03246
920 2 9.29381 6.16826 2.09131
921 2 5.24899 4.68585 5.63755
922 2 3.13973 8.06409 1.383
923 2 9.14626 2.52964 4.20683
924 2 9.27445 3.81793 1.31484
925 2 0.365818 4.89342 2.95698
926 2 5.64698 2.59895 5.06123
927 2 -0.0268788 2.05014 5.08869
928 2 7.00075 4.86039 0.0981363
929 2 5.11425 7.94826 0.915364
930 2 2.38342 9.14835 1.74464
931 2 9.00547 4.50788 2.42232
932 2 6.31444 1.07453 1.76813
933 2 7.52328 2.53653 0.307781
934 2 0.0465247 0.395385 9.19249
935 2 3.092 2.9674 9.2023
936 2 2.37956 9.19269 8.67725
937 2 2.24272 4.60011 0.429967
938 2 6.30265 7.64778 0.580234
939 2 1.81816 4.39231 9.09446
940 2 8.45864 2.71822 2.41627
941 2 6.41111 9.41145 7.17795
942 2 4.87879 9.38136 5.92819
943 2 8.90635 8.58483 7.61243
944 2 7.41682 7.20814 0.683093
945 2 4.0754 1.63915 -0.0125796
946 2 5.80064 1.95061 0.787778
947 2 7.84535 7.13666 7.07481
948 2 3.70847 2.22487 3.94653
949 2 5.84892 6.32921 3.71734
950 2 3.86655 1.35742 7.42437
951 2 7.23206 9.35454 8.83454
952 2 4.86617 2.29697 0.161862
953 2 6.35487 2.00818 2.48358
954 2 0.353102 4.15838 8.09281
955 2 8.86357 1.8506 0.399439
956 2 1.51026 3.59818 2.0197
957 2 4.01441 6.6144 0.77841
958 2 5.85153 1.77491 7.69806
959 2 9.39407 7.22242 2.67258
960 2 4.40536 7.52308 7.01634
961 2 6.43694 4.03558 0.437188
962 2 4.89362 0.597052 8.13181
963 2 1.42421 5.84974 7.80934
964 2 5.92454 3.67282 9.03327
965 2 7.67724 6.18846 4.6429
966 2 2.87159 4.35111 9.19898
967 2 6.39583 2.48336 7.39885
968 2 6.09868 5.29273 6.89717
969 2 1.45163 8.63219 1.92852
970 2 6.28612 7.68052 5.41695
971 2 2.93514 3.20968 0.661325
972 2 3.77064 5.71071 0.729415
973 2 2.76387 5.24237 7.1561
974 2 8.76208 1.9002 1.50971
975 2 0.130327 3.2001 2.84202
976 2 3.03001 3.60397 2.10676
977 2 8.44464 5.87101 8.67063
978 2 5.97386 1.47755 8.69868
979 2 6.81872 2.81908 5.61886
980 2 2.05933 8.53659 8.12789
981 2 0.569068 5.93938 7.53225
982 2 4.94345 5.90829 5.20328
983 2 6.38848 5.44195 2.57148
984 2 7.59438 3.46031 8.65364
985 2 0.111223 7.02284 8.8505
986 2 2.1027 7.98616 3.53993
987 2 3.61812 4.16812 5.79632
988 2 6.19189 4.51658 7.64057
989 2 5.31265 0.449295 7.31789
990 2 3.87821 6.535 6.70052
991 2 0.296122 2.56202 3.44495
992 2 2.64971 7.0219 5.09176
993 2 9.08894 7.37941 5.46239
994 2 0.0428454 3.77813 0.355956
995 2 6.68797 1.61805 7.11063
996 2 6.50533 5.51907 1.19672
997 2 7.71877 8.93651 6.00771
998 2 3.04876 1.5106 1.10693