#bin. KALJ data file T=0.5

1000 atoms
2 atom types

0 9.4 xlo xhi
0 9.4 ylo yhi
0 9.4 zlo zhi

Masses

1 1.0
2 1.0

Atoms

1 1 0.12438 8.44625 5.9223
2 1 4.04313 7.04844 4.0469
3 1 8.8124 1.6243 6.08292
4 1 4.79654 9.13535 4.25035
5 1 0.221168 1.36685 7.95343
6 1 3.95319 0.480127 4.51236
7 1 6.41949 8.50652 7.46161
8 1 7.76105 2.88955 1.52593
9 1 4.45735 2.09858 0.515752
10 1 1.06751 2.49758 5.20097
11 1 1.40765 4.09249 2.92422
12 1 9.40135 2.44977 4.80431
13 1 8.48554 4.0418 5.69096
14 1 2.37499 5.83278 8.26299
15 1 3.40469 4.64954 7.59712
16 1 1.63794 9.37772 8.47613
17 1 4.1015 8.5822 2.67074
18 1 4.01197 3.02003 8.048
19 1 5.40599 1.6474 4.3977
20 1 3.92737 6.85066 8.45481
21 1 0.14466 8.81956 9.39064
22 1 8.9034 0.267018 4.66368
23 1 6.64141 8.98261 6.52446
24 1 6.09956 8.27151 1.05192
25 1 3.7145 2.63786 5.43683
26 1 4.3218 3.91717 8.65695
27 1 8.38279 0.0689583 1.0331
28 1 3.83993 2.31992 6.29178
29 1 0.372614 8.10002 4.03148
30 1 8.84148 1.25361 2.21657
31 1 5.63411 4.67694 7.54068
32 1 8.72477 0.906585 5.42146
33 1 5.02126 2.78209 1.60485
34 1 8.35656 4.93931 2.02193
35 1 7.05677 4.33648 2.36476
36 1 0.505109 0.523874 8.09277
37 1 3.96922 1.1392 8.299
38 1 5.60735 0.19312 6.63843
39 1 4.64168 6.03205 1.56434
40 1 8.76101 5.82793 1.83639
41 1 3.5784 6.38274 7.00345
42 1 8.86159 0.0447874 7.50387
43 1 9.27563 3.44406 4.50919
44 1 4.75143 2.96459 7.60844
45 1 4.55949 3.00677 5.56919
46 1 3.24595 8.08252 5.16849
47 1 2.61139 4.30403 6.12692
48 1 6.13176 0.345339 2.16887
49 1 1.79624 3.32265 3.67721
50 1 2.8792 2.42988 8.667
51 1 6.4551 7.04476 7.79755
52 1 8.24524 8.11094 4.073
53 1 3.85594 6.21339 5.37424
54 1 1.52294 1.91876 1.1155
55 1 7.8133 7.71186 6.56354
56 1 7.51706 1.23394 9.33397
57 1 1.34309 9.04767 2.34824
58 1 0.778543 2.93918 2.17834
59 1 8.35049 7.79762 9.23136
60 1 8.66047 3.18767 1.32923
61 1 1.42106 5.23393 3.34076
62 1 1.31257 5.77043 2.53193
63 1 4.51022 6.4084 4.70758
64 1 3.2781 4.06717 6.74499
65 1 7.27118 1.73556 3.07678
66 1 7.4231 6.16534 8.97828
67 1 8.27368 6.61341 5.29168
68 1 0.201207 5.73352 2.16093
69 1 0.170963 2.27913 5.66201
70 1 2.35826 3.03042 7.25595
71 1 6.9022 2.79315 7.85148
72 1 3.35994 9.16316 6.05332
73 1 4.01607 2.69657 0.976042
74 1 0.188546 0.0841676 0.868126
75 1 3.08396 8.38239 4.04637
76 1 3.86396 7.12827 6.6506
77 1 8.36157 2.45753 8.60481
78 1 1.52869 4.29427 4.59055
79 1 5.80642 6.66123 0.185559
80 1 8.2854 2.7519 7.73123
81 1 8.83822 1.6686 8.75915
82 1 1.39397 0.517306 7.77717
83 1 7.93208 1.56064 8.24696
84 1 4.16799 1.73918 4.72167
85 1 4.50239 1.72204 5.62684
86 1 6.15072 5.39994 0.615544
87 1 1.28762 1.91675 0.239891
88 1 7.08774 5.50921 8.352
89 1 3.80491 0.943894 0.703254
90 1 4.69726 3.42447 4.74172
91 1 7.38114 5.97981 3.18014
92 1 3.55515 1.94775 8.2998
93 1 0.576722 2.45749 6.43722
94 1 6.09734 4.23472 1.15354
95 1 3.15762 1.79836 3.37374
96 1 4.20865 0.170066 6.22041
97 1 1.03276 3.27314 0.396669
98 1 3.48722 6.5956 6.13946
99 1 6.63845 4.5804 8.63627
100 1 3.28046 6.33449 1.47134
101 1 7.47754 5.04912 1.70103
102 1 8.21753 8.77208 4.84817
103 1 4.00184 1.66024 3.00207
104 1 1.30887 8.54551 3.3992
105 1 4.38679 7.26078 2.89007
106 1 6.09157 3.79577 3.54134
107 1 0.49616 0.0810756 2.44354
108 1 9.19337 8.76128 8.18828
109 1 4.25952 8.71629 1.66535
110 1 9.17288 1.16786 7.23233
111 1 1.19985 0.393754 5.18385
112 1 0.185615 4.77304 4.64083
113 1 2.32441 2.07042 9.34554
114 1 7.38493 6.70156 8.27418
115 1 8.72847 7.91616 5.3867
116 1 8.86817 8.38004 7.05901
117 1 5.28086 9.14768 3.41967
118 1 3.13876 6.65114 7.97807
119 1 8.80237 7.27938 8.39976
120 1 4.43679 6.35894 6.268
121 1 6.97871 0.542186 0.0444832
122 1 7.97853 4.21402 4.98294
123 1 5.01679 7.22679 4.73297
124 1 9.31943 4.98316 1.31735
125 1 0.765605 2.07814 1.78898
126 1 7.59397 5.1275 9.16794
127 1 1.73235 6.06137 7.61403
128 1 4.59845 6.30899 9.31254
129 1 5.67046 5.40393 5.03329
130 1 2.21561 3.79378 6.76979
131 1 6.98681 6.85267 6.97023
132 1 4.64856 8.46684 3.43381
133 1 5.65843 8.32964 5.21076
134 1 5.48291 2.77841 6.86528
135 1 8.4346 9.21735 1.97834
136 1 3.42507 3.28583 3.09201
137 1 4.05749 7.16165 5.43122
138 1 4.80639 4.27739 9.32234
139 1 4.78356 5.69311 5.27055
140 1 6.58359 1.75365 2.13122
141 1 7.87507 0.977766 0.704603
142 1 5.20792 9.1077 9.00946
143 1 2.03461 6.04717 3.4072
144 1 3.6311 0.561299 3.1129
145 1 0.0851468 3.0687 3.19402
146 1 9.1995 2.1971 2.46249
147 1 7.81492 8.36049 5.46077
148 1 6.6871 7.99178 0.467918
149 1 9.05325 4.89555 2.82638
150 1 6.89197 0.139466 0.815465
151 1 8.88343 7.21853 1.23718
152 1 8.53976 8.50952 3.2425
153 1 3.45858 9.36584 9.11276
154 1 3.32601 0.322073 5.31364
155 1 3.05111 4.58916 4.0278
156 1 0.446454 7.22233 3.51363
157 1 8.18488 9.38928 3.23089
158 1 5.86448 7.41926 0.849008
159 1 9.33822 8.09007 3.17071
160 1 6.55413 1.1651 2.88398
161 1 0.285626 3.42064 8.07516
162 1 2.51805 8.1652 0.644036
163 1 1.86255 2.65881 8.93889
164 1 3.75122 1.82901 7.37411
165 1 0.0886241 6.75559 0.779982
166 1 0.481772 5.83041 5.27299
167 1 4.72447 1.0671 4.51565
168 1 2.84008 2.46395 6.6474
169 1 6.51119 2.00711 6.45046
170 1 5.75817 6.52955 7.22121
171 1 1.31824 2.51634 3.90951
172 1 5.05142 4.36506 8.24754
173 1 1.96951 0.692713 2.70373
174 1 0.511305 6.30653 4.40802
175 1 3.62039 4.34414 5.99895
176 1 5.47068 6.46278 1.84431
177 1 7.42362 8.42683 6.93564
178 1 0.911105 0.644674 4.05666
179 1 1.9797 7.66185 0.0423256
180 1 4.76689 3.67458 3.70939
181 1 5.37465 2.70862 0.455914
182 1 1.41121 5.53155 1.54055
183 1 6.9763 6.71002 5.12671
184 1 4.42297 0.0398671 8.74071
185 1 5.07101 8.29643 6.01407
186 1 7.17767 2.00709 8.86158
187 1 5.0267 1.1208 0.52278
188 1 4.72937 7.34134 6.10876
189 1 5.90403 8.75828 0.233467
190 1 0.952604 7.19172 4.33319
191 1 3.04189 4.92507 9.19277
192 1 9.30521 7.71402 2.0361
193 1 0.864006 4.75667 1.69185
194 1 0.736329 1.28007 0.355197
195 1 9.11595 3.9184 2.61312
196 1 0.142642 4.49251 3.83689
197 1 5.13203 8.74239 1.19624
198 1 1.19792 4.32778 6.73688
199 1 3.01449 3.85689 4.95863
200 1 0.564035 3.98346 4.59806
201 1 2.73158 1.66086 8.3826
202 1 1.44834 6.85093 1.54337
203 1 1.34588 0.140502 6.67516
204 1 1.51114 8.08756 8.58624
205 1 7.89815 7.69235 8.10243
206 1 9.05806 1.14831 0.179848
207 1 2.19545 8.33485 3.77227
208 1 9.25156 4.05943 5.16744
209 1 3.66349 7.79725 2.76436
210 1 9.04493 9.01197 5.28202
211 1 0.613336 3.52627 9.14249
212 1 0.524991 2.21994 0.813566
213 1 6.62955 4.96412 7.85729
214 1 2.77897 8.16033 8.99132
215 1 2.54253 8.78605 5.40074
216 1 3.85834 6.10705 0.652638
217 1 3.93899 0.0634735 2.25825
218 1 8.23298 6.38334 1.28786
219 1 8.96394 6.04628 4.83311
220 1 1.97744 6.54887 9.11922
221 1 6.64808 8.52977 5.31954
222 1 6.84302 6.23335 7.65545
223 1 4.24371 1.68316 8.95462
224 1 1.86082 1.69929 8.6514
225 1 9.28655 4.15244 7.67722
226 1 6.07935 5.26265 1.73889
227 1 4.06803 2.68379 4.62192
228 1 7.57832 3.79627 1.67826
229 1 8.67415 3.51235 8.05157
230 1 9.38515 5.81756 6.89132
231 1 3.3704 3.42519 0.431519
232 1 7.53422 3.74488 4.28305
233 1 1.12322 5.85289 5.8967
234 1 6.24292 7.44724 3.24047
235 1 2.37842 8.65351 2.43737
236 1 4.65139 5.60903 8.28423
237 1 5.92115 1.00889 8.56616
238 1 1.43615 6.70793 3.71739
239 1 0.273757 4.91387 5.62457
240 1 2.27624 0.806286 7.52673
241 1 7.62561 5.04896 2.66227
242 1 7.44135 3.8511 9.29057
243 1 6.08155 7.78566 4.6103
244 1 6.34371 2.29445 7.39165
245 1 7.03474 1.0252 0.979961
246 1 8.58466 1.0323 1.29906
247 1 5.50312 5.93334 9.20397
248 1 3.48928 5.79907 2.80434
249 1 0.744707 5.23061 6.55082
250 1 3.50016 5.88162 9.14284
251 1 7.27712 5.62784 4.20748
252 1 2.50268 5.84553 2.67363
253 1 7.01188 8.68678 1.0582
254 1 5.69516 4.39435 9.26587
255 1 6.09319 7.01203 5.04652
256 1 8.7992 4.19636 4.30503
257 1 0.474248 0.895291 2.16402
258 1 1.44109 3.38595 8.60053
259 1 6.34002 1.8411 0.980812
260 1 2.94572 7.21383 5.49435
261 1 2.20334 4.45385 7.38245
262 1 2.02925 3.60297 2.38433
263 1 6.10877 0.348865 3.59419
264 1 5.25344 5.42419 1.46897
265 1 5.44298 1.89979 3.29965
266 1 0.526315 3.29025 6.36781
267 1 6.37459 7.42764 6.92288
268 1 7.63578 0.242815 1.50955
269 1 2.35549 5.43418 1.04714
270 1 4.20761 4.3566 6.73647
271 1 8.129 9.21319 6.89602
272 1 0.535728 5.08065 0.686839
273 1 5.77922 0.249265 5.19692
274 1 6.50296 6.26003 8.4043
275 1 2.48252 6.32365 7.46288
276 1 4.09638 1.1246 6.23132
277 1 0.376069 1.37763 6.50782
278 1 8.91473 0.314596 8.66932
279 1 2.67114 1.48248 1.73619
280 1 2.29477 0.830957 8.53301
281 1 6.82043 2.62979 1.37189
282 1 0.790375 3.04036 1.34421
283 1 1.47441 3.22872 4.57361
284 1 0.439829 6.39181 6.37611
285 1 8.24961 1.8389 0.0697356
286 1 3.36095 8.70434 8.361
287 1 8.30533 2.82334 2.22075
288 1 0.379848 0.684261 4.83013
289 1 1.36345 2.66533 6.05207
290 1 1.83049 3.71929 9.2947
291 1 5.42652 0.433138 0.0647001
292 1 5.75233 1.1183 3.71025
293 1 3.24637 2.85523 4.00586
294 1 6.56878 2.77565 2.15465
295 1 5.05605 4.40027 6.81659
296 1 2.20092 4.51971 2.74123
297 1 5.44069 5.90682 6.08424
298 1 0.490202 3.81949 3.10236
299 1 8.70059 5.15588 4.8302
300 1 3.73715 0.894618 9.11288
301 1 5.73087 6.00543 3.7377
302 1 8.23845 1.17472 3.27064
303 1 0.596683 3.79915 7.11451
304 1 7.97225 3.46435 7.35982
305 1 5.10195 5.02321 6.16561
306 1 6.36288 0.687793 6.81812
307 1 8.23326 5.41531 1.21955
308 1 2.28589 9.17643 4.27498
309 1 1.4209 6.74842 0.428066
310 1 6.28052 4.73475 2.96655
311 1 1.42422 7.41268 6.4725
312 1 1.42903 1.94933 2.79944
313 1 1.12211 6.13932 9.02644
314 1 3.52842 1.94315 1.13853
315 1 4.3646 8.81872 0.321391
316 1 7.38092 7.4752 2.07382
317 1 4.42044 4.28016 2.49267
318 1 5.81107 2.65257 1.32472
319 1 4.00254 4.8986 8.91797
320 1 5.86008 4.39281 6.43291
321 1 7.64978 4.95372 6.31779
322 1 8.58877 6.74617 0.509188
323 1 2.49651 0.587022 5.77401
324 1 2.93392 2.603 0.607743
325 1 6.62611 1.2852 9.15781
326 1 0.312729 8.54924 4.99169
327 1 0.137137 4.19866 6.26303
328 1 6.00099 4.44835 4.98699
329 1 4.32321 5.45066 6.58017
330 1 0.283694 7.9326 7.39212
331 1 6.42651 3.72771 0.0473968
332 1 6.76872 0.0976589 2.99105
333 1 5.49003 1.64943 1.48913
334 1 0.0644046 2.58378 8.32974
335 1 2.03478 8.67128 9.21666
336 1 1.69295 7.61303 4.19575
337 1 0.78794 0.322435 0.168187
338 1 7.76804 2.05141 4.00474
339 1 7.38968 2.08335 4.8958
340 1 5.66296 5.4168 6.94791
341 1 5.21931 6.75019 0.91704
342 1 8.95927 6.19619 9.36602
343 1 7.43952 7.65643 1.11964
344 1 1.01887 3.97614 3.91712
345 1 3.2215 0.660409 6.23469
346 1 1.63032 5.03083 0.55188
347 1 1.13308 8.70741 9.23293
348 1 1.10927 9.04374 7.3668
349 1 2.80194 5.31036 5.3808
350 1 3.72813 3.53364 3.89373
351 1 5.5678 7.56594 6.7801
352 1 7.75506 8.20747 2.63335
353 1 5.08571 7.16607 9.31349
354 1 1.83787 9.23756 5.96783
355 1 5.89979 3.77355 2.63271
356 1 1.36026 8.16446 7.63461
357 1 7.22607 0.161808 3.87013
358 1 5.79075 7.02451 4.11118
359 1 4.2612 7.82219 4.3937
360 1 6.49088 7.34087 5.82318
361 1 6.38197 6.19289 4.41787
362 1 8.29005 0.732523 7.16298
363 1 0.434477 0.323636 6.65178
364 1 3.64941 2.03255 0.17923
365 1 5.1879 7.67999 3.28365
366 1 4.61507 1.33937 6.99978
367 1 8.08126 2.33684 0.805613
368 1 6.74408 9.3948 5.6871
369 1 5.71055 1.3668 2.62467
370 1 5.69323 4.85627 8.54159
371 1 4.55011 8.01999 5.26852
372 1 8.24403 5.65596 0.117809
373 1 0.982508 1.72319 3.65345
374 1 0.646796 3.0211 4.28169
375 1 2.87295 7.43372 1.35673
376 1 0.898279 6.19802 8.17648
377 1 7.68277 6.06427 7.82912
378 1 7.93007 6.81746 7.15625
379 1 1.56635 3.64876 1.04652
380 1 5.41019 4.01205 4.29253
381 1 8.80769 1.87426 3.97443
382 1 1.2624 0.353139 3.14439
383 1 9.16753 2.44351 1.41997
384 1 6.633 8.43126 8.69126
385 1 8.71141 6.52039 6.69421
386 1 8.73692 5.0404 7.9345
387 1 2.52414 1.54835 5.1785
388 1 4.24391 2.54758 2.80695
389 1 5.74185 7.02046 8.61724
390 1 1.72676 4.38909 5.93208
391 1 0.785116 0.850925 5.95564
392 1 0.569348 9.22261 4.30538
393 1 9.02606 0.304702 2.75154
394 1 2.89296 7.48352 3.85882
395 1 9.16499 1.3635 4.77468
396 1 7.78494 8.57463 1.55057
397 1 4.36145 3.24886 9.29384
398 1 2.09493 4.77449 5.00201
399 1 8.44479 4.17865 8.5582
400 1 0.61174 4.88297 8.35814
401 1 3.47417 0.712532 1.45054
402 1 5.78977 4.55795 3.73466
403 1 6.95508 4.17419 4.91633
404 1 2.02887 0.875675 1.40865
405 1 8.30248 2.66421 5.68146
406 1 2.56225 0.0195464 8.80081
407 1 7.43938 0.834725 3.11144
408 1 1.93732 1.04905 0.24267
409 1 5.80026 5.94372 2.52904
410 1 9.21225 0.349843 3.69701
411 1 7.57479 2.11604 7.69534
412 1 1.92994 8.45992 1.67997
413 1 5.01264 8.2222 4.26532
414 1 8.79326 2.73854 3.72248
415 1 6.80482 8.51762 2.93521
416 1 1.4337 8.42582 4.42244
417 1 9.10371 5.73208 5.8339
418 1 7.88613 2.86141 3.4399
419 1 2.89171 2.38723 1.80795
420 1 2.06664 6.62627 5.36546
421 1 9.24055 3.05708 2.16864
422 1 5.37093 0.808683 7.69807
423 1 8.11048 7.34877 4.75204
424 1 0.35882 3.17581 5.30158
425 1 2.98203 6.12659 5.60637
426 1 5.19832 3.49586 8.57444
427 1 1.93725 4.58002 1.54083
428 1 4.05555 8.77293 4.31476
429 1 3.19097 3.44034 5.98358
430 1 4.00936 5.07315 2.24038
431 1 3.86147 2.20864 3.85313
432 1 3.88579 6.12992 3.56884
433 1 9.25692 7.87819 0.193401
434 1 6.16814 3.02878 8.93468
435 1 4.10004 6.34815 2.14156
436 1 3.3798 2.39368 2.70308
437 1 9.11481 4.90698 6.6984
438 1 3.99253 3.6552 1.19343
439 1 2.87939 3.87321 7.62625
440 1 2.5364 5.07755 3.38866
441 1 7.98362 1.46116 5.65647
442 1 8.7459 8.28273 1.61124
443 1 3.42844 5.35925 0.579036
444 1 9.01854 7.90608 4.5424
445 1 8.35705 5.62826 6.37119
446 1 6.38402 2.7407 5.50408
447 1 4.87911 5.60168 2.36233
448 1 3.29969 4.31468 0.779366
449 1 2.43044 8.12313 4.66825
450 1 4.74142 6.9066 6.95486
451 1 8.92061 5.25674 3.89687
452 1 7.29579 5.28789 7.31688
453 1 5.42285 1.83945 0.161774
454 1 7.49488 0.82491 7.71155
455 1 8.0094 4.85299 4.42313
456 1 1.06211 6.12341 1.06468
457 1 6.72438 3.92689 6.5111
458 1 4.36503 7.1181 0.496438
459 1 5.77866 7.77953 9.35324
460 1 1.30363 6.22391 5.04895
461 1 7.60784 8.58404 3.53476
462 1 8.94786 1.85018 0.758775
463 1 2.03182 2.16771 5.98429
464 1 8.06164 4.47958 0.140875
465 1 2.73391 4.05181 3.3768
466 1 7.58131 7.44401 8.98971
467 1 6.28277 4.45247 1.98634
468 1 8.39785 1.8871 1.72238
469 1 5.59802 3.57992 5.20906
470 1 5.52785 5.18414 2.83772
471 1 1.91785 6.87595 7.07817
472 1 8.43142 8.35014 6.19252
473 1 7.73674 6.74059 0.262828
474 1 6.44056 2.96455 6.47737
475 1 2.62044 6.74336 2.12115
476 1 0.669415 1.04563 7.25436
477 1 4.54568 1.89503 8.12875
478 1 3.90467 2.95557 2.09709
479 1 2.42187 4.43959 0.594257
480 1 1.35541 0.910507 8.83854
481 1 7.45497 1.9707 1.36521
482 1 6.75102 3.76336 2.89904
483 1 0.163892 0.8456 8.8492
484 1 2.70404 0.685941 3.26686
485 1 9.29743 5.94014 1.12491
486 1 3.54048 5.49572 8.02081
487 1 0.189002 1.17727 3.90079
488 1 1.28146 7.1258 8.93385
489 1 8.57769 4.19053 1.27264
490 1 4.77664 7.06689 1.65863
491 1 0.99112 4.91249 4.06497
492 1 9.0079 8.14656 8.78186
493 1 7.00344 5.69486 0.27267
494 1 8.54174 4.38029 3.2622
495 1 0.900128 1.68239 5.53644
496 1 7.79621 0.768155 4.08078
497 1 8.42218 2.15397 2.97009
498 1 1.0118 5.04626 9.2512
499 1 5.22168 5.82306 0.623024
500 1 4.15895 5.2364 3.09555
501 1 0.518969 1.6627 2.70484
502 1 2.45842 3.5547 0.428045
503 1 1.29434 3.9422 1.9315
504 1 0.295505 5.44678 4.0649
505 1 7.53333 3.96126 3.32987
506 1 4.25495 2.13533 1.83925
507 1 3.32157 7.23866 4.67773
508 1 7.62056 8.19289 0.209993
509 1 6.43785 4.56695 0.309877
510 1 0.498134 6.6908 5.20987
511 1 0.855347 8.66849 6.50121
512 1 8.17598 7.61157 1.65191
513 1 7.31141 0.189492 4.737
514 1 0.957829 7.40376 1.01273
515 1 8.35705 5.39867 2.94994
516 1 2.09721 2.56626 8.04934
517 1 7.17359 7.57531 4.89779
518 1 7.20597 1.09162 6.28801
519 1 0.103261 0.25015 5.62466
520 1 6.77819 5.35371 2.30254
521 1 2.48624 2.36226 2.65808
522 1 5.01505 6.02025 6.82343
523 1 7.73286 5.02884 5.32572
524 1 5.50108 8.15593 7.62294
525 1 7.63577 6.56092 4.50728
526 1 4.31725 4.90316 5.64381
527 1 6.23278 2.88735 3.74846
528 1 7.19742 9.35928 8.3474
529 1 1.56853 8.35231 0.840069
530 1 2.97134 0.357185 2.46305
531 1 7.1918 2.30709 6.87707
532 1 0.126284 5.59622 8.08604
533 1 9.12287 1.45643 3.07526
534 1 2.4136 6.82084 6.28107
535 1 7.50999 9.04809 2.40126
536 1 7.42167 6.6623 1.29319
537 1 6.35087 2.33299 0.1416
538 1 3.22748 5.35245 4.42781
539 1 6.17393 0.861083 0.719968
540 1 4.33646 5.16519 0.653499
541 1 2.19249 2.75667 1.10689
542 1 1.77666 9.08377 5.02232
543 1 6.22834 6.0113 5.32363
544 1 8.73978 7.37634 3.41153
545 1 9.3507 4.32433 8.46009
546 1 6.35089 3.97562 5.71993
547 1 6.96779 7.64454 2.79627
548 1 6.16416 7.94646 2.42114
549 1 3.91684 7.66401 9.01053
550 1 0.0963924 7.71031 6.47845
551 1 4.82398 3.83007 7.64787
552 1 5.47012 4.51923 2.22376
553 1 2.10948 9.33799 1.83993
554 1 2.14546 4.05228 8.42724
555 1 5.07234 7.85442 0.756659
556 1 9.07578 6.03457 2.86937
557 1 7.57612 3.44866 2.5597
558 1 7.63358 5.91272 5.74139
559 1 6.76913 3.47413 1.72445
560 1 1.99935 7.57083 1.40396
561 1 9.07952 0.788274 6.36183
562 1 6.7473 6.98575 4.14417
563 1 8.73501 5.82675 8.42894
564 1 1.768 2.46784 6.7876
565 1 9.091 9.07851 6.35109
566 1 1.99921 9.24879 3.12034
567 1 3.07034 5.63439 2.00635
568 1 7.1958 8.46536 7.92815
569 1 5.97764 9.02205 5.78868
570 1 2.72985 4.09182 9.06227
571 1 8.62297 0.94861 4.06668
572 1 6.48224 6.41679 3.1307
573 1 3.7644 5.5403 5.92726
574 1 8.84824 5.06955 9.07099
575 1 6.55807 8.89813 3.68335
576 1 6.84331 6.48877 6.12071
577 1 5.1019 8.99425 1.99849
578 1 5.55647 6.85781 3.12853
579 1 7.56452 4.86244 3.70604
580 1 3.13213 2.24349 4.79042
581 1 0.229168 4.11497 1.24492
582 1 2.90595 8.4443 7.39094
583 1 2.19546 1.70283 7.73677
584 1 9.33364 6.65857 1.80019
585 1 5.8569 3.33355 1.86331
586 1 5.48293 3.25923 3.19939
587 1 1.73582 2.31135 1.94488
588 1 6.18061 6.44097 0.959122
589 1 3.66733 6.24701 4.44587
590 1 5.53192 3.41866 6.15848
591 1 7.63445 4.05115 5.85814
592 1 6.98543 1.46503 5.34926
593 1 0.160159 4.48246 2.05587
594 1 4.08184 1.00558 2.3804
595 1 2.63204 8.93232 6.58808
596 1 8.54137 7.26566 6.29608
597 1 6.33807 3.31713 0.774214
598 1 5.72033 1.30541 7.00193
599 1 0.74374 2.48072 3.23751
600 1 4.42924 0.536951 0.209743
601 1 8.04563 1.6389 6.8868
602 1 1.48172 1.45326 1.94412
603 1 6.257 2.36091 2.89744
604 1 9.10713 0.342702 1.67734
605 1 6.40057 0.0927675 7.66111
606 1 1.61813 1.93632 4.73868
607 1 6.94243 5.379 5.27882
608 1 8.14964 1.25588 4.78912
609 1 3.01809 8.16633 6.30974
610 1 7.9308 5.18883 8.26718
611 1 1.28165 0.9354 0.971659
612 1 5.56987 9.12504 8.03498
613 1 3.50099 5.39646 7.14135
614 1 3.05021 2.29786 7.60157
615 1 8.3431 6.41345 3.02807
616 1 0.917138 9.08517 5.70579
617 1 2.39674 6.50448 4.07188
618 1 9.1901 3.3118 8.8624
619 1 0.0400881 0.979958 1.06302
620 1 0.0334451 6.41044 8.66403
621 1 4.92951 4.92442 4.91626
622 1 4.04719 4.18263 4.39117
623 1 2.80015 6.44187 8.86632
624 1 6.89241 3.69011 8.33204
625 1 9.11708 3.36442 7.01118
626 1 3.9181 7.28289 1.30054
627 1 6.84068 9.39307 1.69705
628 1 1.17698 7.0101 5.68073
629 1 6.95809 1.50856 8.09558
630 1 2.67154 9.37708 7.77842
631 1 3.76155 8.81049 7.59539
632 1 0.23048 2.1769 3.96152
633 1 7.12058 6.63315 2.48506
634 1 1.9593 0.744306 3.89824
635 1 3.25002 9.12251 4.63685
636 1 1.40066 7.68379 5.15707
637 1 5.00351 2.88633 2.54292
638 1 4.94097 6.74753 3.83747
639 1 1.2318 4.30124 8.84193
640 1 8.13411 0.22829 5.19319
641 1 0.671755 8.56757 0.669579
642 1 1.40519 1.0594 4.60037
643 1 8.48607 8.83942 9.29552
644 1 7.36913 0.175592 6.50554
645 1 1.56334 5.07083 7.53169
646 1 6.51712 9.20736 4.66663
647 1 0.514373 5.05096 7.44586
648 1 7.03587 8.95275 9.30069
649 1 3.59102 8.03905 1.74552
650 1 0.839158 8.39559 2.63273
651 1 5.55379 2.73194 5.60853
652 1 2.32116 0.509503 6.62547
653 1 3.03982 2.07212 5.85047
654 1 1.21608 3.23478 2.87688
655 1 6.18657 4.06637 7.87435
656 1 4.75316 4.81078 1.81849
657 1 4.66993 9.23412 7.83576
658 1 3.65068 4.35696 1.70552
659 1 4.71811 0.870579 8.75991
660 1 1.02062 4.28441 0.877007
661 1 2.16066 7.58625 5.76076
662 1 3.75574 6.70539 9.29311
663 1 5.1161 8.71871 6.8707
664 1 2.21771 1.4703 2.52425
665 1 4.72819 0.494745 3.75353
666 1 2.98736 7.15558 7.20733
667 1 4.065 8.77861 6.62715
668 1 4.75317 2.5686 8.95095
669 1 2.28644 7.68187 7.62174
670 1 5.83966 8.44029 3.41929
671 1 2.44207 5.73215 9.31353
672 1 6.54662 0.813736 4.56057
673 1 3.41846 1.57195 6.47618
674 1 3.55987 6.84898 3.13523
675 1 4.72117 5.2519 7.40716
676 1 4.92763 5.04243 3.75696
677 1 6.26261 3.38963 4.60665
678 1 7.04758 3.32891 5.69243
679 1 4.06012 4.16035 0.284472
680 1 6.55675 7.5512 1.52913
681 1 0.995346 9.06333 1.28918
682 1 2.87826 5.73257 3.67034
683 1 1.61751 6.46095 6.34348
684 1 8.25008 6.64452 8.91167
685 1 9.21276 2.46324 0.0593575
686 1 6.81315 0.92746 1.90463
687 1 0.712244 4.62705 2.75621
688 1 2.98408 1.40606 7.24064
689 1 3.80626 8.0041 3.61879
690 1 3.78754 7.83578 5.91075
691 1 4.4784 1.41613 1.25815
692 1 1.60456 8.402 6.13402
693 1 0.493709 2.79661 7.34091
694 1 1.0316 2.14501 8.42279
695 1 8.60507 3.17168 2.9562
696 1 6.6696 7.36366 9.08611
697 1 9.31621 6.43899 3.686
698 1 7.83979 6.64446 6.15749
699 1 0.102866 8.97114 1.64288
700 1 7.43592 8.51928 4.49491
701 1 7.48292 5.98902 6.73445
702 1 2.01529 9.28924 0.844695
703 1 4.8979 3.87206 1.82804
704 1 2.70621 5.16037 6.52
705 1 6.2858 7.84116 8.01305
706 1 5.17054 0.914187 6.34927
707 1 8.26314 6.7786 3.88451
708 1 2.88808 8.18526 3.14996
709 1 8.67366 3.3568 5.14936
710 1 6.14333 1.87247 5.14106
711 1 4.35123 4.61251 7.87454
712 1 4.92345 7.51254 8.4339
713 1 3.9323 3.3254 6.4001
714 1 1.70326 0.891905 5.98091
715 1 6.35279 6.00162 6.84666
716 1 8.39803 0.960368 9.03219
717 1 2.96271 0.294701 4.10333
718 1 0.225363 8.88234 7.27791
719 1 7.99007 5.67765 4.88338
720 1 1.84494 0.160747 9.36281
721 1 4.05413 9.02821 5.32424
722 1 3.89966 5.55226 1.47528
723 1 1.64535 6.70682 8.2998
724 1 7.24281 7.51888 7.4816
725 1 1.75019 6.96136 2.46096
726 1 1.35315 5.90845 4.2145
727 1 3.2399 0.0962483 6.89505
728 1 2.70966 6.0156 6.65415
729 1 9.07012 6.97169 2.61924
730 1 7.9813 0.417151 2.46063
731 1 2.56308 5.47005 7.41679
732 1 6.26828 5.42938 9.15475
733 1 4.58433 8.24527 7.75925
734 1 3.53357 4.61494 5.07575
735 1 0.917047 3.85919 5.42683
736 1 2.97674 3.1951 2.31631
737 1 9.09062 6.32834 7.7286
738 1 0.282223 7.97036 1.16864
739 1 7.59685 0.680317 8.6202
740 1 4.26239 8.56928 8.56942
741 1 7.58619 7.63965 3.76447
742 1 2.30691 7.43022 8.58167
743 1 3.72921 2.75197 8.9886
744 1 7.15602 1.39689 4.0546
745 1 1.22451 5.10967 5.3574
746 1 6.9599 1.31839 7.10341
747 1 3.2596 8.74393 2.58491
748 1 2.75168 6.6656 3.11106
749 1 4.09848 3.74075 5.42663
750 1 1.92172 2.63474 5.25724
751 1 0.443097 0.716031 3.10387
752 1 4.1232 0.0159064 1.04596
753 1 7.33986 2.30542 5.96578
754 1 7.97965 8.60267 7.54554
755 1 7.16228 1.97413 0.416535
756 1 3.70964 4.36885 3.55416
757 1 4.08873 5.2679 4.185
758 1 7.57435 2.44609 2.52841
759 1 4.28098 3.47025 2.8544
760 1 0.74691 2.5926 9.3078
761 1 1.71686 2.64833 0.398102
762 1 3.55068 7.5003 0.420147
763 1 7.0632 2.99497 4.78784
764 1 6.92701 8.28567 2.03031
765 1 8.66031 2.04276 5.18403
766 1 5.45845 1.18884 5.40143
767 1 3.69074 9.0369 3.44256
768 1 5.96283 8.82796 2.5142
769 1 6.83245 4.89324 1.12978
770 1 2.06818 4.79052 9.1402
771 1 0.343413 6.88422 7.09913
772 1 2.28342 5.90243 4.75974
773 1 7.32701 0.556958 5.64811
774 1 3.72659 1.21066 3.76057
775 1 5.09491 2.02253 7.47639
776 1 4.6786 2.49095 3.79939
777 1 1.56906 1.07682 6.96533
778 1 4.74142 7.83517 6.8828
779 1 5.70368 8.86372 4.37133
780 1 3.44129 7.20607 2.11249
781 1 2.46531 6.646 1.25092
782 1 1.68958 5.90651 0.47389
783 1 4.3566 7.26632 7.75416
784 1 6.98965 2.94057 9.18297
785 1 8.34642 2.88239 4.4986
786 1 1.18903 1.84092 6.56836
787 1 8.77436 1.99678 7.23248
788 1 6.15231 2.09269 8.6223
789 1 5.43572 3.50299 0.0835219
790 1 2.1334 7.58136 3.08661
791 1 0.839462 7.83103 5.88988
792 1 0.380094 1.7678 8.9514
793 1 4.9083 2.04703 6.48342
794 1 8.4581 3.59098 3.7709
795 1 7.23745 6.83789 3.44366
796 1 3.22249 3.17794 7.05096
797 1 7.51983 5.92375 2.09924
798 1 6.99053 8.00126 6.08512
799 1 9.11283 8.8089 3.97372
800 1 6.00763 3.11124 7.66138
801 2 2.36719 2.58151 3.61984
802 2 2.71317 2.84708 5.43343
803 2 4.68555 3.44197 6.87091
804 2 2.52083 3.25805 8.80591
805 2 7.43523 4.31427 8.17325
806 2 7.53422 5.90068 0.893976
807 2 6.81936 7.9544 3.87613
808 2 3.13036 7.3223 8.72396
809 2 6.54336 6.27759 1.89942
810 2 1.24176 7.52759 3.22732
811 2 7.7053 9.02461 0.591391
812 2 7.8173 3.32742 5.26906
813 2 5.54671 8.35193 8.52152
814 2 4.91539 8.76245 5.00617
815 2 5.09833 6.55901 5.4404
816 2 6.86749 4.54839 5.84408
817 2 2.5492 1.46608 6.44049
818 2 2.85811 4.92599 1.66532
819 2 7.94537 0.26533 9.27955
820 2 6.90446 3.62508 7.33066
821 2 0.186118 3.08345 0.657766
822 2 6.77992 4.15617 4.05232
823 2 8.56429 4.89543 5.82516
824 2 6.44312 4.97912 6.87599
825 2 0.277017 5.458 9.06674
826 2 6.66621 0.650856 8.31993
827 2 7.67613 1.07308 1.81392
828 2 8.17155 0.870848 6.29878
829 2 0.32164 7.02467 9.29095
830 2 8.11627 4.2518 2.45662
831 2 1.40737 9.18843 4.0065
832 2 5.78953 3.69444 7.03492
833 2 0.282151 7.64405 5.05483
834 2 4.1955 0.75157 5.43443
835 2 5.63435 0.66067 1.45771
836 2 8.09431 2.52643 6.55821
837 2 6.76358 5.4732 6.12639
838 2 4.92672 6.52809 2.57397
839 2 5.60082 0.337678 4.32937
840 2 7.04261 3.15936 3.85396
841 2 9.32101 6.98745 5.76885
842 2 1.1008 7.4175 8.10464
843 2 2.65871 3.57215 1.47652
844 2 0.416328 9.34292 8.79682
845 2 8.70507 4.13357 6.7692
846 2 3.44432 3.60551 8.9421
847 2 0.0494998 1.62797 1.70936
848 2 3.04076 1.4463 9.17665
849 2 2.15881 8.14111 6.78218
850 2 9.00271 7.28466 7.43338
851 2 8.53175 7.71306 2.54982
852 2 5.54452 8.02158 1.63103
853 2 6.64269 2.06912 4.45134
854 2 2.08233 3.70773 4.97974
855 2 9.22635 6.96867 4.59771
856 2 6.30327 0.943433 5.772
857 2 3.50633 8.70011 0.903257
858 2 8.31598 7.81705 0.778885
859 2 1.61103 5.37197 8.41983
860 2 8.84576 3.61618 0.252502
861 2 5.44549 4.87815 0.641901
862 2 2.0953 5.60052 5.79827
863 2 9.24717 8.57145 2.37589
864 2 1.9144 9.21528 7.28195
865 2 3.03092 4.97134 2.58867
866 2 8.97721 8.66545 0.765949
867 2 3.82479 3.79786 7.44785
868 2 1.83795 4.82876 6.64122
869 2 5.88119 6.7661 6.28703
870 2 7.22285 9.26615 7.36422
871 2 2.7285 7.11923 0.271669
872 2 0.674632 6.34726 3.19414
873 2 5.50141 3.53294 1.0832
874 2 2.15656 0.541028 4.94768
875 2 0.909472 8.71896 8.19398
876 2 7.57586 3.29733 6.57486
877 2 9.07872 2.58793 6.43095
878 2 8.36746 9.272 4.14157
879 2 8.1641 5.83302 4.01671
880 2 5.57976 2.24732 2.19421
881 2 5.41132 7.3288 2.44073
882 2 2.29112 1.65486 3.65029
883 2 1.72908 3.54169 5.80191
884 2 4.88657 5.80431 3.26728
885 2 5.32519 7.20993 7.76862
886 2 7.76867 3.21523 8.33761
887 2 1.67458 7.98925 2.39819
888 2 1.52177 4.8601 2.35502
889 2 6.15233 7.01062 2.28341
890 2 4.62161 0.485116 1.67594
891 2 4.1623 2.56647 7.14293
892 2 5.5687 5.91546 7.9086
893 2 7.70578 7.2668 5.62694
894 2 6.09183 8.23466 6.39292
895 2 0.856061 6.41829 2.19277
896 2 8.22238 4.41239 7.65649
897 2 5.08761 9.31801 5.94019
898 2 3.119 0.909495 7.92964
899 2 0.955823 7.90858 0.138
900 2 0.694471 1.6675 4.53306
901 2 6.69782 7.10298 0.693638
902 2 0.921833 8.1295 1.79757
903 2 2.43818 7.27127 4.70778
904 2 2.35978 1.85367 0.883859
905 2 1.95444 5.12181 4.17472
906 2 0.164732 4.49369 9.38449
907 2 0.94227 1.94488 7.446
908 2 3.60057 1.47695 5.49185
909 2 8.50982 5.68805 7.44935
910 2 5.3477 0.247897 2.54549
911 2 8.31013 4.9371 6.90596
912 2 2.63844 3.47672 4.12892
913 2 7.82086 7.31742 2.86156
914 2 8.29076 6.66781 8.00452
915 2 3.15188 1.09747 4.58295
916 2 6.52572 5.53703 3.23554
917 2 0.950804 4.26479 7.85587
918 2 2.74804 4.18621 2.11638
919 2 7.36329 4.38883 7.0773
920 2 0.376024 9.01364 3.28524
921 2 8.84625 1.00668 8.10531
922 2 4.83659 0.276113 4.9493
923 2 1.21384 1.27523 7.96474
924 2 3.45942 4.31461 8.44762
925 2 5.13297 5.87935 4.34376
926 2 5.17674 1.52915 8.44501
927 2 2.95994 1.00023 0.686556
928 2 2.98805 6.2693 0.455884
929 2 8.13019 9.25408 8.46423
930 2 4.86259 1.76639 2.49872
931 2 0.741557 5.99375 7.1991
932 2 6.18991 1.53431 7.75149
933 2 6.87062 2.92608 2.99676
934 2 4.55366 1.5013 3.63901
935 2 5.64246 1.82317 5.96707
936 2 8.02001 6.68078 2.22336
937 2 8.19386 2.84039 0.00502003
938 2 7.47333 8.81562 6.055
939 2 5.53855 2.54448 8.196
940 2 1.76505 3.61621 7.60454
941 2 1.30247 3.3253 6.75318
942 2 6.32591 5.23226 4.34993
943 2 3.77961 0.876566 7.25776
944 2 1.14554 6.834 7.38647
945 2 0.227062 7.16823 8.01986
946 2 0.0821074 1.24793 5.60041
947 2 4.95451 5.15409 9.09217
948 2 4.72483 3.16231 0.803638
949 2 0.740478 7.34565 2.37248
950 2 8.46629 3.37583 6.3993
951 2 3.01725 3.06368 8.09592
952 2 1.68989 5.68179 6.77004
953 2 4.74434 0.319269 7.00311
954 2 3.82966 7.95833 6.96635
955 2 3.72112 0.172029 8.14079
956 2 4.98717 6.46735 8.21108
957 2 3.60467 8.42434 9.27237
958 2 7.91778 1.60732 2.49357
959 2 1.26391 0.425669 1.96061
960 2 5.01118 0.262292 0.890555
961 2 2.86194 8.8993 0.178884
962 2 7.15344 4.0211 0.808405
963 2 5.28809 8.26524 2.65103
964 2 2.8239 8.45662 1.46653
965 2 8.30955 9.30645 5.99105
966 2 6.18606 0.0153364 9.04488
967 2 0.627131 5.48305 3.18437
968 2 8.73707 4.8451 0.654539
969 2 3.18085 1.27913 2.61158
970 2 5.38049 7.48229 5.54269
971 2 5.98733 5.0804 5.90385
972 2 4.97926 0.96973 3.02106
973 2 2.19747 6.02404 1.75619
974 2 2.37568 8.44455 8.21069
975 2 1.23555 2.87174 7.87038
976 2 6.58425 6.39256 0.0182991
977 2 4.51468 7.88216 2.21906
978 2 7.97189 3.69799 0.740913
979 2 5.44408 3.15325 4.08739
980 2 0.507764 7.82139 8.76575
981 2 4.99466 4.16445 5.71835
982 2 4.89136 8.12712 9.19229
983 2 2.00031 4.1229 3.83205
984 2 7.36896 2.92839 0.682017
985 2 6.4356 1.74454 3.54886
986 2 2.70128 4.84048 8.21857
987 2 4.46656 0.0119264 2.96635
988 2 3.2659 0.208664 0.625273
989 2 7.83166 4.59229 1.04813
990 2 4.73605 4.16263 0.89917
991 2 4.21762 8.08368 0.879085
992 2 8.91807 0.267239 0.251453
993 2 5.18692 4.40101 3.16296
994 2 7.71216 8.44296 8.69523
995 2 2.61527 7.61546 2.27248
996 2 3.30791 9.26772 1.68071
997 2 3.40744 7.81307 7.8366
998 2 4.2842 6.23271 7.60282
999 2 4.90044 2.24399 4.97644