#bin. KALJ data file T=0.5

1000 atoms
2 atom types

0 9.4 xlo xhi
0 9.4 ylo yhi
0 9.4 zlo zhi

Masses

1 1.0
2 1.0

Atoms

1 1 2.76746 3.51338 7.27944
2 1 7.43433 5.4922 0.245762
3 1 5.57922 7.92325 8.78668
4 1 6.6282 4.27636 1.596
5 1 1.50991 1.4739 5.16454
6 1 1.95808 4.50745 8.53925
7 1 6.04744 7.81274 4.51497
8 1 3.14486 7.99774 5.40663
9 1 7.9472 6.88375 3.67537
10 1 0.660807 5.80172 3.69927
11 1 1.24331 5.97451 2.977
12 1 3.64519 5.09093 8.28579
13 1 5.56093 1.42358 9.33184
14 1 3.37563 8.36591 7.38873
15 1 4.33486 3.54923 7.95614
16 1 5.32563 9.05874 5.1012
17 1 9.33044 8.04035 3.36653
18 1 9.19653 6.00632 3.26208
19 1 5.51108 7.24197 3.97953
20 1 6.69498 7.83402 3.91809
21 1 8.0524 2.54483 2.66787
22 1 4.86405 2.07835 0.189673
23 1 8.70361 8.77064 1.87601
24 1 4.37153 7.65523 9.18176
25 1 7.73935 5.56616 1.01093
26 1 0.637549 4.45197 6.23518
27 1 7.71841 7.59231 5.10304
28 1 7.64085 7.89043 1.87996
29 1 6.92761 7.95144 8.16193
30 1 0.676738 5.71609 7.35017
31 1 6.75718 3.16607 7.05903
32 1 1.89688 8.00387 3.35923
33 1 9.27552 6.18125 2.1295
34 1 7.27044 2.87751 8.48991
35 1 6.10355 8.25974 6.09838
36 1 3.51226 3.93846 8.01721
37 1 4.24247 9.44347 1.74329
38 1 7.92459 0.254011 0.181245
39 1 8.27892 1.60421 6.66165
40 1 0.699037 5.82883 1.7868
41 1 8.49244 7.8107 2.12211
42 1 0.58648 1.18456 5.82521
43 1 4.67264 5.91676 1.81565
44 1 7.42565 1.4588 -0.0106299
45 1 4.86811 3.4115 1.51528
46 1 2.19926 6.08096 8.57453
47 1 4.3691 2.6627 8.94201
48 1 5.62683 4.1248 9.28654
49 1 0.174072 6.19591 0.57163
50 1 3.935 6.47907 7.20138
51 1 7.39136 4.76595 1.52456
52 1 7.13893 3.65515 6.51658
53 1 7.71678 6.35817 1.38501
54 1 7.56413 8.8096 1.70121
55 1 7.59173 7.06012 2.02534
56 1 1.52077 2.54205 0.415908
57 1 8.68588 1.35378 1.69916
58 1 3.973 6.26448 5.66474
59 1 0.266898 8.19967 8.38774
60 1 3.88536 7.24569 5.36754
61 1 0.973471 3.73866 4.54141
62 1 2.16285 2.8322 6.571
63 1 3.77769 7.49633 7.24168
64 1 2.41036 9.36854 2.08613
65 1 2.63356 9.12924 3.83874
66 1 6.65168 8.949 4.30469
67 1 7.49295 3.64869 1.88833
68 1 5.10837 1.62782 4.81699
69 1 3.17241 2.11807 8.2875
70 1 8.18481 8.83436 4.7287
71 1 0.682212 2.09548 6.10308
72 1 7.35707 1.34419 6.37089
73 1 8.85783 8.6199 1.04906
74 1 5.35147 2.80833 1.07727
75 1 4.2028 3.7457 4.46929
76 1 7.41075 7.33208 4.29985
77 1 2.49712 7.26553 8.70822
78 1 2.12667 3.30989 0.852079
79 1 4.16315 7.19771 8.13424
80 1 2.17414 7.62679 1.78399
81 1 5.09292 7.52232 2.95265
82 1 2.62002 5.48589 1.1436
83 1 4.23967 0.309546 4.02771
84 1 0.400972 8.58512 7.43917
85 1 7.09228 4.77393 2.81957
86 1 7.81684 3.33792 7.14868
87 1 1.39997 9.28883 2.34017
88 1 2.01928 6.90756 5.51291
89 1 3.4214 9.31196 1.03941
90 1 7.79731 4.07713 3.03585
91 1 2.88428 1.1039 7.62958
92 1 2.12225 1.61331 0.205832
93 1 7.8285 4.42995 7.37003
94 1 3.75331 7.15292 8.87303
95 1 2.05516 4.55554 0.761875
96 1 6.07665 8.56681 5.17908
97 1 6.13757 8.69826 0.0640786
98 1 6.43688 2.55202 2.5094
99 1 9.3166 1.405 8.50269
100 1 5.87071 3.94591 4.64214
101 1 6.14176 9.04477 2.48433
102 1 1.93521 2.37963 2.24163
103 1 7.35005 8.24369 4.60286
104 1 3.26169 5.23983 9.19612
105 1 1.18567 0.702664 7.32231
106 1 6.53615 4.22706 7.21896
107 1 8.32542 5.29062 0.30362
108 1 5.08304 6.84254 5.8625
109 1 0.890608 0.407055 1.35572
110 1 2.86799 8.16461 3.41156
111 1 6.76274 8.56433 0.91551
112 1 0.560256 1.13205 3.17403
113 1 4.10352 1.88399 1.85661
114 1 8.856 2.15203 2.71974
115 1 5.53907 7.45164 1.00185
116 1 8.01692 5.61524 8.86594
117 1 8.66145 7.69433 4.96531
118 1 5.24525 7.29365 4.92773
119 1 3.36034 8.94623 2.12646
120 1 3.08401 1.59607 0.0143138
121 1 4.78118 7.86736 4.40119
122 1 1.54378 3.04591 7.42525
123 1 1.09913 5.92834 8.51471
124 1 5.87247 3.44683 8.66304
125 1 4.17023 3.64565 2.93408
126 1 3.4422 8.11467 2.70373
127 1 3.98292 8.8979 4.88771
128 1 8.61117 4.80812 6.46894
129 1 8.52009 8.8371 9.1957
130 1 2.16573 1.21906 2.90413
131 1 7.72407 3.55385 0.22322
132 1 9.37101 9.19374 0.556917
133 1 7.05283 3.2207 0.856911
134 1 4.0773 2.59329 7.24829
135 1 2.45841 6.27087 0.651722
136 1 6.75193 1.74629 1.31627
137 1 5.1408 6.27254 6.58396
138 1 4.81259 1.33638 6.94755
139 1 6.73622 6.11339 7.25227
140 1 3.70866 1.09378 3.74163
141 1 8.92883 5.89147 4.27389
142 1 3.9603 4.26434 5.20387
143 1 8.57003 2.83415 4.56166
144 1 9.11887 5.08994 5.77511
145 1 2.38534 2.05726 8.65142
146 1 7.62214 9.29093 2.79822
147 1 2.02722 9.13057 8.43793
148 1 5.51657 0.981278 6.43983
149 1 3.90731 5.87793 2.56808
150 1 1.70819 0.752793 4.47121
151 1 9.37972 4.03052 2.56171
152 1 7.34912 5.23841 4.26009
153 1 8.41401 2.38104 7.19584
154 1 8.26603 1.21758 0.697459
155 1 8.48424 7.39053 9.02671
156 1 2.6502 3.74564 8.58999
157 1 5.08756 8.02313 0.205005
158 1 7.946 7.20368 6.47576
159 1 1.02556 3.51932 6.90477
160 1 7.85981 4.46233 3.8657
161 1 0.7133 6.71034 3.11234
162 1 7.43385 0.735286 5.58187
163 1 1.42 7.80601 4.51941
164 1 0.778128 6.73964 5.75348
165 1 1.58873 3.9924 5.09352
166 1 6.11776 9.34367 5.65326
167 1 1.38794 1.66957 2.5263
168 1 7.38578 5.56262 3.35935
169 1 0.590866 4.47086 0.776324
170 1 0.344303 0.614055 0.26085
171 1 0.488242 6.82352 2.21096
172 1 3.21849 2.21078 2.34119
173 1 2.16749 1.36303 5.93046
174 1 4.99307 8.65369 9.09785
175 1 4.4975 0.684327 3.2058
176 1 4.71304 4.11687 6.70614
177 1 1.52685 5.27961 0.512744
178 1 7.52135 1.17649 1.2031
179 1 1.36341 3.24149 1.83362
180 1 5.70423 6.93606 7.39285
181 1 0.106781 2.75126 8.6889
182 1 8.74457 4.5578 4.92673
183 1 3.02204 3.57342 0.0603844
184 1 6.09347 1.65447 0.617396
185 1 7.24842 2.55772 3.9217
186 1 9.02913 3.93331 1.19793
187 1 8.27877 2.11348 1.17174
188 1 1.58231 0.646707 8.20248
189 1 2.01971 6.43351 2.82599
190 1 8.21416 8.28279 5.59417
191 1 6.26529 3.46414 6.03775
192 1 3.13715 3.09178 3.93287
193 1 5.87896 5.91595 1.06
194 1 5.86324 5.04199 1.48845
195 1 9.39125 3.10254 0.99417
196 1 8.12318 3.90021 1.00234
197 1 9.39037 8.19814 6.68053
198 1 3.64899 2.73852 6.28484
199 1 4.23463 0.698317 8.51666
200 1 2.99686 6.77082 1.33588
201 1 6.88113 9.26461 6.04034
202 1 1.62844 8.90862 1.41974
203 1 3.79459 3.51267 7.1709
204 1 8.55525 3.83578 2.02023
205 1 0.975997 4.91732 1.42406
206 1 7.62656 8.76703 9.35845
207 1 8.04616 3.38783 2.58279
208 1 2.92228 7.54481 7.86023
209 1 7.77978 2.12389 8.4561
210 1 3.61676 6.54674 4.77855
211 1 0.505778 1.1225 1.83305
212 1 6.47068 1.53696 7.91878
213 1 2.47659 5.45695 0.149025
214 1 8.77204 7.1341 0.663143
215 1 4.12884 0.81496 2.19847
216 1 8.79227 0.659379 4.52786
217 1 9.27254 2.63744 6.96474
218 1 3.14041 3.42976 2.83158
219 1 2.94144 7.2163 4.96099
220 1 8.16864 5.946 3.79667
221 1 1.38859 8.4503 3.91852
222 1 6.33977 5.62554 0.388325
223 1 6.74465 6.10701 0.963187
224 1 4.11755 2.51044 8.13355
225 1 1.41244 0.655462 2.89645
226 1 6.46634 1.88142 8.76369
227 1 7.4744 4.51377 6.04374
228 1 6.0157 6.7644 1.22616
229 1 4.12937 5.18703 3.07832
230 1 5.64625 8.57459 4.37649
231 1 5.8961 3.21522 5.22724
232 1 2.4231 6.50852 6.35708
233 1 4.95812 0.0791595 0.248293
234 1 4.68425 6.83223 4.27285
235 1 9.08703 9.16284 4.65134
236 1 5.23464 8.29524 2.23525
237 1 6.08492 1.04422 8.75616
238 1 6.00496 4.24791 1.00902
239 1 9.24447 7.6228 4.34559
240 1 2.94886 8.83995 4.66342
241 1 0.226825 2.61835 3.31629
242 1 2.51178 1.06463 4.88768
243 1 2.64792 7.4026 6.08037
244 1 6.4652 5.58639 2.94424
245 1 5.80193 0.799125 0.531793
246 1 1.13865 2.81938 6.32057
247 1 1.02808 4.57145 5.41523
248 1 6.38182 4.76496 8.89793
249 1 0.509707 0.557992 7.98834
250 1 5.24527 5.21555 5.01448
251 1 2.51587 8.8229 5.58645
252 1 5.63135 5.35197 2.27711
253 1 9.12409 6.97292 5.36687
254 1 4.31929 9.25657 8.10186
255 1 6.62683 4.96461 3.75562
256 1 2.04812 0.0573771 0.151454
257 1 7.43363 7.17023 0.00911118
258 1 2.33571 4.72763 5.5976
259 1 8.77193 8.84641 6.29682
260 1 2.45653 5.24624 4.80972
261 1 0.840401 0.873246 4.87155
262 1 2.3198 1.78151 6.86684
263 1 5.97879 2.77205 6.63346
264 1 5.76242 8.05739 7.86875
265 1 1.51757 6.22162 6.1538
266 1 2.92092 6.99132 0.29011
267 1 4.4937 8.53335 2.63322
268 1 4.24745 6.99582 6.30572
269 1 2.43674 3.48696 3.44621
270 1 3.81723 4.79178 2.27105
271 1 7.91472 4.82563 8.21136
272 1 6.71455 5.63285 5.96028
273 1 1.54598 7.11842 6.35162
274 1 3.19147 0.760014 1.01632
275 1 1.56654 8.87314 5.8717
276 1 3.04476 3.10549 0.829061
277 1 3.5632 6.69093 2.08045
278 1 4.62287 2.37293 1.26028
279 1 7.87252 2.26106 4.43582
280 1 6.87072 6.73099 7.87088
281 1 3.03957 6.95056 4.07237
282 1 7.76855 8.63901 3.70383
283 1 8.05544 3.01739 3.69165
284 1 1.71318 0.844469 0.294327
285 1 8.0183 6.78419 4.86721
286 1 7.51486 6.44015 0.548757
287 1 8.88255 0.0112233 5.43744
288 1 5.98729 0.477293 4.73529
289 1 0.496454 6.92878 7.57126
290 1 4.07439 6.51198 3.55462
291 1 5.19489 6.3205 3.67478
292 1 1.09206 0.30281 6.25331
293 1 5.32007 7.77102 6.37881
294 1 4.65765 1.17008 0.342699
295 1 1.18433 8.33926 5.21178
296 1 1.80418 3.69833 2.87956
297 1 7.96832 4.48908 2.25803
298 1 2.57317 0.128962 0.921569
299 1 0.0947317 4.7949 7.38537
300 1 7.96127 5.40352 2.66956
301 1 7.04722 1.12713 7.37096
302 1 3.01044 0.267208 0.118101
303 1 5.24122 0.809582 4.11784
304 1 3.17002 1.8657 7.37542
305 1 1.52264 6.35187 2.02234
306 1 2.14645 2.78507 3.00121
307 1 2.04901 7.93349 7.92133
308 1 2.21293 0.884872 6.90078
309 1 6.69903 7.64917 1.7705
310 1 5.62162 4.10179 5.55379
311 1 7.07492 7.92448 2.55857
312 1 3.79564 1.36944 8.09514
313 1 5.65234 6.27835 1.7711
314 1 1.91044 3.68851 4.2695
315 1 7.4366 3.3263 4.56466
316 1 3.86716 8.99977 0.153849
317 1 2.64928 5.02338 8.39846
318 1 1.03717 3.53056 9.00846
319 1 8.61943 4.42536 3.02167
320 1 1.88739 2.35475 7.87176
321 1 6.95244 8.13218 6.40308
322 1 5.65252 4.2869 6.5253
323 1 2.91817 2.21305 3.27952
324 1 3.68579 3.94993 3.66808
325 1 8.88479 6.35514 9.35813
326 1 1.34041 7.85507 8.58808
327 1 2.46467 6.46728 7.80878
328 1 5.28886 1.46714 0.852824
329 1 3.88891 2.82345 2.67246
330 1 7.6571 6.52027 8.68379
331 1 3.34183 1.2497 2.14105
332 1 5.55945 1.77603 7.26985
333 1 3.26801 6.69897 8.06055
334 1 1.5539 5.2987 2.18413
335 1 7.36618 3.65329 3.69387
336 1 4.46099 6.33883 8.20013
337 1 3.2127 5.13414 2.95063
338 1 3.91236 5.19093 5.64288
339 1 3.12262 2.61789 5.34008
340 1 2.51022 2.47787 0.5274
341 1 6.49874 2.16436 7.06371
342 1 0.171392 8.07771 0.711466
343 1 7.27308 0.370764 8.36906
344 1 9.03773 5.74236 1.29872
345 1 3.98584 3.63245 2.03224
346 1 1.43941 0.107733 0.746464
347 1 5.3147 4.50317 2.03445
348 1 4.91796 5.69913 3.08312
349 1 0.267659 6.25885 8.27675
350 1 2.52052 7.67296 2.67574
351 1 8.50174 7.74054 7.11387
352 1 4.34793 9.09216 5.75213
353 1 3.30743 6.31358 6.47017
354 1 3.58219 4.79117 4.02643
355 1 5.20101 0.0905746 5.99775
356 1 1.40857 5.03 7.89522
357 1 6.87791 6.86513 3.56889
358 1 3.87785 4.49829 1.26757
359 1 5.75599 2.26191 9.12992
360 1 7.56028 7.25386 1.18067
361 1 4.31362 7.4074 2.39572
362 1 0.978522 4.32908 8.37659
363 1 6.22314 6.51228 0.344738
364 1 1.9758 1.29874 7.75216
365 1 8.45127 4.88072 1.27145
366 1 0.904368 6.92398 8.38229
367 1 5.78443 7.09236 6.34732
368 1 6.99415 2.53379 6.08472
369 1 4.36441 5.68657 3.83086
370 1 5.46827 1.44073 5.53375
371 1 6.24788 0.959846 5.47191
372 1 3.84608 4.50375 0.299131
373 1 6.72173 1.86264 5.60322
374 1 9.09912 5.32186 8.90095
375 1 2.53336 4.14544 2.35703
376 1 3.40803 7.81635 0.651794
377 1 7.64521 2.39817 6.67321
378 1 0.685033 5.43191 0.714136
379 1 7.1379 5.08394 8.95801
380 1 6.71026 6.06052 5.16459
381 1 3.83036 7.43855 3.8351
382 1 4.83125 7.64169 7.33772
383 1 0.44762 8.68478 4.67328
384 1 6.13605 0.163807 9.19488
385 1 4.08454 2.9086 3.88562
386 1 1.61061 1.69143 8.46121
387 1 2.92069 6.19675 2.90769
388 1 1.65779 1.71843 1.0419
389 1 2.69527 8.12592 6.5806
390 1 9.28183 0.826518 5.24905
391 1 2.50657 0.187176 2.96068
392 1 1.06128 3.69952 6.06835
393 1 1.61771 6.6218 7.97955
394 1 0.805405 2.40027 5.26022
395 1 5.25663 7.01103 8.20279
396 1 6.92038 6.2213 9.24733
397 1 3.72782 7.96549 8.31914
398 1 0.457529 5.30644 8.27432
399 1 8.72435 0.369757 0.453661
400 1 5.01211 2.70394 8.18405
401 1 1.00182 3.73798 2.50986
402 1 7.89354 7.93342 7.78516
403 1 7.39881 5.542 5.25606
404 1 5.32852 7.23628 2.04305
405 1 3.93346 7.3978 1.51615
406 1 2.99006 4.22122 6.66025
407 1 2.87882 4.61391 1.63034
408 1 6.34225 8.5135 8.67478
409 1 5.3425 4.93492 8.84172
410 1 6.06023 7.12768 5.19498
411 1 8.49027 5.26196 7.22272
412 1 7.84675 3.83512 8.24564
413 1 1.95038 6.9637 4.60613
414 1 6.71321 7.8277 5.5299
415 1 6.34182 2.83477 3.57361
416 1 8.37835 0.0168821 4.01166
417 1 2.48798 8.57053 2.61098
418 1 7.38667 0.733668 2.59802
419 1 4.69622 0.995922 7.77934
420 1 1.32304 3.8853 0.889999
421 1 9.11568 0.451487 3.19386
422 1 7.99144 2.90303 1.40855
423 1 3.61484 7.92004 6.38126
424 1 3.25044 1.01636 6.71651
425 1 7.78581 2.97219 5.61773
426 1 7.08407 9.41062 3.52817
427 1 6.13026 7.80764 0.236375
428 1 8.37379 5.2909 4.554
429 1 2.89056 0.189555 6.51949
430 1 8.70498 8.04735 0.343413
431 1 4.7269 7.80564 1.63036
432 1 4.77268 1.84497 8.73022
433 1 7.01235 0.0826611 5.1961
434 1 8.67992 4.65769 4.0367
435 1 2.68718 0.233393 8.08755
436 1 8.35725 3.79294 4.21038
437 1 9.04552 7.05393 2.18852
438 1 8.72582 7.99049 8.13305
439 1 5.56672 8.55129 0.680657
440 1 5.69311 4.01538 2.72999
441 1 6.64176 4.91563 0.994797
442 1 8.33071 7.54527 4.11709
443 1 3.64741 0.112867 8.70029
444 1 5.83029 9.14084 7.60996
445 1 6.08232 6.54724 8.41465
446 1 0.376819 1.60924 0.0845583
447 1 4.07686 1.80567 0.839448
448 1 2.0604 3.86021 0.213018
449 1 4.26719 5.56509 6.58722
450 1 9.06706 3.16763 2.83908
451 1 3.12125 8.80599 8.15979
452 1 0.624523 7.77514 3.97402
453 1 4.51043 8.63124 0.701335
454 1 4.86066 6.50633 2.60203
455 1 0.0403389 5.13602 3.91417
456 1 3.99083 1.97884 9.26506
457 1 6.3231 9.33059 1.00697
458 1 0.193072 4.565 9.08091
459 1 6.49878 5.7997 4.19355
460 1 6.13309 5.35164 4.94717
461 1 0.612579 3.38756 5.3411
462 1 6.00047 2.6483 7.58069
463 1 6.41814 4.02996 3.36631
464 1 3.35665 0.240826 3.55137
465 1 4.97517 3.66063 8.665
466 1 7.87251 8.48537 2.57893
467 1 0.952855 2.23605 3.73124
468 1 5.2737 9.32232 3.93305
469 1 3.84474 1.50434 6.27114
470 1 8.76413 0.645903 8.00026
471 1 5.07056 8.3512 3.53566
472 1 2.74279 8.80919 9.06544
473 1 6.87919 9.20003 9.08212
474 1 7.08292 4.45153 8.12763
475 1 9.36244 2.72572 5.15344
476 1 5.78566 3.01592 4.33674
477 1 8.57156 2.32002 3.64619
478 1 8.65943 2.99822 9.06403
479 1 8.1032 7.30933 2.69057
480 1 2.11342 5.39004 6.21073
481 1 1.64649 8.2162 2.29278
482 1 0.152793 5.22999 6.62383
483 1 2.01789 6.94968 0.46901
484 1 8.52419 6.34702 8.42835
485 1 6.26747 3.50883 0.410359
486 1 3.27269 0.0456737 5.44496
487 1 0.458012 1.72683 4.53625
488 1 4.68734 5.51065 8.41616
489 1 3.03014 7.95287 9.09161
490 1 7.66982 6.36332 3.03586
491 1 0.57973 1.96628 7.04862
492 1 1.40246 9.09036 7.66677
493 1 2.97243 1.87825 6.16434
494 1 0.515397 8.38994 9.32948
495 1 7.61725 4.72477 0.575725
496 1 9.34929 5.94051 5.62923
497 1 9.23899 7.86273 9.04787
498 1 5.39825 1.95867 1.61748
499 1 1.88299 2.64069 1.38884
500 1 0.470147 3.64089 7.80567
501 1 9.30412 5.34304 0.454497
502 1 5.58028 7.84256 5.51205
503 1 9.205 6.96957 8.72213
504 1 1.33125 2.06145 4.56239
505 1 4.95125 3.38312 4.81617
506 1 6.98851 3.74056 2.78901
507 1 6.34012 0.240668 8.23967
508 1 4.19175 4.78503 7.30486
509 1 3.94057 3.61945 6.29859
510 1 6.00284 5.34254 6.57734
511 1 5.36292 3.64105 0.625693
512 1 2.42125 1.20214 1.04641
513 1 0.212109 7.22181 0.236249
514 1 4.88502 8.71916 1.51068
515 1 7.7605 6.65424 7.621
516 1 0.540364 3.6964 1.47465
517 1 0.669405 8.93438 1.88762
518 1 0.0979759 3.60569 8.60731
519 1 6.6507 6.80177 4.38942
520 1 7.17634 1.33852 8.51827
521 1 8.7593 8.40027 4.00072
522 1 6.07306 4.16542 8.25421
523 1 0.766998 4.53718 2.17689
524 1 1.70488 4.34052 1.71475
525 1 3.48137 8.7961 6.60087
526 1 3.78691 6.15837 1.29555
527 1 1.84503 0.332101 1.44126
528 1 0.0684706 8.27332 1.6803
529 1 8.57175 1.67745 7.81266
530 1 8.45467 5.44669 1.94726
531 1 2.1315 7.81978 9.31526
532 1 4.16175 0.224084 0.784749
533 1 8.99219 2.85068 1.79659
534 1 8.29214 0.120839 1.19036
535 1 0.637423 2.78855 7.22218
536 1 2.37327 2.81903 4.05556
537 1 4.52985 2.67501 2.08443
538 1 8.24949 8.79189 8.24666
539 1 3.29838 5.85763 7.98334
540 1 4.17637 2.85293 4.96259
541 1 4.31187 7.71477 0.799111
542 1 3.67181 5.30801 0.806485
543 1 5.28303 6.50349 0.55435
544 1 3.20934 1.65898 1.29533
545 1 0.934501 5.00548 3.65977
546 1 0.222181 6.72725 3.89166
547 1 6.91829 1.21905 3.42635
548 1 7.5474 0.588177 6.64491
549 1 6.96592 3.11263 9.30656
550 1 5.7151 6.2831 4.49663
551 1 3.18058 7.93906 4.29485
552 1 5.56992 0.549969 2.85444
553 1 2.67048 2.87854 8.19564
554 1 0.185212 1.80926 3.67462
555 1 9.38287 0.00989286 7.34013
556 1 2.44794 5.3275 3.21521
557 1 1.3847 0.014809 4.05242
558 1 7.77378 0.346593 1.8805
559 1 7.90941 1.27002 7.4752
560 1 7.52025 1.14619 4.8239
561 1 0.525809 2.75924 2.2652
562 1 5.86561 1.40665 3.25122
563 1 0.147216 4.24125 5.42189
564 1 -0.00151503 1.14579 7.57977
565 1 0.905265 7.88993 3.00055
566 1 4.55526 1.52067 5.50701
567 1 4.02555 8.28586 3.34404
568 1 4.69767 5.68943 5.6997
569 1 6.56791 4.67588 6.03876
570 1 5.90445 7.94676 3.53527
571 1 8.72951 3.43442 6.83723
572 1 6.27572 7.70249 7.01511
573 1 8.72296 1.29623 3.80323
574 1 4.3153 8.37513 7.67556
575 1 9.00103 2.34213 6.11331
576 1 0.136719 0.953048 3.97945
577 1 4.95778 4.31769 1.14323
578 1 3.53909 3.0114 7.78965
579 1 8.81519 1.08534 9.29919
580 1 4.91097 3.60482 2.45837
581 1 4.31525 6.47247 9.15267
582 1 5.23503 7.08671 9.30311
583 1 0.993304 1.30833 4.07088
584 1 4.38745 4.6107 3.63779
585 1 8.62973 5.23408 3.38694
586 1 9.30103 7.5498 7.6095
587 1 5.54056 8.80195 8.51065
588 1 3.90246 6.97912 0.717381
589 1 0.852713 8.61547 0.855188
590 1 5.53576 5.08531 5.84523
591 1 7.28664 0.243151 1.05511
592 1 4.32805 5.95949 0.589413
593 1 2.5061 0.17047 4.69758
594 1 2.25574 1.74023 1.74483
595 1 0.324516 7.56599 5.93581
596 1 6.32444 1.72688 2.26214
597 1 0.589002 5.25961 2.8326
598 1 4.66375 2.91457 6.51473
599 1 1.31565 2.68017 8.83321
600 1 8.96659 1.22428 2.65504
601 1 6.31916 6.26744 6.46585
602 1 4.90071 7.92328 8.22423
603 1 5.21224 3.02433 0.0332972
604 1 1.11402 7.01735 0.527099
605 1 0.835927 3.15722 0.502599
606 1 0.403462 1.84249 2.67719
607 1 3.22786 3.83567 4.65287
608 1 8.65304 8.96436 3.01696
609 1 3.49636 5.35367 1.70378
610 1 0.616691 6.34981 6.66322
611 1 0.637095 6.41013 9.10921
612 1 7.56277 2.12325 7.57672
613 1 2.75503 2.38887 1.52644
614 1 9.1105 5.97035 7.35466
615 1 4.78699 8.33102 5.26539
616 1 2.44584 5.34735 2.24968
617 1 4.27189 0.454308 7.10212
618 1 5.33767 2.15389 6.33238
619 1 9.41502 0.0914812 1.77825
620 1 4.25668 4.54085 8.88579
621 1 7.53102 8.95942 6.55084
622 1 3.09616 4.28087 5.77323
623 1 6.57175 3.42691 4.23498
624 1 0.970488 1.17985 0.591401
625 1 3.02558 1.32266 3.17635
626 1 8.27367 0.511253 2.90164
627 1 9.30152 1.26098 0.836212
628 1 0.367247 3.02621 4.43291
629 1 0.100542 4.22198 3.46779
630 1 3.3689 0.953343 5.62372
631 1 8.29506 5.91548 5.35406
632 1 4.98995 0.454388 4.97374
633 1 0.685017 2.23931 0.683268
634 1 0.766304 5.3091 9.2245
635 1 7.12803 1.7678 4.33281
636 1 4.62636 4.63775 8.02972
637 1 1.99109 8.152 5.92576
638 1 3.27595 2.22801 4.29294
639 1 6.1329 0.533823 3.7061
640 1 4.6648 3.94331 0.233429
641 1 6.05964 2.39103 5.73788
642 1 2.05725 3.67366 6.81096
643 1 7.96788 5.79263 7.85224
644 1 3.82696 1.99585 3.53177
645 1 6.1576 6.33943 3.48638
646 1 0.738021 9.28519 0.0556773
647 1 0.415292 0.214102 4.35126
648 1 3.79666 1.0222 0.121804
649 1 1.28413 1.66974 9.36484
650 1 6.66166 0.879263 0.989314
651 1 2.2813 7.74745 4.19604
652 1 3.02002 3.7331 1.45739
653 1 4.95788 8.93096 7.45279
654 1 3.63793 5.69321 4.87131
655 1 1.59543 5.74989 7.09658
656 1 9.33249 8.96909 3.58768
657 1 0.510828 0.358498 2.63987
658 1 8.38739 6.91228 1.48318
659 1 6.58909 7.25219 8.8199
660 1 3.00544 7.02506 6.86676
661 1 9.06995 3.40205 3.8069
662 1 2.53287 4.5397 9.29656
663 1 0.934275 8.88103 8.50929
664 1 5.2136 2.43565 5.34141
665 1 8.90737 1.99958 4.47003
666 1 0.515108 3.4403 3.63503
667 1 0.119153 1.84165 5.38819
668 1 7.48769 2.23669 0.762349
669 1 4.514 8.67392 4.15556
670 1 6.93081 6.62638 1.73043
671 1 9.03842 4.12121 6.26393
672 1 1.92979 2.10129 3.48027
673 1 4.89994 1.50432 3.51703
674 1 6.72077 8.64636 2.00998
675 1 6.11315 8.85456 3.60123
676 1 1.32636 6.58078 3.9382
677 1 6.75412 0.894156 2.0312
678 1 7.81322 1.59134 3.67813
679 1 8.9601 1.42796 5.90449
680 1 3.88584 0.381486 6.26352
681 1 4.52994 2.40326 3.27677
682 1 2.35608 3.74981 5.92341
683 1 3.27455 9.25235 7.31609
684 1 2.50661 3.27852 4.85997
685 1 2.786 6.11223 4.68805
686 1 4.57194 4.43495 2.77314
687 1 3.66976 7.15748 3.02547
688 1 7.00834 4.28083 4.23301
689 1 1.66354 8.69565 9.11575
690 1 4.89789 0.996152 1.84158
691 1 8.15801 3.99174 6.26377
692 1 1.37684 1.45148 6.32635
693 1 1.25524 6.27599 4.96125
694 1 3.81798 8.37145 1.41544
695 1 1.10173 4.56219 7.06681
696 1 6.17857 2.4361 1.51458
697 1 7.38635 6.21475 4.22672
698 1 0.976251 7.71193 7.74234
699 1 6.69571 8.72328 7.2159
700 1 2.17258 5.41647 7.74882
701 1 3.55371 1.8606 5.39497
702 1 4.17681 8.57313 8.72558
703 1 6.95845 0.741155 4.22309
704 1 0.876017 6.59173 1.43341
705 1 7.76455 8.93195 0.804549
706 1 4.26277 1.7225 2.69688
707 1 4.30851 2.49841 5.74698
708 1 9.13429 2.23089 0.226104
709 1 6.19644 3.34072 1.28143
710 1 0.299545 7.42441 1.27573
711 1 8.80053 3.93375 7.93566
712 1 8.29482 2.02609 0.00875505
713 1 8.2136 6.58063 5.85759
714 1 6.90906 0.0811495 1.81595
715 1 1.49005 2.91403 4.72722
716 1 1.42097 7.20782 2.36664
717 1 1.62471 5.29791 5.23576
718 1 7.07743 7.99133 9.16264
719 1 2.41051 0.925953 1.9639
720 1 3.99208 1.45427 7.23502
721 1 3.51974 5.61569 7.03831
722 1 8.98583 7.18391 3.27023
723 1 3.24245 1.06171 8.70688
724 1 7.10572 2.69856 1.6331
725 1 1.70124 3.57896 8.45522
726 1 8.6798 0.589788 2.12304
727 1 0.0897231 3.91234 7.07521
728 1 7.35542 6.32833 5.77024
729 1 3.00956 2.63321 9.20981
730 1 0.688162 7.01528 4.71284
731 1 7.75255 4.51289 4.75585
732 1 3.65009 1.1335 4.74376
733 1 9.16181 1.71441 6.71617
734 1 0.88074 2.06511 1.8408
735 1 6.50988 1.95576 3.38557
736 1 9.15684 4.90602 2.54615
737 1 1.89536 0.0424122 6.50572
738 1 8.51375 6.2369 2.60911
739 1 1.47475 3.93973 7.56835
740 1 8.40577 1.57196 5.10747
741 1 4.39261 1.1693 4.25801
742 1 1.72459 5.75703 3.72333
743 1 9.19705 2.08989 1.33764
744 1 7.06601 5.37792 7.66495
745 1 3.25002 5.59113 6.00795
746 1 4.59394 3.38677 5.64044
747 1 5.71839 4.53512 7.49365
748 1 4.46403 9.07547 3.37064
749 1 5.86395 6.24141 2.69024
750 1 0.632395 0.225905 3.41632
751 1 7.9097 1.79075 5.82404
752 1 7.1508 4.6908 6.8328
753 1 5.75743 4.85558 0.388679
754 1 7.83853 2.71476 9.22958
755 1 0.556634 8.99782 5.76131
756 1 8.78893 0.861156 6.87524
757 1 7.95455 9.2439 5.6856
758 1 5.34612 3.21792 6.09364
759 1 8.07681 8.24532 6.53209
760 1 4.10905 5.42797 9.05002
761 1 2.69668 6.8123 2.23384
762 1 3.65538 8.84087 3.95141
763 1 8.7888 7.75577 5.97384
764 1 6.94182 0.636697 0.109079
765 1 7.42322 8.57218 5.53397
766 1 0.831229 7.49927 6.89159
767 1 6.36076 1.54838 4.79237
768 1 7.24755 2.96131 3.01119
769 1 3.53418 0.221346 4.57053
770 1 6.98871 6.92914 6.89506
771 1 7.85669 4.47445 9.07232
772 1 2.46196 4.22637 4.86703
773 1 0.292496 3.13666 6.21709
774 1 2.43074 4.43487 3.19684
775 1 3.10975 7.69423 1.90068
776 1 8.94839 3.037 7.79387
777 1 4.6041 7.58143 5.6856
778 1 1.54958 5.24857 8.81776
779 1 5.07592 3.898 3.90493
780 1 8.50908 6.57715 6.82589
781 1 8.61814 3.09354 5.91697
782 1 6.27334 5.10436 7.98218
783 1 2.65439 8.62072 1.51463
784 1 2.69854 2.00244 4.97525
785 1 0.868728 1.45252 7.95618
786 1 2.0919 7.23194 7.11109
787 1 2.23544 7.87797 5.14283
788 1 3.01628 2.68922 7.05618
789 1 4.02059 0.0830836 2.71492
790 1 7.43969 7.71987 3.3816
791 1 7.20445 1.92887 2.84647
792 1 8.88993 2.22989 8.45364
793 1 0.0868191 -0.0120328 8.8472
794 1 2.64202 7.15248 3.28071
795 1 0.898282 2.74716 8.11289
796 1 6.4387 5.79055 1.89035
797 1 6.89015 4.82035 5.05915
798 1 8.8748 8.62283 7.38248
799 1 5.13188 6.17983 8.92484
800 1 5.23439 1.17873 8.44128
801 2 8.13425 2.89794 8.05467
802 2 8.04689 8.09617 8.85207
803 2 8.01831 1.21086 8.77008
804 2 1.34974 7.9061 0.259993
805 2 3.07384 3.36101 6.33587
806 2 0.0493043 7.81614 2.46424
807 2 8.71144 4.40516 7.24686
808 2 6.05137 8.2651 1.4675
809 2 2.27868 6.50207 3.79305
810 2 4.32016 4.97728 4.81094
811 2 8.29968 0.714376 5.89353
812 2 2.36736 5.86177 5.55077
813 2 7.40193 1.84764 1.9005
814 2 3.2368 8.91816 3.08983
815 2 4.74483 5.12374 2.24768
816 2 8.77249 4.94935 8.05892
817 2 6.85114 6.44852 2.59147
818 2 1.63348 7.02656 3.29016
819 2 5.28923 0.343245 8.23356
820 2 7.75344 7.9321 0.505794
821 2 1.47558 1.08118 1.60325
822 2 2.71375 0.678644 3.92355
823 2 5.1218 5.47918 7.29422
824 2 9.24477 0.557549 6.16387
825 2 0.795722 9.03205 6.665
826 2 0.916668 5.40502 4.58446
827 2 7.31174 7.76356 7.04198
828 2 2.44568 4.33491 7.79626
829 2 5.2523 0.398266 7.06781
830 2 -0.00557508 3.76638 0.179701
831 2 1.34741 7.32761 1.48685
832 2 2.97823 6.50938 8.91464
833 2 5.88273 9.34718 6.58593
834 2 6.32637 2.27233 4.22761
835 2 4.75833 6.75676 7.36524
836 2 2.60421 1.66317 4.12354
837 2 1.7972 3.10881 5.57145
838 2 5.45491 5.32772 3.95
839 2 6.03306 0.467631 1.70275
840 2 4.68766 1.98504 7.6582
841 2 3.06944 8.62238 0.40798
842 2 5.76536 1.00367 7.73911
843 2 0.286984 6.13167 4.78846
844 2 4.58592 3.1485 0.711459
845 2 3.39679 4.3362 8.88049
846 2 4.60819 6.52163 5.09177
847 2 4.24945 5.62492 7.58233
848 2 2.97741 4.24495 0.650888
849 2 5.5072 2.26775 3.5219
850 2 3.25476 0.528115 2.63688
851 2 2.02517 6.69692 1.36956
852 2 6.97778 2.1907 0.118716
853 2 5.91135 3.58464 7.24211
854 2 8.39184 2.42373 5.34487
855 2 5.6227 2.101 8.19859
856 2 1.80271 8.26253 6.8672
857 2 1.45944 0.766775 5.65546
858 2 3.40972 5.72707 3.72127
859 2 9.19629 7.25476 6.74791
860 2 1.56046 4.4988 6.22238
861 2 2.01977 4.86028 7.00448
862 2 5.55989 6.01238 5.65707
863 2 0.0478169 5.00565 1.74304
864 2 2.23201 0.958819 8.80598
865 2 0.404811 7.84518 5.076
866 2 5.45823 2.92435 2.00948
867 2 0.833417 7.96183 1.98856
868 2 4.613 6.67328 1.15789
869 2 5.62447 8.54407 7.00957
870 2 1.33814 9.00869 3.20771
871 2 6.93955 7.1093 6.03705
872 2 0.884262 0.931609 8.71974
873 2 2.07441 0.260892 7.47147
874 2 6.2584 7.03691 2.10122
875 2 2.54717 7.88302 0.942107
876 2 4.68768 4.94448 0.479635
877 2 5.74513 3.8 1.85042
878 2 2.09248 3.12325 9.10496
879 2 3.37309 5.94761 0.328258
880 2 6.29509 4.68088 2.30011
881 2 1.70469 4.72655 4.5162
882 2 0.211393 5.18557 5.07275
883 2 7.09829 5.97478 8.30892
884 2 7.43679 0.0051346 4.3431
885 2 2.47659 5.9676 6.97502
886 2 8.0728 1.33199 2.67604
887 2 3.62014 3.07298 8.60221
888 2 6.98253 2.47716 4.91494
889 2 5.91 7.05618 3.1101
890 2 2.44345 8.83464 7.29218
891 2 3.15119 3.52454 5.46046
892 2 4.82948 5.82417 4.53699
893 2 6.68972 7.62204 0.868498
894 2 1.42533 0.256618 8.96111
895 2 4.97637 3.16501 3.37284
896 2 4.54812 8.15263 6.48681
897 2 3.569 0.535714 7.82729
898 2 8.14218 0.154199 8.71524
899 2 8.54726 6.29947 0.855378
900 2 6.1073 5.62517 8.90729
901 2 1.60357 7.03211 8.99445
902 2 4.39283 2.05514 6.62444
903 2 3.98735 7.95466 4.70817
904 2 6.9013 3.92199 8.97941
905 2 1.54353 3.12859 3.67832
906 2 8.96432 6.80772 7.77712
907 2 6.83063 3.5423 7.87007
908 2 5.10548 0.100134 2.12998
909 2 1.32957 6.78132 7.1829
910 2 4.43091 9.13159 6.59042
911 2 1.86939 1.19679 3.7024
912 2 5.54641 1.25759 2.36909
913 2 1.66031 5.70188 1.40924
914 2 3.65253 4.82719 6.45805
915 2 3.76135 2.79108 1.30546
916 2 3.43347 4.20573 2.92922
917 2 4.78717 2.44326 4.27382
918 2 1.58242 4.56608 2.87511
919 2 3.27088 3.05044 2.05522
920 2 7.12639 6.9066 5.15225
921 2 3.85757 3.67131 9.2165
922 2 3.20871 4.73701 5.02198
923 2 2.82663 6.05865 1.78933
924 2 4.14017 1.97482 4.72948
925 2 1.22214 3.9799 3.6092
926 2 8.72464 3.72571 5.28134
927 2 8.79085 5.77638 6.42705
928 2 5.18296 2.26973 2.55671
929 2 6.31203 0.638231 7.03307
930 2 6.32597 1.58002 6.47078
931 2 7.61544 7.37999 8.47577
932 2 8.59092 3.88044 9.0187
933 2 4.88501 3.04178 7.38042
934 2 8.08273 5.01703 5.48864
935 2 6.52198 3.41089 2.14556
936 2 1.85321 4.87039 3.67142
937 2 6.02309 7.87555 2.46521
938 2 8.8699 4.49218 0.550887
939 2 7.89371 8.80264 7.37615
940 2 1.26362 4.48101 0.0190872
941 2 9.27037 4.0045 4.45657
942 2 9.13749 8.48359 5.34245
943 2 5.26124 8.56556 6.03612
944 2 3.84895 3.61889 0.747486
945 2 1.84927 2.2187 5.93871
946 2 8.84866 6.6993 4.62911
947 2 7.10042 8.53303 3.19439
948 2 2.76924 4.97256 3.99325
949 2 4.9303 4.29198 4.98142
950 2 5.76233 3.13563 3.0046
951 2 5.16348 3.91724 7.69659
952 2 8.3408 7.93296 3.33657
953 2 7.56648 5.96175 6.93144
954 2 6.21101 7.39433 8.00413
955 2 5.16618 0.439588 1.05295
956 2 8.59508 3.12703 0.665459
957 2 1.38356 1.92003 7.3835
958 2 2.82484 4.07688 3.91536
959 2 5.29297 9.12361 3.03629
960 2 4.12503 0.46714 5.26806
961 2 1.31364 0.155163 5.0463
962 2 2.01954 8.70864 4.46054
963 2 6.31877 2.67397 8.52032
964 2 4.90218 4.97087 6.48984
965 2 1.35666 7.50491 5.48055
966 2 5.37989 5.6999 0.306147
967 2 4.61395 0.833923 6.01437
968 2 7.29581 8.67784 8.43654
969 2 8.3631 7.81143 1.19475
970 2 0.318723 8.71015 2.67425
971 2 0.207557 2.154 7.8201
972 2 2.33693 3.28242 1.83113
973 2 4.07968 1.0405 1.36185
974 2 9.13245 8.95281 8.18456
975 2 5.8862 5.9081 7.7871
976 2 2.39593 0.44405 5.72387
977 2 8.08054 0.354611 4.94609
978 2 8.30555 9.3983 6.81926
979 2 6.52767 0.362 2.8395
980 2 2.9552 4.97384 7.38871
981 2 0.776635 5.79612 5.53749
982 2 1.27336 6.1459 0.276994
983 2 1.17256 2.60112 2.98916
984 2 2.19042 8.67146 0.717791
985 2 4.97225 5.21893 1.42832
986 2 5.7736 4.99551 3.15313
987 2 3.10017 0.386003 1.76515
988 2 7.79963 5.5352 6.26855
989 2 1.08509 5.35087 6.17097
990 2 6.67584 0.682372 6.24118
991 2 3.74866 2.73464 0.330297
992 2 0.711635 1.95954 8.63621
993 2 0.517835 1.10902 6.78427
994 2 4.77695 4.50589 5.77726
995 2 0.75193 4.56645 4.38687
996 2 3.00267 6.62364 5.65507
997 2 7.0357 3.70521 5.55029
998 2 7.79542 0.321711 7.55984