#bin. KALJ data file T=0.5

1000 atoms
2 atom types

0 9.4 xlo xhi
0 9.4 ylo yhi
0 9.4 zlo zhi

Masses

1 1.0
2 1.0

Atoms

1 1 3.04899 3.69451 3.36741
2 1 1.55805 0.775512 2.09757
3 1 0.425145 2.50755 8.59703
4 1 5.35204 1.58377 2.31107
5 1 0.803087 2.45245 0.91879
6 1 9.18199 3.5206 1.41003
7 1 9.14326 2.41808 5.59266
8 1 3.23082 5.34289 1.93641
9 1 7.16556 0.190961 3.45885
10 1 5.10472 8.32491 8.32945
11 1 2.9749 7.76926 3.08764
12 1 5.81169 4.11012 2.56993
13 1 0.925445 9.31555 8.82877
14 1 1.72296 1.85756 0.496971
15 1 8.74335 0.120028 0.529033
16 1 8.07946 2.43499 7.5383
17 1 8.91825 7.28515 2.08771
18 1 5.36744 3.11698 6.08616
19 1 8.41062 2.8637 0.612829
20 1 4.60846 5.79532 2.69709
21 1 0.349981 0.264702 6.89213
22 1 9.01242 3.63141 0.551184
23 1 1.63565 8.50743 3.92366
24 1 4.95288 6.72155 8.53696
25 1 1.72318 4.28689 2.12078
26 1 6.81201 7.25373 5.32752
27 1 5.67858 4.80504 3.37089
28 1 6.88253 9.3939 1.31532
29 1 5.71044 8.21094 4.10548
30 1 7.95145 4.66678 7.41271
31 1 5.98378 6.28704 7.25848
32 1 0.184087 1.76342 5.15952
33 1 8.5642 7.31924 2.98925
34 1 5.26901 8.9701 5.2061
35 1 9.41206 6.75688 8.44107
36 1 7.33599 3.82408 1.89797
37 1 7.0112 6.00629 2.50305
38 1 0.10607 6.64399 2.90612
39 1 6.65383 2.21901 6.51336
40 1 2.0903 4.7139 8.16967
41 1 3.79242 2.62669 3.06729
42 1 6.28673 9.08645 4.06922
43 1 3.57592 0.884686 2.3929
44 1 5.23387 6.93646 6.27121
45 1 7.70998 9.17938 5.7573
46 1 2.98579 3.83683 5.15872
47 1 0.0267321 6.5226 0.436819
48 1 1.29247 2.3964 6.73295
49 1 5.79534 6.59613 1.52877
50 1 1.35828 0.254606 5.12474
51 1 0.120317 6.62345 6.64219
52 1 4.15728 1.49564 5.80288
53 1 6.8986 1.16525 6.59431
54 1 0.989654 8.42086 5.66032
55 1 5.79387 1.64591 5.29637
56 1 9.23309 6.54832 5.62563
57 1 7.63514 3.56769 5.86384
58 1 7.66165 1.53524 0.729265
59 1 3.0086 6.88314 6.15599
60 1 3.86263 8.94046 8.91838
61 1 4.46805 3.88281 5.96344
62 1 1.87475 8.40738 7.13284
63 1 8.87078 0.442647 1.865
64 1 2.74103 1.01014 7.0433
65 1 2.16753 1.66721 8.93181
66 1 8.3504 6.52121 5.86534
67 1 8.6969 7.30135 8.21831
68 1 8.79832 9.02696 1.29069
69 1 2.4994 7.87105 6.67539
70 1 0.191235 9.29055 0.436128
71 1 2.77989 5.90077 4.0002
72 1 8.22123 5.7876 7.43111
73 1 6.31021 2.21804 4.50787
74 1 7.16994 1.44197 3.78769
75 1 8.91167 1.48522 7.85157
76 1 1.85744 6.52835 5.46776
77 1 3.84355 6.26086 3.96045
78 1 0.0514448 4.41231 6.82732
79 1 5.90576 1.92515 7.95276
80 1 2.56803 8.55226 3.60777
81 1 2.57625 3.39145 0.333731
82 1 5.02008 1.28074 3.42392
83 1 5.29595 2.13485 5.96826
84 1 2.04856 8.0229 8.03299
85 1 7.88332 4.25001 6.56529
86 1 0.407334 0.737661 5.19327
87 1 8.15901 4.58327 2.84933
88 1 9.14088 1.15226 5.70759
89 1 5.85451 3.1749 0.101807
90 1 3.43831 7.46519 2.27558
91 1 4.81553 3.17041 5.48278
92 1 4.66849 5.45635 5.19794
93 1 9.29888 0.880184 2.82341
94 1 2.05962 0.276486 1.51362
95 1 0.168425 3.56229 5.43741
96 1 4.45802 7.17663 1.042
97 1 0.142312 0.503239 1.12682
98 1 8.5836 4.0439 8.30149
99 1 9.27132 2.72096 0.919472
100 1 7.08609 8.32202 8.04699
101 1 1.75294 3.8727 8.21694
102 1 5.88053 6.27513 6.25741
103 1 0.0145359 1.61402 3.28628
104 1 5.21316 2.34493 0.592435
105 1 2.25074 4.98382 6.70887
106 1 5.19489 2.50153 7.83535
107 1 1.45292 0.266065 0.684442
108 1 8.27761 0.695284 8.7937
109 1 7.46065 1.02022 2.90269
110 1 5.74943 3.29352 5.22484
111 1 4.67369 6.73728 0.16055
112 1 3.86825 7.86062 1.00406
113 1 2.99821 9.25153 0.174899
114 1 4.33472 3.71087 8.95092
115 1 7.06103 2.90992 5.51373
116 1 5.30723 2.69648 1.99714
117 1 0.345492 7.39862 5.89553
118 1 9.21102 5.28007 4.88881
119 1 6.24797 9.25877 8.98311
120 1 3.65572 3.78388 6.41644
121 1 7.37696 0.588052 9.18302
122 1 2.14244 2.36984 2.57003
123 1 8.86286 4.90643 0.331222
124 1 3.6545 4.19134 7.1842
125 1 7.08196 6.1997 3.42751
126 1 3.47599 2.87578 6.67882
127 1 3.58445 4.314 3.19566
128 1 2.82423 3.03402 5.63257
129 1 8.1067 7.36294 8.96231
130 1 1.45509 7.48649 4.65188
131 1 1.70162 4.17961 6.33577
132 1 3.31203 6.1261 8.65613
133 1 4.19501 3.05372 4.71411
134 1 4.80125 9.14475 6.60775
135 1 1.38043 5.74878 5.5482
136 1 2.47696 6.47536 1.44047
137 1 1.36947 5.25887 2.04199
138 1 4.78725 8.37075 4.66041
139 1 8.69033 2.58753 3.71538
140 1 1.80544 9.11682 7.97568
141 1 0.552239 2.9307 2.84102
142 1 2.6049 6.77058 8.67233
143 1 3.64315 3.61968 7.91387
144 1 4.72681 8.00172 1.53819
145 1 1.6384 5.67138 0.321703
146 1 0.900264 6.68419 8.11589
147 1 3.52054 9.30102 3.78957
148 1 0.80958 6.05273 2.87872
149 1 7.98727 9.26734 9.36399
150 1 0.423626 3.17352 4.25795
151 1 7.55415 6.09752 8.35696
152 1 3.35913 0.380771 0.886125
153 1 7.22559 8.80366 3.01455
154 1 0.513139 4.51793 7.79294
155 1 7.60634 6.8192 7.29167
156 1 2.23405 5.82055 7.69511
157 1 4.7627 7.85181 7.61076
158 1 2.29532 6.75099 7.14629
159 1 9.07967 1.79265 6.52078
160 1 3.97717 8.17415 3.39435
161 1 2.4002 0.632356 5.16494
162 1 5.72521 3.87588 3.48421
163 1 7.07257 6.88666 9.00424
164 1 2.00347 7.007 7.95621
165 1 5.00117 1.40398 7.43404
166 1 8.25285 4.16479 4.47873
167 1 3.382 0.565075 7.47264
168 1 1.19563 2.59515 2.30456
169 1 7.89004 1.07846 6.36929
170 1 0.266204 4.19472 0.918079
171 1 5.8012 1.58019 6.9531
172 1 0.500027 2.15968 1.94497
173 1 7.05352 3.8928 9.22796
174 1 1.97449 3.32458 6.0073
175 1 5.44333 7.48265 8.72831
176 1 2.85959 7.30323 1.65503
177 1 2.63128 9.00143 7.14129
178 1 2.17716 7.94363 1.7597
179 1 1.2308 7.69195 3.29698
180 1 9.05189 0.81006 4.72014
181 1 3.1035 6.14185 3.12178
182 1 2.46277 1.51251 1.93697
183 1 0.479455 1.7861 8.01006
184 1 7.45064 5.36488 0.459924
185 1 0.715072 4.94884 0.0882182
186 1 7.04272 9.25604 0.353388
187 1 5.45505 8.66711 1.65088
188 1 5.83541 3.09543 2.5886
189 1 3.16803 8.20139 1.72283
190 1 4.59941 8.95192 0.148071
191 1 7.63592 2.77581 6.47991
192 1 4.86786 3.26011 8.23182
193 1 8.08214 7.34405 5.38567
194 1 5.76023 1.23895 4.38922
195 1 3.69279 5.11574 1.18651
196 1 9.02173 7.1305 9.20976
197 1 3.35151 4.50836 2.23414
198 1 0.348171 8.53966 8.70883
199 1 1.19744 4.4357 8.83833
200 1 2.97945 5.20719 6.18551
201 1 7.23562 2.73106 8.17052
202 1 2.78162 9.26381 3.11984
203 1 5.40132 7.10093 0.685205
204 1 5.216 3.45847 0.960862
205 1 8.63191 8.12574 9.08195
206 1 1.22272 6.24833 2.00076
207 1 8.83706 1.71953 4.51928
208 1 2.6519 0.781561 9.09529
209 1 8.7971 8.65905 0.349892
210 1 4.33953 5.42796 6.63825
211 1 2.97926 1.25285 3.38813
212 1 4.53519 8.6796 3.89386
213 1 4.5413 7.71742 5.65586
214 1 2.6201 8.3784 0.0744799
215 1 8.35051 9.0714 7.50757
216 1 1.76679 8.31349 8.96864
217 1 5.79209 1.09173 8.48144
218 1 7.81293 5.57579 9.03043
219 1 5.34496 2.34346 4.9783
220 1 9.03606 6.11478 7.43396
221 1 3.65316 7.11924 3.30339
222 1 5.58941 8.35273 6.00793
223 1 6.2348 3.84734 7.05412
224 1 6.5663 2.0813 8.49366
225 1 7.84609 7.70469 2.04843
226 1 2.92203 2.94823 2.9309
227 1 1.88693 5.01865 4.84452
228 1 6.56677 3.48466 7.82407
229 1 4.06294 4.22825 1.75603
230 1 7.56331 3.75426 3.33112
231 1 2.66057 4.49179 4.19182
232 1 8.63459 1.76422 0.869508
233 1 0.181856 4.79981 5.81021
234 1 2.16827 2.77376 0.864527
235 1 1.46873 2.03748 4.20404
236 1 4.44679 0.249766 0.804737
237 1 1.72699 5.70786 2.97265
238 1 5.85648 5.43542 7.63457
239 1 0.718561 6.23636 6.05619
240 1 5.78497 3.31032 4.21428
241 1 6.0769 2.91214 1.13109
242 1 3.04983 4.16085 0.151373
243 1 3.0849 2.55735 9.25563
244 1 0.917192 1.6463 0.0748617
245 1 0.444628 5.11655 2.55845
246 1 1.43357 6.57934 7.34559
247 1 3.8857 8.29405 5.98855
248 1 3.77671 9.22065 5.88502
249 1 6.04256 0.904334 2.03901
250 1 7.65223 7.40314 0.349352
251 1 6.16914 8.7254 4.97425
252 1 7.30637 7.41801 4.61606
253 1 1.26263 6.1228 8.9369
254 1 5.2649 8.87975 3.49368
255 1 7.26618 8.75916 1.93478
256 1 1.59044 1.74954 2.17616
257 1 3.34743 5.8534 1.03335
258 1 7.46929 1.19538 5.24299
259 1 1.87869 3.92208 5.27685
260 1 6.30814 0.221416 4.83943
261 1 4.55744 4.19604 6.84955
262 1 6.26032 7.4538 1.25994
263 1 1.06275 1.13559 0.78058
264 1 2.75933 6.83955 2.50373
265 1 6.50853 7.93892 7.00259
266 1 1.77538 3.74813 9.14669
267 1 5.66725 3.89467 7.87738
268 1 4.68175 2.11941 8.80484
269 1 7.7775 4.57916 8.37797
270 1 2.72303 8.43137 0.918041
271 1 7.06359 5.12554 8.76526
272 1 6.92632 7.4287 6.36997
273 1 0.339811 9.04453 1.72993
274 1 4.57896 4.74112 1.00186
275 1 5.98037 7.79991 2.02506
276 1 4.46183 2.42072 2.19383
277 1 4.64799 3.9383 4.78903
278 1 3.61309 8.49455 0.339869
279 1 2.77306 2.2063 3.4833
280 1 6.41365 3.64366 5.79765
281 1 8.3766 3.58034 9.04815
282 1 8.06772 8.22757 7.52994
283 1 8.08079 5.47399 6.5249
284 1 6.75196 1.13542 7.95582
285 1 4.54597 0.168569 3.50093
286 1 1.1477 4.19644 0.389935
287 1 4.38293 0.51948 9.12832
288 1 4.37332 6.82876 6.18324
289 1 5.44185 6.67095 2.7637
290 1 3.10435 6.73719 7.90687
291 1 7.49941 1.75202 5.90795
292 1 4.29369 2.78522 0.817804
293 1 8.86787 5.58482 5.78483
294 1 7.51207 3.66095 8.37224
295 1 3.36809 3.81445 1.47766
296 1 6.20549 1.78315 9.22707
297 1 5.33103 0.122482 0.808387
298 1 8.81127 6.17734 6.50012
299 1 2.47724 3.12885 8.87462
300 1 0.638412 7.62462 1.66747
301 1 4.85984 4.13368 3.1711
302 1 6.31304 0.710702 3.7303
303 1 0.249594 3.76389 2.27185
304 1 6.54832 7.97158 3.80614
305 1 8.63341 0.559884 6.07472
306 1 4.84381 3.70976 3.92117
307 1 2.02285 7.41105 0.0444142
308 1 3.48643 7.59827 6.53775
309 1 2.62618 2.26464 1.54389
310 1 6.53466 6.07467 1.55447
311 1 6.99172 1.01284 1.97096
312 1 8.86906 4.83035 4.1683
313 1 7.59346 0.78906 8.14494
314 1 4.97556 9.23991 8.64702
315 1 2.10131 5.01838 2.61682
316 1 8.02625 2.18401 0.159721
317 1 8.16867 8.16491 2.93679
318 1 2.66583 4.27605 2.75991
319 1 6.59676 2.90406 8.82632
320 1 5.40125 1.18345 6.00794
321 1 7.55975 2.91026 9.24978
322 1 0.169976 0.429565 6.04378
323 1 7.9357 6.3419 2.84692
324 1 0.385929 6.64711 1.98304
325 1 0.467636 0.0697057 3.30104
326 1 5.16335 5.16714 6.63444
327 1 2.8933 4.76654 8.79123
328 1 1.2082 8.75629 2.03833
329 1 9.0714 8.28706 2.74525
330 1 7.93296 0.493152 5.36778
331 1 4.33259 0.898106 2.82276
332 1 6.91655 9.19695 6.51701
333 1 2.14032 9.01223 0.495706
334 1 5.12414 2.81815 3.69628
335 1 0.584917 0.703994 4.04778
336 1 0.0704127 0.731209 7.78088
337 1 4.81274 5.18108 8.2739
338 1 7.72175 7.67001 3.51924
339 1 1.73012 7.49165 7.2701
340 1 2.89098 7.80793 7.65792
341 1 7.97722 7.18229 1.30783
342 1 5.18904 8.16869 2.33869
343 1 5.54671 6.91587 4.71975
344 1 3.25143 1.58353 6.07004
345 1 4.43264 1.37504 0.488175
346 1 6.32024 5.30707 2.46395
347 1 4.41102 0.790399 6.32011
348 1 8.34447 5.65964 0.369048
349 1 4.54739 2.14623 4.09008
350 1 1.44996 3.34711 4.061
351 1 1.67024 8.3114 6.25175
352 1 0.407158 9.24714 5.48577
353 1 0.164286 3.55513 6.35059
354 1 7.20407 0.574178 5.89703
355 1 6.2958 0.617689 1.2135
356 1 3.51701 0.814156 5.49442
357 1 4.65562 3.79024 2.40172
358 1 8.66853 2.63973 9.07464
359 1 7.49862 6.70027 5.64709
360 1 9.32453 5.49686 0.851856
361 1 7.21556 5.18509 7.12167
362 1 7.3648 4.3562 4.25607
363 1 2.98143 2.76144 8.26062
364 1 2.00269 6.40979 4.50401
365 1 6.18 6.45607 3.23378
366 1 6.31029 1.89377 3.63449
367 1 5.97552 9.00132 6.55436
368 1 4.33607 3.44665 7.42029
369 1 7.58198 5.3652 7.86317
370 1 1.64404 1.68188 3.0734
371 1 8.90806 6.4783 3.62039
372 1 2.73579 2.45227 7.42783
373 1 9.16921 3.94794 4.39044
374 1 5.65696 8.11282 7.45561
375 1 1.59497 2.69711 4.71094
376 1 1.45332 1.58838 6.29859
377 1 0.766337 4.29113 2.74696
378 1 6.681 6.42079 6.63973
379 1 1.68008 5.39148 8.70358
380 1 3.33333 1.53287 1.85671
381 1 8.9121 9.18795 6.68542
382 1 3.48741 7.37959 5.64385
383 1 5.49725 8.16102 0.936201
384 1 4.62449 8.7762 7.73687
385 1 1.99432 2.67435 3.66638
386 1 0.205909 5.56834 6.50086
387 1 0.86826 1.41029 4.66979
388 1 4.28556 5.34319 1.94223
389 1 8.62243 6.25213 9.03938
390 1 3.0185 5.08757 3.24008
391 1 8.52334 1.79988 1.79655
392 1 2.15566 0.885455 3.0421
393 1 1.01746 8.67138 0.449951
394 1 5.24069 0.470756 6.90585
395 1 1.79079 8.93935 5.53896
396 1 6.65399 7.80408 2.77662
397 1 8.36822 5.53049 3.14969
398 1 7.61971 0.0715372 7.59213
399 1 8.20944 0.946113 2.43095
400 1 6.18539 0.169768 7.93449
401 1 0.57631 3.76024 3.49328
402 1 4.52687 8.8714 2.94436
403 1 4.08677 6.67788 1.65247
404 1 2.93872 2.94335 3.98917
405 1 1.11989 4.70014 3.37516
406 1 3.63351 2.90386 1.51106
407 1 0.813649 0.800518 8.32609
408 1 1.38282 1.00249 5.53297
409 1 2.22857 4.01337 0.953202
410 1 3.96011 2.82827 8.43901
411 1 0.352417 8.41406 3.49297
412 1 0.855902 3.65272 8.17927
413 1 3.32124 2.54051 2.24042
414 1 2.783 2.255 6.41707
415 1 9.05888 5.70421 3.99051
416 1 8.36852 6.7987 0.394615
417 1 7.86995 8.09209 8.39351
418 1 0.111131 2.46158 3.4513
419 1 4.92803 6.03604 6.20766
420 1 4.74849 7.60429 3.10442
421 1 0.872027 2.9514 1.63893
422 1 7.20067 0.579566 4.34934
423 1 9.16025 3.27171 3.15816
424 1 0.668144 2.91773 7.64584
425 1 1.39528 2.87115 8.49859
426 1 2.95895 7.47721 4.7845
427 1 3.39144 5.28497 4.28455
428 1 5.19371 5.44116 1.70836
429 1 1.43516 6.62614 0.514276
430 1 3.86075 1.67703 3.07664
431 1 3.90427 3.25057 5.58718
432 1 1.44787 2.19064 7.60015
433 1 7.76659 9.09094 6.75342
434 1 8.04429 4.89374 5.67707
435 1 1.58001 6.60003 2.7917
436 1 4.59715 4.75877 5.87505
437 1 6.19211 4.71438 5.39336
438 1 6.24198 3.03977 6.44083
439 1 5.89622 5.3869 1.06929
440 1 3.25251 1.64454 8.92118
441 1 8.99203 0.0500277 8.33489
442 1 7.17246 7.7983 1.0297
443 1 6.31402 0.755582 5.706
444 1 8.70178 4.53932 6.16591
445 1 6.00407 8.66941 8.20912
446 1 4.3887 7.34874 6.8665
447 1 6.2199 2.80474 3.53875
448 1 0.926646 1.14237 2.7498
449 1 6.45905 0.633039 2.8238
450 1 0.750439 8.01671 4.2825
451 1 0.0480782 3.97155 9.228
452 1 7.3369 7.98676 5.42972
453 1 0.485962 1.72049 7.09756
454 1 4.68881 2.02581 1.27709
455 1 8.58082 0.177224 3.34586
456 1 1.22582 8.39284 8.12016
457 1 1.65055 1.18586 8.20652
458 1 1.7739 2.79597 9.35002
459 1 0.301818 4.42139 5.00055
460 1 6.00977 2.50832 5.69062
461 1 0.182848 -0.00616072 4.53918
462 1 9.24312 4.7189 3.29837
463 1 6.64284 7.19425 0.230382
464 1 8.47642 3.86811 3.49735
465 1 7.45569 2.09231 4.87993
466 1 5.71253 2.27796 2.92311
467 1 6.83437 4.9323 1.25229
468 1 8.94174 8.21593 1.77244
469 1 6.55297 8.59702 1.2102
470 1 3.76736 9.40548 2.071
471 1 1.48467 3.27079 0.702473
472 1 0.903602 8.44366 1.24377
473 1 5.22283 5.03881 4.77485
474 1 5.36378 9.06471 2.61675
475 1 4.43525 2.38449 5.63096
476 1 4.74754 5.73854 7.5507
477 1 6.16228 4.87154 6.90681
478 1 0.227522 3.78668 7.42684
479 1 4.99017 1.01718 1.09455
480 1 1.07217 7.61082 0.146843
481 1 3.09589 0.303653 4.79851
482 1 2.58132 4.21804 7.12211
483 1 8.51175 2.72392 1.58661
484 1 1.90016 8.64625 2.9803
485 1 1.04248 6.99591 6.6597
486 1 1.81436 0.0452385 2.60013
487 1 2.12187 8.16401 5.28522
488 1 9.28669 5.50964 9.09315
489 1 3.36466 3.7774 4.31192
490 1 6.55331 6.23709 4.31685
491 1 5.52619 5.74323 2.83058
492 1 7.23211 4.42756 2.80472
493 1 4.98482 4.01558 1.63509
494 1 7.76262 8.94949 8.2808
495 1 1.77397 3.5465 6.96326
496 1 7.77545 8.3475 0.177969
497 1 0.933049 2.56333 9.36173
498 1 7.93448 5.8148 3.94512
499 1 4.06715 1.16008 8.00422
500 1 7.89627 6.74352 3.62297
501 1 1.89072 3.199 1.88663
502 1 9.24223 2.15674 2.58166
503 1 0.262819 5.48802 7.62386
504 1 4.05783 0.957275 1.37672
505 1 5.26023 3.87776 9.36255
506 1 9.12663 8.5815 5.7075
507 1 7.18681 5.43741 4.20362
508 1 8.61592 0.626948 7.54605
509 1 9.20483 7.05824 4.75547
510 1 5.30397 0.315802 1.81275
511 1 3.92829 9.34026 6.73076
512 1 0.429854 5.63125 5.46805
513 1 5.97981 6.71068 5.56887
514 1 2.9244 8.49526 5.6114
515 1 3.83253 4.39819 0.487526
516 1 8.34211 1.44105 7.0069
517 1 7.79916 1.11861 1.52758
518 1 6.56738 2.5426 2.68451
519 1 6.77629 0.502364 7.31835
520 1 5.93234 0.983509 7.56753
521 1 0.838317 3.5061 9.17626
522 1 6.97624 7.11495 3.70331
523 1 4.57508 7.56042 8.63815
524 1 5.68549 5.10031 8.52716
525 1 3.56356 0.982563 0.198267
526 1 8.40349 4.51192 1.82742
527 1 8.80485 6.33283 2.30935
528 1 8.38657 1.20983 0.096628
529 1 9.17398 8.4433 7.13152
530 1 4.9576 6.32594 1.96099
531 1 3.28607 8.23745 8.69299
532 1 7.66311 6.46911 4.67906
533 1 2.80294 8.41371 4.63854
534 1 3.40828 3.30215 0.687955
535 1 8.24358 6.19009 1.20616
536 1 7.45869 4.71285 1.95408
537 1 7.07482 2.23311 9.39789
538 1 1.1004 7.56117 7.84285
539 1 1.10742 3.56934 4.79636
540 1 3.87533 5.04322 8.06731
541 1 2.52053 5.94847 5.84398
542 1 8.89799 3.2116 5.04673
543 1 3.02176 1.75678 8.06817
544 1 0.623243 7.55396 8.61056
545 1 3.57979 6.02206 6.33416
546 1 3.63274 0.897261 6.62902
547 1 0.0338968 4.54725 1.77538
548 1 1.92758 6.26831 8.39157
549 1 2.24969 5.01946 0.572565
550 1 7.92002 2.22966 8.65931
551 1 0.872197 3.19205 6.80851
552 1 8.42473 2.61161 2.69186
553 1 1.79686 8.07261 0.648903
554 1 2.52697 7.66865 8.64047
555 1 5.16113 6.29251 5.40471
556 1 4.4129 3.12347 6.5194
557 1 5.06348 8.12408 9.27394
558 1 7.95276 8.37955 1.27561
559 1 0.95532 9.06093 3.94654
560 1 1.13397 6.5758 4.86858
561 1 5.64338 6.82632 7.95869
562 1 0.247456 1.56832 0.903147
563 1 0.0274007 8.4264 4.64274
564 1 7.76079 0.16248 1.80118
565 1 2.22931 7.68421 3.69441
566 1 4.92819 3.05685 2.78196
567 1 4.03515 8.28289 7.14202
568 1 2.63761 5.80074 6.82821
569 1 8.76721 4.16207 7.31077
570 1 7.47898 2.52721 0.787756
571 1 7.99732 1.16142 4.63458
572 1 6.30963 9.20493 3.05462
573 1 1.64384 2.14627 1.30581
574 1 3.47627 2.2166 4.03824
575 1 2.15521 2.16458 8.05322
576 1 7.22219 5.53603 6.17349
577 1 4.96497 5.50316 0.570407
578 1 7.84528 6.33377 6.56784
579 1 3.26446 6.37027 1.84255
580 1 7.08605 4.76644 5.20852
581 1 4.77026 8.08381 6.56871
582 1 6.79889 1.2775 4.6397
583 1 2.31011 6.31711 3.47169
584 1 7.71346 8.19616 4.26108
585 1 7.76093 3.73579 7.49868
586 1 0.744352 0.757514 9.26385
587 1 7.5375 7.12239 8.25617
588 1 8.63098 4.29325 0.95168
589 1 7.37908 7.66728 7.37011
590 1 6.52973 4.23112 3.52027
591 1 1.74383 4.14192 4.30708
592 1 4.40697 0.496628 7.36724
593 1 4.51938 0.218781 5.51095
594 1 1.98036 1.31863 3.85147
595 1 4.44328 6.35609 6.95722
596 1 0.375829 7.66763 6.80328
597 1 2.25365 6.02981 2.35436
598 1 6.63119 3.11624 4.6719
599 1 2.47707 1.38825 5.69362
600 1 8.2002 2.91758 5.77302
601 1 4.85641 1.03863 8.41538
602 1 6.57748 6.67208 7.99909
603 1 4.03579 2.08825 7.96766
604 1 3.12805 4.44812 0.989903
605 1 7.56659 1.03178 7.22204
606 1 1.85316 8.77716 1.32785
607 1 4.01143 5.67705 0.492227
608 1 8.11965 8.86452 3.79087
609 1 2.14732 1.76062 7.01942
610 1 0.783389 9.27523 7.86119
611 1 3.80952 3.63262 2.58197
612 1 6.5736 8.84032 7.38944
613 1 1.26494 0.469062 3.18255
614 1 6.26561 7.7394 8.01866
615 1 0.933006 1.30583 1.62888
616 1 5.19085 0.428236 7.78952
617 1 5.38502 2.01225 4.00235
618 1 7.22303 0.752722 0.958443
619 1 5.22094 3.37636 7.18262
620 1 4.27053 3.63435 0.702092
621 1 3.96789 6.92915 8.1602
622 1 4.63919 7.97222 0.61082
623 1 4.09644 8.44449 2.24542
624 1 2.41833 8.64364 8.50667
625 1 1.98961 5.57911 1.27185
626 1 0.49115 5.38869 3.54044
627 1 7.18781 3.13661 1.3259
628 1 2.45796 2.03604 4.29279
629 1 0.356916 8.24182 2.20156
630 1 6.1678 8.64581 2.26876
631 1 0.794461 2.03807 2.96467
632 1 9.17905 5.84144 3.05174
633 1 3.78414 8.87968 4.66743
634 1 1.38112 3.30378 3.2126
635 1 0.315225 6.17848 4.82468
636 1 7.89213 6.65605 1.97289
637 1 6.8253 8.19409 0.353323
638 1 5.68336 2.39389 8.85867
639 1 1.10815 9.33232 6.06699
640 1 7.18045 2.83022 7.29334
641 1 6.00445 5.59 3.77002
642 1 9.34129 5.59196 1.77726
643 1 6.40632 7.98708 5.38004
644 1 0.569661 8.8554 6.73281
645 1 3.84791 0.713793 3.91279
646 1 8.11282 0.904875 3.49275
647 1 0.797785 5.97507 7.04179
648 1 8.73618 3.55783 5.87937
649 1 6.64466 1.9034 5.22531
650 1 5.97247 8.99584 0.439203
651 1 1.31921 6.15116 3.68167
652 1 6.96883 1.40951 0.215081
653 1 8.08201 8.52248 6.08875
654 1 6.73732 5.51691 8.03059
655 1 6.18159 1.49001 6.19957
656 1 8.61128 9.1973 5.36563
657 1 7.37095 2.13301 3.12134
658 1 8.97707 7.18062 6.23469
659 1 2.83033 4.81043 5.07386
660 1 0.889826 8.76875 4.75542
661 1 6.65491 4.30853 2.16089
662 1 7.09418 6.77239 0.88981
663 1 8.78862 8.29866 8.12027
664 1 2.70127 4.9477 7.55428
665 1 2.39932 9.1652 4.52846
666 1 5.23654 4.02044 5.5535
667 1 4.63288 4.53512 9.25006
668 1 8.83136 5.09981 6.89535
669 1 9.03865 7.75813 5.27819
670 1 7.07115 4.33442 6.0708
671 1 6.42527 4.5968 7.69923
672 1 3.91746 4.95114 3.69642
673 1 8.29535 6.42143 8.05248
674 1 2.95542 6.72643 4.28637
675 1 2.77189 9.22541 1.38505
676 1 9.30853 0.784473 8.68122
677 1 7.50117 1.98217 6.93048
678 1 2.18258 9.16011 6.31554
679 1 5.26381 4.70399 7.43733
680 1 3.8585 6.30001 2.51866
681 1 7.59147 6.46224 0.151567
682 1 2.91049 0.798687 1.4957
683 1 9.31124 1.05575 0.322396
684 1 1.69828 5.68001 7.05709
685 1 3.24708 1.36052 4.27269
686 1 4.86889 5.90626 3.59847
687 1 4.34826 5.88603 1.29422
688 1 0.79945 5.92776 0.278299
689 1 8.56656 6.40172 4.831
690 1 2.10218 2.72626 6.89739
691 1 6.65298 3.84 1.14273
692 1 6.25282 6.9819 2.41327
693 1 6.24952 5.27552 0.275547
694 1 6.16193 7.01269 8.90865
695 1 1.33596 7.32638 1.17737
696 1 9.39228 1.31864 2.08405
697 1 3.87882 1.85718 1.09893
698 1 0.642772 5.23057 1.35255
699 1 2.08213 5.20473 3.58835
700 1 0.387908 2.50692 6.42659
701 1 6.699 6.18593 5.72257
702 1 2.94147 3.29877 7.43159
703 1 6.83135 4.26919 8.45168
704 1 5.14376 4.30151 8.54449
705 1 4.07979 6.22605 9.13427
706 1 5.45925 8.96055 7.21626
707 1 4.38436 4.10391 8.02091
708 1 5.36412 1.45625 9.2872
709 1 6.90795 9.06985 5.36216
710 1 7.49458 9.01197 4.62061
711 1 7.13399 7.7513 9.08996
712 1 0.345021 1.53785 8.8803
713 1 5.31885 0.279204 5.96747
714 1 6.42103 7.57614 4.58963
715 1 8.18128 3.60114 1.42205
716 1 6.47566 2.24065 0.686831
717 1 7.73104 2.73313 4.24109
718 1 8.71394 4.40061 5.26909
719 1 0.968914 2.57918 3.70788
720 1 4.71074 8.79525 1.03074
721 1 3.42294 8.75687 2.77619
722 1 4.25495 5.50141 4.33116
723 1 8.53925 4.95406 8.79059
724 1 1.55425 6.28029 6.44232
725 1 7.48676 2.8433 2.335
726 1 2.88923 1.87014 2.73168
727 1 3.20485 6.86635 0.144335
728 1 8.30562 1.59672 5.48522
729 1 3.82833 4.70754 4.7936
730 1 3.69853 4.36852 8.85501
731 1 8.88627 4.12853 2.57196
732 1 2.283 3.54181 3.86564
733 1 1.11986 3.13978 5.74579
734 1 5.49059 7.92848 5.08292
735 1 0.170146 7.47409 3.6384
736 1 2.70867 0.472583 2.43346
737 1 5.67723 3.3667 8.66954
738 1 2.14386 4.2859 3.52295
739 1 2.09492 6.31819 9.39018
740 1 6.47689 1.69114 2.49303
741 1 1.46132 0.0854785 7.10584
742 1 9.10827 9.08117 3.77219
743 1 4.58604 4.50065 4.10193
744 1 2.21172 7.27879 0.90936
745 1 8.87321 6.91568 1.1993
746 1 4.71003 8.73856 5.84047
747 1 3.96408 8.00473 5.01021
748 1 5.0641 6.35297 0.993882
749 1 0.975091 3.96355 5.82527
750 1 8.57836 7.67974 0.654525
751 1 0.847235 7.01804 4.13123
752 1 3.00684 7.50419 0.824542
753 1 6.27185 5.49487 6.25524
754 1 7.72263 3.14827 4.94813
755 1 2.28773 3.17047 4.65443
756 1 5.99565 6.08235 2.21304
757 1 5.09712 0.907387 5.14669
758 1 5.92189 7.68432 0.298342
759 1 1.81135 0.559534 4.3735
760 1 3.87607 3.04727 9.35577
761 1 5.46762 6.39597 9.2017
762 1 0.867568 6.92991 3.22213
763 1 7.84554 4.35459 0.0962057
764 1 5.84841 1.32418 0.685501
765 1 3.43549 8.72668 7.73567
766 1 1.04254 8.31571 7.24115
767 1 3.24914 2.93706 4.85054
768 1 3.34491 2.01841 5.01418
769 1 2.91913 6.5674 5.05526
770 1 3.56239 7.65835 4.14339
771 1 6.03236 7.5498 6.23687
772 1 0.684072 6.77137 9.16525
773 1 7.9356 9.34124 0.958136
774 1 1.84605 1.14847 1.35371
775 1 6.12175 2.85075 7.50808
776 1 9.10909 9.29476 9.17048
777 1 5.86373 6.05062 0.53821
778 1 7.00284 0.0629232 8.37408
779 1 5.53107 2.45135 6.88235
780 1 7.30345 7.02146 2.65011
781 1 0.0129315 8.01276 0.000935276
782 1 3.84621 2.15138 6.60353
783 1 2.58063 0.544432 3.89605
784 1 8.91066 5.67929 8.16272
785 1 0.898697 0.153862 2.51919
786 1 6.80974 3.44253 3.78273
787 1 8.76154 4.93325 7.79251
788 1 2.43 7.26796 5.54555
789 1 3.21454 6.83467 7.00557
790 1 8.84849 2.75151 6.46537
791 1 0.476832 7.4532 2.61331
792 1 8.24817 3.17339 8.16152
793 1 7.87622 5.88342 5.62072
794 1 6.73605 5.94976 8.92823
795 1 3.01517 5.561 8.04393
796 1 4.03204 1.32178 8.95072
797 1 2.93733 0.216803 6.0056
798 1 0.515217 2.63506 5.16295
799 1 3.25977 1.79055 7.21712
800 1 0.905087 5.01798 7.1585
801 2 7.8785 4.79307 3.64112
802 2 5.06023 7.57695 3.95961
803 2 4.41437 1.70623 4.88711
804 2 4.12587 0.825346 4.82726
805 2 7.80178 7.54389 6.35226
806 2 7.67025 1.74289 2.33374
807 2 8.95357 5.02006 2.47478
808 2 6.56734 3.50693 2.92256
809 2 7.64411 3.56385 0.542102
810 2 3.65775 0.303632 2.97598
811 2 6.85264 5.36315 3.3922
812 2 7.18548 6.05992 7.41624
813 2 2.11616 0.547578 7.4814
814 2 0.526395 4.43098 4.07584
815 2 3.93212 3.50297 3.69268
816 2 3.59707 4.43138 5.57736
817 2 8.07735 1.78491 3.93208
818 2 2.68716 3.21452 1.39957
819 2 1.3716 1.36747 7.21721
820 2 5.29666 0.454621 9.32478
821 2 8.07642 0.248223 4.16995
822 2 6.55292 8.36695 6.19441
823 2 4.20704 0.174389 8.26595
824 2 2.74707 8.95261 2.22962
825 2 2.54972 3.98543 8.60602
826 2 4.70115 6.82371 7.68689
827 2 5.2795 0.633254 2.79928
828 2 5.52682 4.05758 4.55539
829 2 5.40825 5.93921 8.29313
830 2 5.66243 5.44487 5.56717
831 2 8.24201 5.62945 2.05847
832 2 4.96618 2.86066 9.31261
833 2 1.24807 5.75127 7.86361
834 2 1.73951 1.03019 0.028276
835 2 7.69589 4.33283 1.05849
836 2 6.22566 4.29916 9.17221
837 2 4.39796 4.91664 7.3424
838 2 7.06859 8.66403 8.89911
839 2 2.67156 0.740208 8.19371
840 2 3.76274 8.78869 1.27792
841 2 1.04015 5.17035 6.20066
842 2 2.97573 4.19632 7.95148
843 2 0.576349 7.36578 4.97966
844 2 3.4143 5.95315 4.83715
845 2 1.90667 3.01538 7.70628
846 2 1.36429 2.02043 8.73124
847 2 1.92162 7.11559 1.9974
848 2 8.14154 3.57196 2.41551
849 2 1.62305 4.30896 7.38773
850 2 4.47935 1.56874 2.12161
851 2 9.19311 3.45341 8.27842
852 2 2.89584 9.32562 8.10733
853 2 1.91505 7.14069 6.33338
854 2 6.7434 5.96668 0.569576
855 2 3.3159 3.51676 8.77074
856 2 9.20878 2.07868 9.34568
857 2 1.4537 7.18319 8.6701
858 2 7.66968 5.2931 2.7142
859 2 6.07659 0.481124 6.61107
860 2 3.78581 2.79953 7.56846
861 2 4.35096 4.66363 2.56363
862 2 1.02731 4.90229 5.2646
863 2 9.39002 9.1996 7.60257
864 2 0.349063 8.1089 7.72275
865 2 7.03621 3.52103 6.70604
866 2 1.79406 2.51019 5.69019
867 2 4.57176 2.46877 7.2704
868 2 2.42707 4.72592 1.61337
869 2 0.15762 8.36636 0.898402
870 2 6.65201 3.31788 2.08282
871 2 9.29321 2.96738 2.20423
872 2 4.05766 7.02181 4.96448
873 2 9.12771 9.17337 2.51588
874 2 7.08756 1.98547 7.73241
875 2 4.68077 6.3544 4.46861
876 2 0.279639 7.32411 0.887552
877 2 0.133854 2.96306 9.33352
878 2 2.05819 4.63013 9.17781
879 2 6.06299 0.437284 0.34492
880 2 4.1503 6.14023 5.56593
881 2 4.40007 7.00255 2.57461
882 2 5.14309 4.8855 2.48413
883 2 8.73622 8.02102 6.29553
884 2 0.567499 3.3412 0.737074
885 2 5.38505 4.22543 6.51456
886 2 2.55401 5.68027 4.90119
887 2 5.84756 8.16402 3.08898
888 2 6.86888 6.93672 1.75907
889 2 2.16097 7.43123 2.75213
890 2 6.95921 2.4582 3.86322
891 2 1.04436 1.92244 5.48266
892 2 4.77363 0.0791452 4.61478
893 2 5.26584 4.71003 0.459989
894 2 8.46204 7.31839 4.20647
895 2 8.25672 8.39044 5.17797
896 2 6.49561 0.774886 8.87526
897 2 6.06873 9.2207 5.69266
898 2 0.666301 6.25902 1.17405
899 2 2.46748 5.42807 9.19977
900 2 4.75389 2.04615 2.97347
901 2 2.62604 4.36658 5.8142
902 2 6.74189 2.41334 1.66105
903 2 8.67276 8.91939 4.52728
904 2 1.78378 6.91827 3.89142
905 2 6.623 4.08048 4.88755
906 2 1.19487 3.55097 2.35188
907 2 6.43879 4.83701 4.24554
908 2 5.54324 0.207414 4.11049
909 2 3.84879 1.98957 0.1642
910 2 8.20143 2.15716 6.33275
911 2 2.67431 3.66632 2.12251
912 2 5.6632 2.13265 1.46357
913 2 1.0728 0.709246 6.5391
914 2 5.90888 4.15702 0.900021
915 2 8.78624 8.12853 3.72506
916 2 1.53898 4.72807 0.894593
917 2 8.29032 3.39238 6.68494
918 2 6.84461 8.4419 4.54242
919 2 7.85946 9.3617 2.81061
920 2 2.51963 0.715991 0.669427
921 2 4.78603 1.73439 6.53367
922 2 4.83374 5.4734 9.09425
923 2 1.94216 5.12789 5.77239
924 2 6.2103 8.2918 9.1287
925 2 8.91356 2.39806 8.14273
926 2 8.029 1.59134 7.83692
927 2 7.25043 8.31235 6.80716
928 2 7.31426 5.81463 1.28637
929 2 9.03251 0.908899 6.81451
930 2 5.84419 1.30044 3.07425
931 2 0.514195 1.27924 6.11105
932 2 7.13644 5.69511 5.10205
933 2 8.93953 1.14913 3.83499
934 2 0.964688 5.56956 4.41708
935 2 8.06506 5.14926 1.29783
936 2 2.79264 1.58289 0.334897
937 2 1.90043 9.35553 3.60537
938 2 7.14222 4.26615 7.15215
939 2 0.681838 5.25608 8.58393
940 2 3.41293 7.30303 8.74378
941 2 1.3703 7.80471 2.38261
942 2 9.38136 4.61999 8.59157
943 2 5.87471 4.88233 1.79592
944 2 5.78884 5.81018 4.71181
945 2 3.19238 5.92881 0.194362
946 2 8.57683 0.843693 1.06302
947 2 6.7371 3.05131 0.530625
948 2 0.404111 6.2578 3.94446
949 2 3.71558 6.6533 0.810312
950 2 3.84541 7.50407 0.0858116
951 2 6.91969 1.66657 1.3714
952 2 6.8816 0.0754635 2.24825
953 2 4.15804 1.47127 7.22659
954 2 3.84961 4.73784 6.50699
955 2 3.84222 5.38408 2.76606
956 2 3.70403 7.4887 7.47286
957 2 5.85007 7.31264 3.27782
958 2 6.27296 7.13845 7.20035
959 2 8.46472 1.76373 2.96204
960 2 8.22298 8.75921 2.10292
961 2 8.82671 3.20754 7.47951
962 2 8.5693 7.09633 7.27697
963 2 4.7795 5.05083 3.41522
964 2 3.06207 2.35227 0.739716
965 2 2.67903 3.64159 6.49307
966 2 2.12312 0.141812 9.11228
967 2 8.42429 2.53794 4.7396
968 2 0.908437 1.48003 3.65706
969 2 5.3749 7.28725 7.09811
970 2 4.65809 3.18781 1.66637
971 2 3.72818 5.3093 9.01183
972 2 1.01401 8.65658 2.85476
973 2 3.37241 0.466097 8.60452
974 2 3.67555 5.40525 5.64283
975 2 5.5061 6.57636 3.85051
976 2 4.45354 6.75338 3.53737
977 2 4.80734 7.35049 4.83874
978 2 6.87281 7.89986 1.85249
979 2 3.22674 5.02061 0.226875
980 2 0.0587095 6.87754 7.46824
981 2 4.03728 8.04157 8.1276
982 2 4.29092 5.99891 8.28561
983 2 5.85162 3.62021 1.68568
984 2 3.26908 8.664 6.72617
985 2 0.961254 4.19529 1.38367
986 2 1.35333 7.53758 5.7044
987 2 8.04665 5.16212 4.58278
988 2 2.21059 3.48323 2.87055
989 2 8.71525 1.62693 8.75629
990 2 3.48522 2.50727 5.66839
991 2 4.87011 0.934499 4.22492
992 2 5.32033 7.26307 1.8448
993 2 0.0694559 2.37751 4.41628
994 2 3.46382 5.41533 7.02749
995 2 1.98934 1.85029 5.0451
996 2 1.96909 0.657476 6.32709
997 2 7.40623 1.46937 8.60566
998 2 9.18131 2.36035 7.2864