#bin. KALJ data file T=0.5

1000 atoms
2 atom types

0 9.4 xlo xhi
0 9.4 ylo yhi
0 9.4 zlo zhi

Masses

1 1.0
2 1.0

Atoms

1 1 3.95413 4.25966 0.340292
2 1 2.10078 4.86923 0.522004
3 1 1.45839 1.46253 6.24583
4 1 9.25293 4.48929 3.94625
5 1 0.756839 1.15281 3.29975
6 1 8.48734 5.21101 4.24123
7 1 5.13842 4.30948 4.96268
8 1 0.112966 1.7514 2.25133
9 1 6.11001 0.76307 2.16174
10 1 0.541571 7.24121 7.39439
11 1 7.11656 5.10874 3.22206
12 1 6.0237 5.24628 8.99766
13 1 2.77868 7.95801 1.86262
14 1 3.89777 7.87382 6.00639
15 1 3.83143 9.13583 8.06677
16 1 8.5296 2.73637 3.53634
17 1 6.68968 3.29174 9.19493
18 1 9.32203 6.41969 2.66984
19 1 8.84537 4.50614 2.14346
20 1 2.68719 1.87115 7.32494
21 1 0.349649 1.08218 0.840036
22 1 8.70034 0.689365 7.03706
23 1 3.53068 5.17908 4.83596
24 1 1.94967 0.769197 2.02418
25 1 4.78673 7.47133 1.76732
26 1 5.91032 8.0914 8.23945
27 1 9.18737 3.36216 8.20309
28 1 6.82694 1.68604 2.22265
29 1 8.91901 7.35481 0.0599341
30 1 1.89423 8.42128 1.33863
31 1 4.82193 1.67916 3.59254
32 1 7.58356 6.12185 1.16388
33 1 2.39457 8.38661 4.4688
34 1 6.02762 0.203047 3.15108
35 1 4.54367 0.17953 6.76107
36 1 0.451908 1.95927 3.16801
37 1 4.95683 6.36487 4.30803
38 1 1.70206 0.620022 3.61115
39 1 9.35164 3.26972 6.34819
40 1 1.84463 2.34014 3.00489
41 1 2.53874 7.78893 1.01227
42 1 9.29436 2.57301 4.17227
43 1 1.63941 8.17453 3.02978
44 1 5.10789 4.75618 7.04254
45 1 8.23354 8.8831 6.12358
46 1 0.0417122 7.65446 1.61894
47 1 5.75894 7.86865 2.88934
48 1 8.20981 2.8713 2.6229
49 1 6.01166 3.79526 8.87754
50 1 3.83847 5.06769 0.100081
51 1 4.9194 5.78714 6.08977
52 1 2.43105 5.88356 4.59843
53 1 9.14851 3.36146 1.93612
54 1 6.45989 7.55037 1.34615
55 1 7.03632 4.29046 2.66089
56 1 7.8745 5.75889 7.58773
57 1 0.789093 5.33962 5.41633
58 1 1.14497 4.5027 7.73575
59 1 5.88824 0.775128 0.970077
60 1 2.20656 5.86109 7.95057
61 1 0.133087 6.73426 0.188526
62 1 2.1884 8.68915 3.61326
63 1 7.7849 9.29568 3.42727
64 1 4.3544 8.72819 4.08969
65 1 0.92442 2.94548 3.15355
66 1 6.14323 5.74049 0.562287
67 1 7.66415 4.89409 7.23059
68 1 5.81112 4.17585 4.23596
69 1 8.57751 6.23328 7.37649
70 1 6.75964 6.46016 2.41637
71 1 7.76554 0.332024 6.67911
72 1 9.42596 5.22596 6.18284
73 1 7.87188 1.0689 4.89047
74 1 2.67908 5.61136 0.255963
75 1 4.61609 8.13472 0.760621
76 1 3.01154 2.68973 9.39826
77 1 7.43814 0.977642 5.92742
78 1 6.82057 2.7247 8.15492
79 1 2.78698 5.24083 8.41505
80 1 3.6107 6.30864 5.12738
81 1 9.23582 0.922431 5.60262
82 1 8.23687 6.24433 8.49544
83 1 2.8842 2.3847 6.03431
84 1 7.31682 3.40761 8.45653
85 1 8.21102 5.10101 5.18465
86 1 3.08516 4.68142 0.565836
87 1 0.214529 4.97901 9.27075
88 1 4.25066 4.25219 6.53793
89 1 0.271294 3.47684 9.21374
90 1 9.25474 0.767674 8.31494
91 1 0.00658286 7.40321 2.5632
92 1 0.888082 6.7031 8.99931
93 1 5.92464 8.67738 2.16601
94 1 9.14765 1.02864 2.95485
95 1 9.0807 3.66403 4.52352
96 1 4.47742 3.6357 5.05851
97 1 2.5064 6.38509 1.04025
98 1 3.53051 0.126902 5.87409
99 1 2.09254 1.24122 2.83168
100 1 0.106296 9.00862 4.34192
101 1 6.3371 2.38526 8.93281
102 1 0.701348 3.43228 0.877326
103 1 3.09953 6.7057 8.02842
104 1 1.70952 0.68937 0.0425038
105 1 3.46746 5.86598 8.58779
106 1 6.13062 8.36594 4.52419
107 1 7.46989 8.79578 1.90517
108 1 6.56183 4.35008 3.7609
109 1 6.32097 0.6379 5.33256
110 1 3.34586 7.51706 7.66795
111 1 1.28238 3.72162 7.0235
112 1 4.82396 4.99908 2.95685
113 1 7.30222 4.57234 8.17617
114 1 1.23226 8.27936 5.91784
115 1 5.70199 2.37074 1.82282
116 1 1.07137 1.10931 8.81593
117 1 3.79312 2.69874 1.76538
118 1 7.91402 8.46214 4.92245
119 1 8.01937 4.4594 6.18416
120 1 0.878861 2.0271 7.94168
121 1 1.87545 4.48274 6.77683
122 1 7.31762 8.65358 7.7106
123 1 4.63343 1.22955 6.642
124 1 6.33295 9.08423 0.209499
125 1 5.83127 8.05209 0.335083
126 1 8.81405 9.04279 6.72289
127 1 5.37458 5.76128 0.0533642
128 1 1.46362 1.10593 5.18676
129 1 4.37548 7.49865 3.17193
130 1 8.65638 2.06235 9.28648
131 1 3.66944 5.92322 5.95853
132 1 6.50127 9.33124 7.09902
133 1 8.68371 6.72431 2.04423
134 1 5.37372 2.8504 4.96822
135 1 8.76125 6.93684 4.70211
136 1 7.55203 2.74922 6.28911
137 1 0.927944 8.58769 8.92901
138 1 6.44229 7.5627 4.59726
139 1 5.35676 1.39118 0.482659
140 1 6.61773 2.35172 4.55845
141 1 8.49703 6.50221 0.0280937
142 1 9.2161 5.51742 5.39354
143 1 7.11703 0.834794 2.53545
144 1 2.39749 7.13853 1.85052
145 1 8.12448 5.29266 6.32475
146 1 0.416817 2.64739 5.9656
147 1 2.02972 4.33676 4.99689
148 1 4.49977 8.72981 5.12329
149 1 7.22286 1.28098 0.470665
150 1 3.33421 6.57647 1.74945
151 1 8.08031 7.56709 4.56929
152 1 1.56248 2.68595 4.82466
153 1 1.00455 7.36526 0.144854
154 1 0.43591 1.5254 4.01968
155 1 8.78923 0.929013 4.81879
156 1 0.360122 4.25548 1.36476
157 1 3.52281 9.15219 7.18133
158 1 4.38071 0.632237 5.87355
159 1 3.83556 6.86541 8.69477
160 1 6.92024 6.16579 6.29877
161 1 8.12644 8.49511 3.49971
162 1 0.206457 5.83239 1.51085
163 1 4.78973 3.58386 2.93343
164 1 0.845146 2.60972 1.50474
165 1 9.23277 5.34528 3.76533
166 1 5.49461 1.20334 8.14206
167 1 3.91555 2.05052 8.68376
168 1 0.771074 3.774 5.11792
169 1 7.47614 7.74531 7.64847
170 1 0.623537 0.199747 5.47333
171 1 6.77308 2.15597 6.26272
172 1 9.14396 4.11284 8.62041
173 1 7.72722 6.50716 3.11451
174 1 2.468 6.13042 2.26282
175 1 2.09023 6.87918 4.28219
176 1 8.76575 6.70931 1.07158
177 1 4.86638 -0.00628422 4.4689
178 1 8.35741 7.31659 7.17284
179 1 0.628839 5.87291 8.5667
180 1 4.94578 2.66522 3.63687
181 1 1.28254 2.08125 5.53924
182 1 0.745122 6.03848 0.638127
183 1 8.5132 2.77319 8.33916
184 1 4.76316 8.5153 6.82465
185 1 5.7066 3.62844 5.4192
186 1 6.10419 5.56454 1.80945
187 1 5.53314 5.79635 8.44285
188 1 2.31783 6.70036 7.66096
189 1 8.03428 3.46958 3.37003
190 1 9.33932 1.79797 5.62488
191 1 4.8559 2.05356 6.77011
192 1 2.34625 4.03655 0.669138
193 1 2.51759 9.38676 5.9392
194 1 1.62221 4.25464 2.11106
195 1 7.94157 2.33264 0.543547
196 1 5.71183 7.31903 5.80598
197 1 0.161025 5.04094 7.29919
198 1 4.95917 3.67446 6.93646
199 1 7.28867 2.36851 2.45442
200 1 5.61039 3.26283 6.3576
201 1 2.80777 8.85192 2.83754
202 1 3.57986 8.42853 8.74538
203 1 1.33618 0.598945 6.41429
204 1 2.80873 4.60179 6.59685
205 1 8.70898 8.11439 8.67052
206 1 1.99594 1.71971 2.04243
207 1 3.24943 6.95539 7.08182
208 1 1.46465 9.23289 8.18486
209 1 4.72666 4.4035 7.76267
210 1 6.8922 1.79008 1.11568
211 1 5.89775 4.58703 5.131
212 1 7.82751 7.2981 3.44206
213 1 5.28773 3.1735 7.60636
214 1 2.49853 6.33843 8.83214
215 1 1.26415 3.30322 8.9823
216 1 0.763796 7.74074 3.0946
217 1 3.69718 3.65852 1.78224
218 1 3.33642 4.40816 9.0316
219 1 1.69961 3.55077 4.60949
220 1 6.08197 0.503522 0.0058457
221 1 9.23279 0.634628 4.11787
222 1 1.05958 0.346517 1.52483
223 1 9.17567 2.77482 2.84657
224 1 4.8737 3.32187 1.40443
225 1 0.677485 9.1315 7.79002
226 1 3.0991 7.18194 0.91733
227 1 5.42114 6.61603 1.59128
228 1 2.07064 6.09579 6.96859
229 1 6.88503 2.53473 0.315531
230 1 1.11819 9.18341 4.45333
231 1 3.69789 0.930924 1.56865
232 1 0.195999 7.14714 4.35827
233 1 0.00403805 8.27176 2.19451
234 1 6.80637 6.10059 4.55322
235 1 3.1067 7.74462 5.48292
236 1 6.53391 8.74377 2.97031
237 1 1.94246 5.4003 9.07824
238 1 1.31927 0.409503 2.70859
239 1 7.69006 8.13651 9.39466
240 1 6.51661 6.2397 8.85882
241 1 9.05195 6.78281 7.75793
242 1 5.54633 3.36051 2.22616
243 1 7.50165 4.71701 4.20304
244 1 1.98815 0.3516 1.15753
245 1 0.319976 9.13533 6.99875
246 1 3.85424 8.59451 0.559341
247 1 1.72707 7.25664 0.971893
248 1 5.04164 8.8966 1.80777
249 1 7.4906 8.84654 4.16058
250 1 8.01509 8.55512 0.922384
251 1 1.87757 4.23221 3.0729
252 1 2.25006 1.77721 5.37988
253 1 8.653 6.39501 3.57984
254 1 0.365601 8.88028 1.64843
255 1 1.23452 3.43609 2.3884
256 1 8.90865 6.01007 6.57062
257 1 6.79051 3.37133 3.74199
258 1 3.0988 7.35777 3.56905
259 1 7.09233 0.695401 8.26946
260 1 1.88903 2.78435 3.94055
261 1 7.98919 6.27069 6.67991
262 1 8.31864 3.03938 1.18144
263 1 5.11342 7.2104 2.70065
264 1 2.00462 2.69505 5.68365
265 1 9.08456 4.89164 1.42379
266 1 2.83681 2.76956 7.63386
267 1 3.70807 7.45599 1.65075
268 1 6.42847 2.73494 2.16426
269 1 5.85687 6.82219 8.27269
270 1 3.47376 6.55484 3.35784
271 1 8.83481 8.26811 0.419318
272 1 7.14233 0.0807066 2.89708
273 1 8.5284 3.76936 0.316651
274 1 1.93951 9.11429 2.69153
275 1 1.44804 7.0159 6.94932
276 1 1.27508 7.11036 1.68775
277 1 2.30471 3.66281 1.67317
278 1 8.20184 7.42697 8.96507
279 1 5.62891 7.64051 4.90667
280 1 7.74906 1.34573 2.1326
281 1 5.41114 7.46463 1.02043
282 1 1.2673 3.56148 7.89154
283 1 3.21129 5.57264 0.975848
284 1 4.13741 6.6007 4.41634
285 1 2.97181 4.58499 3.39876
286 1 3.07489 3.7047 7.43179
287 1 0.460608 8.41713 3.70093
288 1 9.20402 7.74946 7.01106
289 1 5.21921 2.42985 5.93727
290 1 7.0773 0.612127 3.52956
291 1 9.1996 0.187534 4.94321
292 1 3.85466 0.732324 6.62474
293 1 4.40031 6.67613 3.50657
294 1 1.25125 8.17836 3.96154
295 1 2.27763 6.60052 3.09478
296 1 4.97089 3.45762 9.20723
297 1 6.7177 8.23662 0.675127
298 1 3.87959 7.35198 3.96889
299 1 5.78555 8.48224 6.81113
300 1 8.47145 1.9015 8.07924
301 1 7.59636 8.84237 6.86826
302 1 9.28675 3.5645 1.01937
303 1 2.71633 2.85195 4.74123
304 1 7.00407 0.863766 4.54448
305 1 4.71577 2.75981 8.5749
306 1 6.63046 4.76009 2.08785
307 1 3.34946 3.76652 6.48062
308 1 8.13745 5.99234 5.71828
309 1 5.78373 1.34709 9.04327
310 1 6.2299 6.74952 1.08931
311 1 9.0523 0.0810033 7.65921
312 1 4.48146 5.88029 0.903877
313 1 0.659699 8.74091 2.77609
314 1 5.26803 8.8522 0.767892
315 1 2.36696 7.83862 7.87395
316 1 6.25966 4.62607 6.08905
317 1 6.31527 5.0458 4.32626
318 1 0.040633 6.96998 3.44417
319 1 8.7934 1.64384 7.2128
320 1 3.99888 3.85986 5.7903
321 1 6.74765 7.25352 0.078249
322 1 7.55835 3.79237 6.05646
323 1 5.27667 5.63237 3.58301
324 1 3.85602 4.98728 8.58526
325 1 0.121116 1.31474 6.49428
326 1 2.16221 9.38729 4.50893
327 1 9.04272 3.45142 7.22305
328 1 8.67708 1.96205 0.882008
329 1 2.32842 2.54687 6.89423
330 1 6.62886 9.03094 3.93564
331 1 5.83527 9.32403 4.04724
332 1 8.69548 8.73927 1.93493
333 1 3.65612 3.00569 6.01858
334 1 0.495793 4.42605 2.27597
335 1 6.35356 1.09499 8.13163
336 1 3.59975 5.03264 2.90755
337 1 7.90844 1.68929 1.18697
338 1 6.09069 6.66132 0.152595
339 1 3.8551 5.81544 1.53294
340 1 7.09662 7.42887 2.0077
341 1 6.30749 6.82019 6.24301
342 1 0.47312 6.60109 8.08565
343 1 8.49982 1.41916 3.87663
344 1 4.82923 4.87875 6.19933
345 1 4.39947 8.51955 8.54521
346 1 6.4581 8.0252 3.613
347 1 3.53323 3.27963 5.08578
348 1 8.15695 2.75039 7.33261
349 1 0.922599 6.09629 2.05394
350 1 4.45188 2.97039 2.26464
351 1 9.14715 5.80085 0.0945005
352 1 4.87816 7.2417 4.04422
353 1 8.80077 1.26013 8.96025
354 1 6.94699 2.7635 5.41987
355 1 7.75854 4.36155 0.668688
356 1 4.46777 0.713097 3.15371
357 1 3.54288 9.31627 3.15079
358 1 9.14096 9.29533 2.41474
359 1 3.67728 1.11202 0.642096
360 1 8.0471 5.24727 1.0145
361 1 0.872482 8.00847 2.14313
362 1 8.19675 7.48673 8.16007
363 1 0.219026 8.01301 9.25659
364 1 8.30908 0.13765 1.41463
365 1 7.86104 1.39355 6.65893
366 1 6.61016 3.80945 5.6072
367 1 2.77721 2.25919 8.42986
368 1 0.400574 8.62782 5.11001
369 1 4.82489 6.30685 2.74878
370 1 4.81214 7.67651 6.32143
371 1 0.479889 8.24106 7.40064
372 1 6.06603 7.62724 8.98082
373 1 4.21287 9.1735 2.4925
374 1 5.70068 5.30595 6.51359
375 1 0.498084 3.19711 7.72449
376 1 9.08184 8.61624 7.54093
377 1 3.75854 2.35823 0.506012
378 1 6.68309 3.47155 4.70117
379 1 7.17953 7.02683 4.54868
380 1 6.45704 6.89 5.22314
381 1 0.920595 4.23285 3.29592
382 1 2.09631 7.27805 9.32986
383 1 8.41451 0.645728 2.37626
384 1 6.17612 5.67639 5.87721
385 1 4.55028 5.8215 7.18169
386 1 5.34104 4.31036 0.014941
387 1 1.43755 7.08756 3.63496
388 1 2.67653 5.07363 7.39882
389 1 2.37835 1.40589 9.04597
390 1 5.59723 8.72925 3.13537
391 1 7.74422 0.0305446 8.56458
392 1 0.98465 7.60717 8.5379
393 1 2.73508 9.01377 1.13682
394 1 5.01068 0.447648 8.0232
395 1 2.25581 7.53033 3.56961
396 1 0.0565905 0.507438 0.0954
397 1 4.82712 1.01603 5.17627
398 1 3.00383 8.29198 3.45845
399 1 8.87418 0.781065 1.04851
400 1 3.52057 6.9917 5.8669
401 1 3.21133 0.568898 4.21301
402 1 7.27543 7.43355 5.52854
403 1 6.90479 1.03821 1.57177
404 1 3.60635 8.43273 2.52748
405 1 2.77448 3.21502 2.4875
406 1 8.59742 2.08126 2.36674
407 1 7.44248 8.15814 6.01881
408 1 2.37859 3.65727 6.59845
409 1 8.17374 7.68889 5.6948
410 1 6.82429 4.07334 0.943634
411 1 2.63893 4.47124 5.68433
412 1 0.60614 4.33416 0.404926
413 1 0.222671 0.330016 1.28891
414 1 5.68634 3.9939 7.26145
415 1 6.32756 5.82573 6.98739
416 1 6.38751 0.510471 3.99733
417 1 2.78026 3.26842 5.64852
418 1 5.44916 5.53406 1.1296
419 1 4.58104 1.81222 5.62401
420 1 1.24177 5.6996 4.67655
421 1 3.55259 7.32187 4.92934
422 1 2.81156 7.53379 4.46439
423 1 5.06552 8.44332 5.93228
424 1 4.31855 5.71083 3.25253
425 1 8.05732 4.93948 9.18332
426 1 2.87031 0.510172 1.56862
427 1 3.67616 9.28464 8.992
428 1 2.04105 0.82906 5.98221
429 1 2.95654 5.52792 6.55104
430 1 1.39461 6.25602 7.49527
431 1 8.03894 0.260821 0.53902
432 1 7.83238 1.3837 8.7091
433 1 9.17523 2.60009 7.66356
434 1 0.937143 5.93486 3.11135
435 1 1.1228 7.93612 1.18599
436 1 0.706196 0.499294 4.0465
437 1 1.61033 5.64521 1.04591
438 1 0.2672 1.2314 9.08973
439 1 5.5643 6.50106 3.26701
440 1 1.63953 5.29152 7.1313
441 1 3.03673 5.8918 7.3912
442 1 9.0887 7.02057 6.49442
443 1 3.3158 1.07444 7.38268
444 1 3.82944 1.39549 5.95491
445 1 1.20134 6.11324 5.78809
446 1 8.30785 4.0545 5.35424
447 1 0.359198 6.04168 6.08467
448 1 1.3708 1.3034 1.31393
449 1 1.18182 8.7549 6.95993
450 1 6.76072 7.20587 7.76792
451 1 0.248083 6.31979 7.24047
452 1 4.86853 8.06448 3.77877
453 1 5.02316 0.602396 3.77482
454 1 6.4496 3.49573 2.96441
455 1 0.623609 3.79062 6.27358
456 1 2.56595 9.1433 8.4043
457 1 8.89165 8.801 5.41433
458 1 5.69947 6.56628 4.99005
459 1 8.31134 6.79295 5.95375
460 1 7.71106 0.869412 1.14927
461 1 0.327259 5.12669 0.806381
462 1 4.7007 9.10078 7.63456
463 1 4.46019 2.69876 6.33385
464 1 8.80259 8.90673 3.12433
465 1 5.45932 6.18335 7.14466
466 1 4.47969 0.721634 1.14598
467 1 5.52136 0.581721 5.81936
468 1 8.1739 3.55103 1.88647
469 1 4.23265 6.79123 2.18105
470 1 4.08012 7.83365 9.31088
471 1 5.11758 2.3662 1.18883
472 1 9.0 5.51932 7.86533
473 1 4.1353 2.81863 9.24517
474 1 7.24636 3.2087 2.21052
475 1 0.141503 3.25103 3.64781
476 1 4.20975 8.98528 6.00029
477 1 2.63809 9.26508 7.23528
478 1 1.72763 5.93063 3.93244
479 1 8.13148 1.19492 0.276487
480 1 2.01981 2.82251 8.78102
481 1 0.321806 1.90402 1.3771
482 1 6.00645 5.83514 4.13534
483 1 7.87353 8.51526 8.5537
484 1 0.21292 8.73987 6.03322
485 1 2.17057 2.15606 4.52071
486 1 1.73087 0.20977 5.41743
487 1 8.7797 2.61373 5.63622
488 1 4.34027 2.95788 4.37245
489 1 3.58582 6.12519 0.0511079
490 1 8.22748 8.84603 0.0324038
491 1 3.69051 4.00845 8.12998
492 1 3.86588 4.0271 3.40165
493 1 0.647589 3.51461 1.7294
494 1 3.75041 3.38013 2.76974
495 1 5.84719 6.83232 4.16172
496 1 3.95472 1.57518 4.86177
497 1 5.93359 2.99495 4.39075
498 1 8.23619 8.28671 7.66172
499 1 2.52531 0.996022 3.75629
500 1 1.21266 4.9824 0.135511
501 1 6.58252 -0.0114457 8.03566
502 1 8.88357 2.57841 6.81277
503 1 8.0875 9.12438 2.57155
504 1 7.15687 9.07568 1.13887
505 1 3.70948 2.30215 5.42582
506 1 0.871631 3.08973 4.4112
507 1 1.35231 8.92655 1.79192
508 1 1.84756 2.01868 7.64228
509 1 0.732359 6.33818 4.00656
510 1 2.76086 3.51159 3.38626
511 1 2.8033 3.43869 8.30578
512 1 8.7891 5.41228 8.84222
513 1 4.10328 0.360252 3.823
514 1 3.20396 8.33107 1.12897
515 1 5.32765 5.11763 4.44755
516 1 8.89298 6.0596 4.33175
517 1 0.0655483 7.48471 5.81117
518 1 2.46932 8.02425 2.73667
519 1 4.27958 4.14046 1.10723
520 1 1.01694 5.81848 6.74065
521 1 1.99067 8.01846 5.62348
522 1 0.847968 2.1079 9.15339
523 1 4.2278 5.19948 2.23356
524 1 1.28794 1.15007 7.92001
525 1 7.46743 5.66573 4.01233
526 1 3.05546 2.22984 2.25329
527 1 3.42282 5.82043 4.08098
528 1 5.86728 9.29197 5.23631
529 1 2.72462 6.68584 0.158515
530 1 3.39205 4.95526 1.88372
531 1 4.68967 4.59768 8.78487
532 1 4.01363 8.44743 7.548
533 1 7.40175 8.2553 3.07352
534 1 8.65712 3.72744 2.77285
535 1 4.02149 9.31747 1.29734
536 1 2.63467 8.35348 8.84625
537 1 1.28583 5.1127 2.52608
538 1 0.105236 1.7581 8.33223
539 1 6.61698 5.09471 7.93544
540 1 6.90802 4.39916 4.84148
541 1 1.57521 6.42005 2.61954
542 1 3.89352 5.93146 7.78745
543 1 0.651836 4.08167 4.1238
544 1 5.35766 0.861804 2.95814
545 1 4.85517 2.35005 7.67278
546 1 7.27527 5.25309 1.70179
547 1 1.53544 4.51842 5.91909
548 1 1.85151 3.8529 8.56707
549 1 6.09491 1.95932 3.66823
550 1 5.3182 8.56689 4.73972
551 1 0.253508 2.88053 4.97382
552 1 3.64956 7.48148 2.62121
553 1 5.08131 0.739687 1.70668
554 1 3.55268 7.11813 0.124225
555 1 1.58573 1.30327 4.39256
556 1 5.90261 0.358339 6.5873
557 1 7.8903 5.78975 0.209294
558 1 7.48305 7.3635 0.535265
559 1 2.99711 5.40878 5.59148
560 1 3.39877 1.89839 7.79216
561 1 7.87528 2.69646 8.98614
562 1 5.49565 4.27088 6.2171
563 1 4.38083 6.90742 1.00426
564 1 1.97802 9.29415 6.70674
565 1 2.86224 4.12323 2.36956
566 1 6.19692 5.50463 3.10743
567 1 6.70816 1.0771 9.01875
568 1 8.21039 1.17024 3.08922
569 1 6.12716 7.79641 7.45875
570 1 3.21014 9.03242 4.03943
571 1 5.36585 2.60681 2.79946
572 1 2.79974 2.02116 0.551779
573 1 3.86242 8.29971 3.42736
574 1 3.08234 1.55972 2.86584
575 1 1.64101 4.33828 3.90452
576 1 5.82518 0.633158 7.53896
577 1 9.15635 3.70145 5.45195
578 1 7.30609 5.32734 4.95799
579 1 5.91305 0.386132 8.53849
580 1 6.88714 5.4557 9.14288
581 1 7.69103 6.79501 7.82664
582 1 6.96508 6.31995 0.485037
583 1 8.6196 4.78469 0.439426
584 1 3.03923 0.53978 9.13741
585 1 2.8621 5.76127 3.291
586 1 0.424945 0.462981 6.39881
587 1 5.0704 0.730609 8.90843
588 1 7.41482 7.26925 8.60222
589 1 1.02167 7.8115 6.89122
590 1 1.75744 6.43181 0.269904
591 1 7.36879 8.03973 4.06475
592 1 2.81566 7.90625 7.09937
593 1 3.64368 2.85449 8.4714
594 1 4.33946 1.44191 8.02742
595 1 1.64021 1.97686 8.53517
596 1 0.457079 8.92962 0.637926
597 1 4.45209 0.142495 8.55674
598 1 3.64736 5.10614 7.71082
599 1 4.80859 8.06216 2.70892
600 1 1.90263 5.6149 3.02658
601 1 3.41498 8.4903 6.64108
602 1 6.98953 7.14258 2.89255
603 1 5.6315 6.33208 5.94689
604 1 3.34316 2.13277 4.61345
605 1 6.20823 3.24433 7.10704
606 1 8.02032 8.00379 6.8087
607 1 3.56916 6.20997 6.7956
608 1 6.84576 7.36311 6.86358
609 1 9.0823 0.0759744 5.88115
610 1 7.09892 3.18272 7.33103
611 1 7.09973 2.6147 1.32987
612 1 4.22534 3.7752 8.80438
613 1 3.54053 6.45072 0.836509
614 1 0.247144 4.11998 7.80013
615 1 6.46863 3.83456 6.53157
616 1 7.55319 1.91336 5.57604
617 1 7.01677 4.21315 7.30458
618 1 3.51233 4.4536 7.16934
619 1 7.98128 4.4788 2.70076
620 1 1.84595 7.82146 2.06334
621 1 0.244654 -0.00618249 3.36512
622 1 4.1956 0.844842 9.10899
623 1 5.24216 6.51001 0.601553
624 1 1.81692 9.08388 9.16303
625 1 4.42042 1.62925 1.40888
626 1 5.13593 6.50638 8.85616
627 1 0.609206 6.76003 6.54991
628 1 6.82328 6.01461 7.89602
629 1 5.34477 9.33352 7.14822
630 1 3.60371 5.97314 2.54808
631 1 6.94109 1.73623 3.928
632 1 8.52687 2.84769 0.150797
633 1 0.238953 2.1243 6.85067
634 1 1.80781 7.7251 4.61959
635 1 5.14929 0.587667 0.520293
636 1 1.83622 6.32928 1.64984
637 1 7.50981 3.38682 0.222328
638 1 4.69147 6.7957 7.03884
639 1 7.68398 1.78279 4.36343
640 1 6.38099 1.67936 0.369674
641 1 7.92701 7.2377 2.33073
642 1 2.12688 5.90749 5.79779
643 1 4.76558 4.8414 0.454048
644 1 7.66448 5.54419 8.57753
645 1 2.80099 6.4131 6.31855
646 1 0.214993 5.55113 4.57748
647 1 4.78396 6.67298 5.28001
648 1 4.72246 2.38038 0.281971
649 1 2.35799 0.164375 0.30413
650 1 3.81242 0.676107 5.22927
651 1 4.18089 4.00731 4.24712
652 1 0.211519 3.50853 2.79711
653 1 4.41395 7.65094 7.27693
654 1 6.62863 4.56941 8.79332
655 1 5.20648 9.27712 6.24458
656 1 4.72409 4.82039 1.39072
657 1 2.98186 1.23099 4.79835
658 1 0.930234 1.45411 7.08758
659 1 6.68924 4.89229 0.667025
660 1 6.55443 1.8844 7.58016
661 1 6.28327 1.38848 4.56673
662 1 6.80178 3.87831 1.87993
663 1 1.98615 3.70742 5.78149
664 1 7.15486 6.41247 7.0943
665 1 5.68397 7.83347 1.95907
666 1 6.81376 8.19302 8.19664
667 1 4.39532 5.71091 9.33796
668 1 6.9261 0.169205 9.11434
669 1 1.898 8.2843 6.49664
670 1 0.650415 2.12097 4.76189
671 1 2.79077 2.57733 3.85937
672 1 6.25756 4.20301 0.208148
673 1 7.75304 6.98518 1.35181
674 1 5.41839 9.33895 2.52443
675 1 7.64963 4.3964 1.81789
676 1 5.84018 1.72948 7.08834
677 1 4.92217 3.25972 5.7685
678 1 8.56856 7.24531 2.89679
679 1 8.40123 1.8079 5.30133
680 1 4.39806 3.43067 7.83647
681 1 3.43248 4.46806 4.17536
682 1 3.00681 7.89695 0.212956
683 1 4.00976 1.75243 7.07146
684 1 8.96279 1.86812 3.15563
685 1 1.93452 5.2526 5.19049
686 1 5.6739 6.26438 2.37082
687 1 7.79088 6.25899 2.13894
688 1 0.472881 5.1822 3.17115
689 1 1.07153 7.05465 4.59866
690 1 9.23959 6.23774 8.58764
691 1 1.47255 0.423477 7.56466
692 1 6.08426 9.19735 1.13165
693 1 8.5711 0.384314 3.35636
694 1 8.22387 3.5063 8.71167
695 1 7.86166 2.11688 3.36814
696 1 8.9482 1.48865 1.55045
697 1 7.24273 0.329217 7.36502
698 1 8.56194 3.73132 6.23568
699 1 3.92751 6.85112 7.59464
700 1 1.31257 2.85517 7.29956
701 1 2.98348 6.62439 4.2587
702 1 8.45466 3.25119 5.0302
703 1 1.07149 2.81028 8.23781
704 1 4.15495 4.57757 5.1457
705 1 8.83631 4.72568 5.7081
706 1 7.32597 1.47095 3.13323
707 1 3.45961 1.90686 1.24669
708 1 2.76011 6.29533 5.35065
709 1 1.67806 3.17491 6.40644
710 1 -0.0130007 2.81643 0.443922
711 1 1.17314 3.10136 5.4843
712 1 2.67204 0.589425 7.87869
713 1 0.989647 2.30502 3.8755
714 1 3.4221 9.34707 0.565362
715 1 0.379422 0.745725 7.23803
716 1 6.17277 2.34652 1.10128
717 1 0.548181 4.52512 5.68889
718 1 1.65226 6.51435 5.11234
719 1 4.46603 1.44573 0.461592
720 1 5.75818 4.91276 0.537862
721 1 1.19871 5.89073 9.24795
722 1 2.25704 7.13838 6.90676
723 1 2.70521 5.20399 2.68342
724 1 4.90872 7.17172 8.01033
725 1 1.54516 1.60495 3.54319
726 1 4.6693 9.16865 3.34687
727 1 8.38717 0.827543 8.20113
728 1 6.83128 6.27673 3.43586
729 1 3.48553 0.818976 3.34723
730 1 4.76923 4.22841 3.46918
731 1 1.93332 1.26927 7.01869
732 1 7.82723 0.613498 4.07557
733 1 6.65092 7.94744 2.50473
734 1 6.73909 7.16623 3.70974
735 1 8.9253 2.49317 1.57175
736 1 8.98098 7.78263 7.86671
737 1 1.06643 9.16429 6.11146
738 1 8.64216 7.38382 3.91076
739 1 8.54683 4.22936 1.27346
740 1 5.53549 0.648887 4.64926
741 1 6.24189 6.73083 7.26532
742 1 7.44535 4.17846 9.15479
743 1 6.24458 9.19067 6.0301
744 1 4.00762 2.59792 7.66055
745 1 6.60983 7.91416 6.12045
746 1 5.86114 8.40597 1.31407
747 1 9.15464 6.59448 5.57668
748 1 1.17871 5.19375 8.43061
749 1 1.21102 2.25304 6.45366
750 1 3.48876 4.71935 5.8816
751 1 0.450411 6.37833 5.03815
752 1 6.90379 1.83742 8.32385
753 1 9.19177 7.84632 4.85017
754 1 5.82713 4.71378 8.2435
755 1 6.57516 3.89121 8.10377
756 1 8.37997 2.08574 6.19428
757 1 7.69414 0.624949 9.13195
758 1 6.5315 1.04955 7.05649
759 1 4.70376 5.9044 1.85943
760 1 4.67815 7.21294 8.85594
761 1 0.88954 4.26682 8.63671
762 1 7.31181 9.02122 6.06648
763 1 1.06324 5.20827 3.82572
764 1 3.51153 3.44576 9.39762
765 1 7.85472 3.48661 6.84836
766 1 8.36234 4.52312 8.22379
767 1 9.0519 8.23211 4.09371
768 1 5.92463 8.95587 7.71429
769 1 0.390089 6.74961 1.66536
770 1 1.14799 4.60906 4.67273
771 1 1.98044 1.4265 0.45352
772 1 2.25802 8.8091 5.40324
773 1 1.56752 3.13857 1.10012
774 1 3.52301 0.768118 8.28
775 1 2.06743 5.20658 6.25275
776 1 3.8867 7.58396 0.78284
777 1 6.26909 1.05761 3.1779
778 1 0.650286 2.92856 6.8607
779 1 4.95702 0.0685717 5.42139
780 1 1.32891 2.04879 0.940496
781 1 3.89297 2.19534 3.81634
782 1 9.33468 0.806577 2.04657
783 1 8.56699 1.19518 6.15959
784 1 2.49285 0.216203 3.32181
785 1 1.36079 8.45024 5.02845
786 1 8.09255 9.36691 4.97824
787 1 2.05352 2.90485 2.17078
788 1 3.97277 7.30196 6.65407
789 1 2.63045 3.6442 9.17553
790 1 6.70957 8.42835 6.86078
791 1 3.76039 1.6626 2.04623
792 1 0.613973 7.64544 5.13534
793 1 8.54775 0.258138 8.97017
794 1 3.07904 1.58129 6.60561
795 1 5.1537 3.92444 8.3075
796 1 0.926066 8.22102 0.368091
797 1 2.80602 8.47204 6.01504
798 1 9.39317 8.94234 9.02194
799 1 7.54193 3.52993 1.32857
800 1 3.04454 6.85091 2.49617
801 2 6.90482 8.25147 4.90175
802 2 0.935063 0.294368 9.18134
803 2 2.3628 3.04239 0.648807
804 2 1.65289 6.31299 8.48569
805 2 5.5192 7.11937 6.64071
806 2 8.2742 4.21221 4.43056
807 2 1.86741 0.678461 8.59483
808 2 4.32887 4.90195 4.08612
809 2 2.96888 3.109 1.39547
810 2 0.819637 2.78283 0.286009
811 2 4.02487 3.29642 6.89268
812 2 5.68095 3.40647 3.39993
813 2 2.96143 0.277894 5.0754
814 2 9.13884 4.47906 4.87976
815 2 0.0801375 1.96462 0.291657
816 2 6.07162 2.7823 5.61548
817 2 5.83056 3.1955 1.34236
818 2 1.43877 4.04064 0.170202
819 2 6.65235 2.58386 3.25096
820 2 8.70908 3.78627 3.70885
821 2 6.23132 4.32478 2.94817
822 2 5.96831 1.9305 8.27137
823 2 3.6275 2.50723 6.77863
824 2 7.14582 4.49426 6.46591
825 2 3.67164 0.615503 2.37167
826 2 5.9567 1.6896 2.5578
827 2 3.95415 5.21961 6.62804
828 2 7.40944 5.45712 5.85003
829 2 5.576 2.26164 0.204185
830 2 7.23181 5.65715 2.60112
831 2 8.63779 9.08649 8.29448
832 2 4.89747 1.72902 8.91756
833 2 4.25456 4.19137 2.29163
834 2 7.86475 8.02078 1.66473
835 2 3.33261 8.66885 5.19735
836 2 5.69902 3.87725 0.82102
837 2 5.39417 7.25562 0.0633777
838 2 7.57766 4.57155 5.32155
839 2 4.31304 6.41932 6.28728
840 2 7.25788 1.92258 9.12405
841 2 5.81926 1.56878 5.45335
842 2 8.44588 4.1559 7.09118
843 2 2.19006 2.51145 1.29763
844 2 1.77293 8.00097 0.437327
845 2 6.38751 1.27448 6.19648
846 2 1.11504 1.37434 0.243204
847 2 1.78912 8.08867 8.70986
848 2 3.93271 4.95147 1.07848
849 2 1.21655 3.98112 1.24461
850 2 4.6829 2.12299 4.47471
851 2 8.57724 7.78307 0.986211
852 2 7.83912 6.77919 5.15208
853 2 6.75829 0.443191 6.33554
854 2 9.03258 9.18468 0.424355
855 2 9.27632 4.34453 6.54813
856 2 5.2617 8.14263 9.07844
857 2 5.90514 3.12635 0.0982734
858 2 7.1479 5.49288 6.8243
859 2 3.1398 7.52616 8.60721
860 2 2.30512 7.12745 8.49953
861 2 0.747934 6.82879 2.55669
862 2 5.69339 2.9763 8.56615
863 2 4.18834 3.20546 3.44374
864 2 0.442162 0.950313 4.90267
865 2 6.68899 3.004 6.28414
866 2 0.801089 5.62413 7.63395
867 2 6.80931 0.516902 0.721449
868 2 4.72532 5.31671 8.11312
869 2 6.19111 7.13976 2.38412
870 2 2.30898 5.20377 3.75629
871 2 0.259778 8.17025 8.34749
872 2 3.49176 3.47619 4.1165
873 2 2.04028 3.07696 7.93657
874 2 1.39233 9.10349 3.44821
875 2 3.15797 8.57461 7.94359
876 2 4.31766 6.65675 0.114035
877 2 5.62753 7.71743 3.97592
878 2 8.04315 5.89624 4.65365
879 2 2.9267 1.28558 1.95391
880 2 3.3842 9.03128 1.90112
881 2 7.28133 2.03442 6.99122
882 2 1.41301 9.1407 0.501125
883 2 4.67467 6.25294 7.95171
884 2 3.73252 2.45236 2.90225
885 2 8.65443 7.71322 1.97705
886 2 3.87506 9.36907 4.75867
887 2 0.949052 6.81354 0.873481
888 2 3.33873 1.47553 3.96937
889 2 4.43794 1.19623 4.28416
890 2 4.14547 5.4061 5.42783
891 2 7.95675 6.73907 4.07012
892 2 7.8513 2.60066 5.14605
893 2 4.44962 5.71575 4.70737
894 2 8.23919 5.20803 2.22853
895 2 7.13945 6.28881 5.43098
896 2 6.68433 0.0265284 2.09567
897 2 0.842543 4.86967 6.46936
898 2 1.41129 3.47615 3.54399
899 2 7.37847 4.08474 3.51942
900 2 8.18132 5.36189 3.11095
901 2 5.20867 8.98123 8.43587
902 2 4.98587 8.12582 7.95047
903 2 0.0615927 7.13452 8.67441
904 2 5.99592 8.33992 5.57128
905 2 8.3016 8.13616 2.68227
906 2 2.60903 4.01328 4.09588
907 2 5.04742 3.52881 4.10637
908 2 0.726255 0.43208 8.34104
909 2 5.98391 2.44887 6.4756
910 2 3.43749 1.59283 9.37851
911 2 8.69013 9.24817 3.94091
912 2 4.25543 0.561397 7.5448
913 2 6.25566 8.78485 8.65574
914 2 8.82578 8.24786 6.24952
915 2 8.85145 5.75917 1.95387
916 2 0.189096 5.30263 2.38409
917 2 2.47305 5.47055 1.5748
918 2 3.19662 3.80291 0.812807
919 2 0.255768 7.65027 0.702688
920 2 8.12495 4.58321 3.54183
921 2 5.49908 1.589 6.27769
922 2 0.218694 4.92337 8.25276
923 2 6.53798 3.30988 0.714916
924 2 2.74216 0.232849 2.52434
925 2 4.54863 1.10045 2.29705
926 2 6.70696 9.36844 4.63997
927 2 1.11468 4.94513 1.36067
928 2 9.21081 8.5403 1.18211
929 2 7.90367 3.52422 7.76289
930 2 7.43053 9.11393 0.255714
931 2 9.20764 1.69859 4.60056
932 2 2.62963 8.76336 0.217759
933 2 5.93425 4.3318 1.62451
934 2 1.05089 1.48654 2.25588
935 2 8.52199 5.11187 7.15023
936 2 4.15834 8.27499 1.44275
937 2 5.2728 4.29506 2.35067
938 2 2.67607 0.690993 6.65583
939 2 7.72757 1.51002 7.75532
940 2 7.90646 2.49637 1.79365
941 2 5.75705 4.89968 3.58471
942 2 5.94411 1.48574 1.67854
943 2 2.75726 1.1246 0.751373
944 2 9.15873 4.68024 2.93721
945 2 5.73288 5.35043 7.64645
946 2 7.50523 6.58834 9.16551
947 2 1.08491 7.13193 5.92434
948 2 4.43762 7.61121 5.30978
949 2 7.62211 0.299038 1.93385
950 2 4.56919 2.71465 5.25605
951 2 5.49249 1.28913 3.97502
952 2 1.78044 2.36135 0.0967625
953 2 2.62072 4.93856 4.64842
954 2 4.10642 7.69434 8.21436
955 2 7.50868 3.45995 4.23725
956 2 6.4205 5.26933 5.17233
957 2 6.85473 1.62375 5.1157
958 2 2.07841 4.16191 7.65136
959 2 2.01854 6.96397 5.99017
960 2 2.48041 1.49555 8.10269
961 2 2.94214 0.980775 5.80016
962 2 6.80041 8.29354 1.65335
963 2 3.3805 8.15005 4.42101
964 2 2.99012 7.51765 6.30686
965 2 2.87071 4.31093 8.33169
966 2 5.77864 2.10362 4.55253
967 2 2.43879 8.98702 1.93126
968 2 8.14316 9.2997 7.61594
969 2 7.60738 7.23534 6.40515
970 2 0.544894 0.123697 2.27825
971 2 2.87045 4.4219 1.38771
972 2 5.1646 5.25263 2.15144
973 2 2.00152 3.39852 2.88434
974 2 0.578974 2.67995 2.40821
975 2 2.24246 0.77482 4.82749
976 2 7.72042 2.4504 8.05192
977 2 9.17422 8.06231 3.16309
978 2 2.27048 1.67477 6.25695
979 2 1.99772 4.89369 8.29889
980 2 6.8165 8.1779 9.24479
981 2 1.57602 7.22822 7.81536
982 2 1.03566 0.546424 0.653622
983 2 0.185851 2.72565 8.76071
984 2 3.26302 4.20445 5.06756
985 2 8.33797 0.446194 5.75099
986 2 5.44824 5.2748 5.49556
987 2 2.33785 7.05541 5.14473
988 2 4.25493 7.88318 4.52134
989 2 8.3958 2.42717 4.44526
990 2 5.06956 1.75085 2.06928
991 2 4.45017 9.38951 0.408597
992 2 7.35737 2.65169 4.03905
993 2 5.23137 3.13535 0.638274
994 2 4.0385 3.31088 0.741615
995 2 0.71759 1.22262 5.75589
996 2 7.60067 3.68838 5.04095
997 2 1.95574 8.68935 7.47258
998 2 1.57668 7.28581 2.75656