#bin. KALJ data file T=0.5

1000 atoms
2 atom types

0 9.4 xlo xhi
0 9.4 ylo yhi
0 9.4 zlo zhi

Masses

1 1.0
2 1.0

Atoms

1 1 6.15877 3.98462 4.59881
2 1 5.36935 9.07 8.98737
3 1 9.38484 5.14329 0.347347
4 1 4.42767 5.35708 6.32465
5 1 4.92356 6.9739 4.13697
6 1 1.40488 3.63575 5.72599
7 1 7.36255 3.8875 6.46962
8 1 2.46746 5.97435 8.89023
9 1 3.10252 3.25019 2.81337
10 1 9.15297 3.65163 4.61386
11 1 2.42153 1.39225 1.67237
12 1 0.0321531 0.579201 6.00895
13 1 6.85188 5.97442 3.64727
14 1 5.32942 3.76009 7.01167
15 1 4.53841 1.77603 4.66071
16 1 3.06067 0.805458 1.92301
17 1 8.20739 3.46272 6.69663
18 1 1.63587 3.38225 4.00101
19 1 8.1244 6.29545 0.662492
20 1 4.3745 1.48896 7.36695
21 1 3.98151 3.29447 7.55601
22 1 1.576 7.77617 4.76472
23 1 5.38571 4.23529 1.38662
24 1 3.20248 3.71984 9.33019
25 1 1.78344 1.50966 5.56348
26 1 6.55569 0.595198 2.27772
27 1 6.90068 6.79271 2.05411
28 1 8.79945 0.592732 1.66609
29 1 3.74583 0.220729 0.128259
30 1 1.83244 6.04054 4.30763
31 1 8.78192 4.96551 8.88675
32 1 1.97582 1.98201 7.48099
33 1 5.57248 3.59918 3.09212
34 1 6.39536 5.17156 3.57938
35 1 7.54002 4.5302 1.19997
36 1 7.29729 4.43906 3.11144
37 1 5.56988 5.39413 3.8426
38 1 4.95981 5.53276 8.77006
39 1 9.33961 5.98539 3.39157
40 1 5.64614 6.4162 6.63693
41 1 5.8386 7.05234 7.31192
42 1 2.32659 1.44161 8.13742
43 1 2.60033 3.45411 8.3782
44 1 3.88946 8.10606 2.35626
45 1 2.41716 3.11419 2.22881
46 1 4.12365 6.72683 5.17813
47 1 3.51667 7.85169 6.55072
48 1 4.2793 6.35584 0.972425
49 1 8.09295 0.947306 7.37347
50 1 7.47282 6.70342 3.69909
51 1 5.03788 6.28515 1.24866
52 1 0.0895195 0.769038 2.49098
53 1 0.405962 2.14444 3.27932
54 1 2.15963 2.32066 4.79476
55 1 4.81019 2.69769 0.361985
56 1 4.40529 0.742992 0.665793
57 1 3.24446 2.3109 4.89709
58 1 2.01756 3.44737 4.96616
59 1 6.82771 9.19108 0.173449
60 1 5.38696 1.76272 4.45364
61 1 0.356777 0.0945678 4.24776
62 1 3.27806 7.08431 5.62242
63 1 0.158032 8.35295 1.91368
64 1 3.44414 5.38745 3.80192
65 1 2.28681 7.81452 1.66045
66 1 8.55994 1.80969 2.16214
67 1 6.53944 7.53534 0.760992
68 1 0.311056 3.89221 2.95498
69 1 2.8817 7.15303 1.95627
70 1 9.32129 8.97916 4.7798
71 1 4.56176 9.1802 4.83063
72 1 1.37371 1.16098 3.02862
73 1 2.6901 4.7963 7.82171
74 1 2.41994 0.526482 5.15735
75 1 7.36981 8.26923 0.041748
76 1 2.65869 1.82967 5.52238
77 1 3.85752 7.2462 0.557351
78 1 7.78485 2.10841 3.68241
79 1 7.61472 6.31677 5.26475
80 1 6.23929 4.01558 3.72795
81 1 7.58059 0.224302 9.17701
82 1 8.43301 2.93867 8.41689
83 1 4.35244 4.82563 2.70495
84 1 6.0455 9.05529 7.22973
85 1 0.428431 1.36887 8.16938
86 1 2.64821 2.47327 2.79707
87 1 2.91621 0.453261 6.86016
88 1 4.04798 7.85864 8.49936
89 1 3.11085 9.28925 1.67537
90 1 7.47369 1.27366 9.00411
91 1 7.54828 3.89983 4.89949
92 1 6.47788 6.5793 0.563559
93 1 6.77064 5.06121 5.19179
94 1 6.47553 2.63327 9.37144
95 1 2.01012 9.32773 9.33425
96 1 0.135696 0.588233 5.00988
97 1 3.15766 4.27013 3.01699
98 1 6.50908 0.286109 1.36305
99 1 5.81131 1.11963 6.8528
100 1 8.35218 8.13184 2.47136
101 1 2.07402 4.26067 5.68925
102 1 6.27202 8.54461 5.59883
103 1 5.91986 1.74401 3.72819
104 1 0.364352 3.55976 7.33712
105 1 1.04646 1.46265 8.94627
106 1 3.15209 5.04294 8.73695
107 1 6.08718 0.755788 5.57631
108 1 3.00246 8.73894 2.4862
109 1 1.66671 3.62617 6.69752
110 1 0.287543 1.25518 3.47568
111 1 1.97164 1.76528 6.41352
112 1 0.909467 0.981493 2.0219
113 1 6.31229 1.74873 7.50497
114 1 2.33495 6.59297 0.401202
115 1 8.36916 2.67095 7.55884
116 1 0.0920449 7.44051 8.12369
117 1 1.37773 5.06212 2.98228
118 1 6.79747 2.34501 1.34156
119 1 2.51462 3.41366 1.38347
120 1 2.37611 0.459742 1.44497
121 1 2.07536 6.7927 2.32296
122 1 0.589445 6.33597 8.31136
123 1 9.04315 6.37311 4.12112
124 1 6.55771 1.81626 6.4059
125 1 3.87415 8.90742 2.81384
126 1 1.71556 8.40587 1.1638
127 1 6.47908 2.44333 8.09473
128 1 1.43779 6.4291 5.9033
129 1 4.74851 4.74365 7.93725
130 1 3.08586 0.201532 5.89179
131 1 1.51101 8.04529 3.87687
132 1 7.3819 1.77157 4.69441
133 1 2.46673 8.06019 2.45398
134 1 8.14915 7.72978 0.00892988
135 1 2.6976 7.65574 5.94045
136 1 5.50931 1.53451 2.88081
137 1 8.74393 7.16761 3.72015
138 1 8.57277 8.03929 0.772288
139 1 4.75578 8.34578 4.56437
140 1 0.644664 1.20496 5.63055
141 1 6.77102 2.46401 2.30252
142 1 9.10587 2.69582 8.99581
143 1 2.6545 2.34242 8.65462
144 1 0.581864 6.79327 0.913297
145 1 4.04221 3.36189 0.487479
146 1 1.78661 4.83805 7.86069
147 1 4.54103 5.65009 4.2475
148 1 6.854 4.56705 4.15524
149 1 5.61976 5.62314 4.96208
150 1 3.61468 2.87881 9.1009
151 1 3.22541 4.5155 5.94391
152 1 2.32992 4.83709 3.10605
153 1 0.668303 6.26504 5.38956
154 1 1.30241 1.76065 4.82904
155 1 4.72657 4.77394 1.73573
156 1 7.29987 5.44707 7.79476
157 1 6.79882 6.5562 2.91432
158 1 0.0970849 4.83569 8.28064
159 1 6.80435 0.246172 5.72397
160 1 0.710661 8.94561 6.95909
161 1 6.55812 9.25274 4.11172
162 1 5.52688 1.66151 8.39958
163 1 5.20984 0.473812 4.91405
164 1 5.88955 0.206003 2.74215
165 1 4.07728 6.71899 9.32929
166 1 3.93223 9.28285 5.93595
167 1 4.17732 1.06764 3.60957
168 1 4.92411 8.93059 2.81956
169 1 5.93109 4.81896 4.41211
170 1 8.94505 1.89979 3.82675
171 1 6.61985 6.9792 3.90367
172 1 0.407491 1.33096 6.43812
173 1 3.65744 7.56604 1.791
174 1 4.5318 5.37147 5.22693
175 1 0.792726 8.043 0.650865
176 1 6.12933 0.909785 3.16812
177 1 0.188453 3.04563 5.61268
178 1 0.841029 5.86104 2.80355
179 1 3.90005 5.62505 0.215861
180 1 7.17561 8.89239 5.86699
181 1 7.84222 1.05758 3.83956
182 1 7.0866 3.39125 7.62175
183 1 3.26347 8.84563 3.74151
184 1 0.488921 0.420645 6.81355
185 1 8.66254 4.47739 5.5918
186 1 3.41213 7.28213 3.05778
187 1 1.0235 5.98385 4.61844
188 1 5.67674 0.505996 9.02118
189 1 7.71112 4.57383 5.68382
190 1 5.77635 3.21701 0.310049
191 1 8.74288 3.75324 8.47841
192 1 3.50911 3.3748 8.39565
193 1 7.96338 7.90193 6.81084
194 1 1.45962 7.75589 8.96599
195 1 0.347477 2.13956 5.73698
196 1 5.23749 7.18415 2.025
197 1 1.3346 2.5226 2.47538
198 1 4.56515 3.2249 6.73574
199 1 3.64049 4.11593 5.06679
200 1 7.1708 6.07535 1.0873
201 1 4.1321 4.08983 1.43767
202 1 4.15808 2.36839 6.14308
203 1 8.33289 3.22797 9.36038
204 1 5.83903 4.70866 7.51729
205 1 1.69527 4.25402 3.40213
206 1 7.02541 5.23579 1.64525
207 1 7.75466 1.2143 5.92009
208 1 1.24931 8.80759 0.454656
209 1 4.17796 7.60626 4.73285
210 1 1.42428 1.47693 8.10793
211 1 0.0130337 0.315286 3.15702
212 1 7.80532 2.11162 1.70708
213 1 7.12884 8.53729 3.1414
214 1 3.65848 8.90566 5.18777
215 1 5.01847 4.61649 6.614
216 1 0.437575 5.14655 2.20172
217 1 1.33771 1.04981 1.22979
218 1 4.34992 4.97146 3.63684
219 1 7.37633 6.87872 0.741331
220 1 8.75493 6.78419 9.337
221 1 6.08453 0.151756 0.657253
222 1 1.65688 0.796158 0.109349
223 1 0.811795 4.19215 4.14403
224 1 3.42771 0.5841 4.21579
225 1 7.23091 3.24663 5.53921
226 1 2.50818 7.69534 9.06179
227 1 2.55004 6.73528 8.57246
228 1 5.88003 9.31015 6.0094
229 1 1.2653 2.04905 1.31321
230 1 5.25888 1.26622 1.19436
231 1 0.953723 4.33911 2.58572
232 1 5.98353 6.97217 3.10636
233 1 3.59143 1.57953 2.12058
234 1 2.07995 5.42091 6.93499
235 1 6.07407 6.5004 4.63929
236 1 0.868152 0.153429 0.157059
237 1 9.30744 0.654195 8.98265
238 1 1.28891 2.74381 4.53543
239 1 0.262104 7.09596 5.60992
240 1 2.10511 0.706952 2.32079
241 1 8.36529 3.55035 1.53367
242 1 1.58546 6.43854 0.811716
243 1 4.61655 7.69022 0.50154
244 1 6.99374 2.40501 3.28336
245 1 7.09723 9.13018 4.84203
246 1 4.17246 6.06761 5.83408
247 1 2.27341 6.79073 1.38897
248 1 4.79739 0.178941 5.73387
249 1 1.60696 1.42415 3.93833
250 1 9.32151 2.46617 7.26306
251 1 7.18756 5.70793 5.95269
252 1 0.641028 5.45676 8.19861
253 1 8.38228 8.69965 5.90002
254 1 7.21187 4.109 2.19574
255 1 3.59247 3.089 1.22431
256 1 3.92075 4.56314 6.53911
257 1 8.42667 7.29362 2.50731
258 1 5.95777 4.55222 5.33662
259 1 8.87811 6.98722 6.13497
260 1 7.93464 8.80997 0.594505
261 1 6.69893 2.43477 4.35255
262 1 5.8529 7.64344 5.83376
263 1 5.36608 4.75135 0.325106
264 1 4.03818 2.09911 0.408258
265 1 7.06785 8.57034 7.29594
266 1 7.8379 0.0285803 4.18227
267 1 2.58186 3.69847 7.09679
268 1 0.594302 7.31993 7.44707
269 1 6.34894 3.16203 8.63516
270 1 4.18852 2.49622 5.10596
271 1 9.11649 9.20701 2.41149
272 1 1.65503 5.95754 3.31534
273 1 8.33073 5.32604 2.91495
274 1 1.4114 4.83231 1.15727
275 1 5.93643 3.28976 2.12749
276 1 1.02162 2.90088 5.67769
277 1 7.10561 4.34882 0.095462
278 1 8.19795 5.64508 2.04897
279 1 9.33013 2.95447 3.00409
280 1 5.85114 8.54193 0.303404
281 1 8.31506 3.23497 3.22173
282 1 0.124027 4.96378 1.31218
283 1 5.82996 6.32326 3.73045
284 1 7.78294 8.53556 3.80886
285 1 6.49902 1.48587 4.565
286 1 4.60065 8.11451 7.20125
287 1 1.80577 8.60243 8.17343
288 1 6.0212 4.85117 6.58432
289 1 1.50527 5.96339 7.93291
290 1 6.20969 1.08907 0.0700155
291 1 3.59193 4.42618 3.92563
292 1 2.42183 8.87134 6.73855
293 1 3.04833 3.97511 0.859291
294 1 6.98628 4.33993 7.20035
295 1 8.32369 8.01445 8.45786
296 1 9.14094 7.62837 8.99247
297 1 4.06439 9.28428 4.17985
298 1 1.09218 5.56182 1.59877
299 1 4.57284 2.65994 4.34047
300 1 7.52013 1.85114 6.61865
301 1 2.81013 0.623655 7.94117
302 1 8.06726 5.51414 6.1429
303 1 8.80013 5.4664 0.975139
304 1 7.41163 5.89458 8.7135
305 1 5.80311 3.49349 5.3561
306 1 5.0796 7.34072 4.92235
307 1 9.25216 2.78373 4.50254
308 1 3.7547 1.91815 8.71783
309 1 8.45591 3.59619 7.6373
310 1 4.33118 7.30102 6.66348
311 1 4.93692 6.46112 7.61789
312 1 2.98893 3.38278 5.13869
313 1 7.72704 7.37519 8.59766
314 1 0.0299408 7.53867 0.466368
315 1 6.55921 7.76076 7.22158
316 1 5.05742 6.27312 4.75023
317 1 4.65791 2.0434 8.14302
318 1 3.20943 8.50496 5.93234
319 1 3.01755 5.65429 0.460987
320 1 5.23853 6.37278 9.10236
321 1 1.4118 9.13407 5.4981
322 1 3.33145 5.68118 7.70474
323 1 0.48944 2.07155 4.23022
324 1 4.97452 0.256051 1.6482
325 1 8.67087 8.47212 6.74044
326 1 9.16641 9.26626 6.74268
327 1 6.26393 5.82325 1.58622
328 1 9.21477 1.78222 4.84404
329 1 5.9118 5.77343 2.98054
330 1 0.645073 4.9326 4.7476
331 1 5.258 7.19965 1.12021
332 1 4.3713 1.14552 1.80328
333 1 4.38682 2.52765 9.03736
334 1 6.40466 3.94508 6.33327
335 1 3.76348 8.36005 4.45449
336 1 3.54241 1.10489 0.321705
337 1 3.43473 2.73582 6.80647
338 1 4.03257 4.8701 9.03283
339 1 4.90445 8.81954 0.330717
340 1 0.732035 4.66055 0.593556
341 1 4.24706 7.29412 2.57166
342 1 4.89419 3.84831 0.540554
343 1 6.88674 7.58109 3.08758
344 1 0.778565 9.01047 2.54866
345 1 7.12955 8.16906 4.98178
346 1 3.01275 1.11839 5.08148
347 1 4.4322 1.2717 6.5129
348 1 8.8585 8.11131 5.22794
349 1 5.47048 9.07414 4.33591
350 1 3.24036 5.21053 2.72364
351 1 4.08368 8.9997 8.90607
352 1 7.41355 7.58441 4.07977
353 1 2.97276 8.17299 0.358276
354 1 1.43397 4.23087 4.93405
355 1 2.62163 8.978 5.44859
356 1 9.22342 5.75155 2.50318
357 1 4.99815 8.91503 7.42921
358 1 1.67372 5.08161 5.95901
359 1 2.25738 1.32667 3.31626
360 1 0.0853632 4.50243 3.69579
361 1 6.12301 8.82925 1.25514
362 1 3.40832 5.98156 2.37315
363 1 2.8131 5.87162 4.28285
364 1 2.32676 1.6578 0.0856852
365 1 3.60631 6.93047 8.54742
366 1 1.59498 0.258045 4.36612
367 1 5.63545 5.42919 9.35288
368 1 4.26966 7.0718 1.45276
369 1 5.57172 6.43174 0.606736
370 1 4.46333 0.903688 4.62839
371 1 3.98029 8.59401 0.3066
372 1 8.98845 6.63852 5.2487
373 1 8.94219 2.52697 5.38493
374 1 7.46146 1.06528 2.95956
375 1 5.26605 3.00126 1.26229
376 1 6.88699 0.75801 0.622128
377 1 2.39989 5.867 7.92797
378 1 6.93181 7.72085 1.5757
379 1 5.07774 1.25233 3.87312
380 1 7.54611 2.77112 7.17715
381 1 7.33373 7.27441 6.68866
382 1 8.87712 3.81851 3.59692
383 1 9.34737 8.32318 8.4632
384 1 4.96987 8.82505 1.2316
385 1 6.86134 8.39471 0.762391
386 1 7.80201 7.0205 1.66572
387 1 5.00908 6.15671 2.70328
388 1 1.21304 7.01888 8.10077
389 1 4.05709 2.8181 3.36562
390 1 2.91705 1.25653 4.06516
391 1 2.51654 9.19306 8.48773
392 1 0.286494 9.14036 8.9924
393 1 0.972335 5.4738 9.18164
394 1 8.78185 0.922896 0.577858
395 1 3.22485 3.67176 1.91318
396 1 3.95431 0.926592 8.97378
397 1 8.73813 2.41408 2.91872
398 1 4.86992 2.78469 5.83147
399 1 3.51059 1.53216 8.01966
400 1 0.565914 6.66187 6.2759
401 1 3.10183 6.43561 0.878685
402 1 7.2373 7.51495 7.83552
403 1 1.88201 2.63313 8.21082
404 1 8.76306 5.97967 6.68835
405 1 1.59353 6.5965 8.79265
406 1 5.62209 8.37639 8.34876
407 1 4.10517 5.51341 2.13256
408 1 9.28311 8.66925 0.468254
409 1 4.26592 3.71861 9.13055
410 1 3.72384 6.69057 6.5505
411 1 3.10728 6.89523 7.75332
412 1 6.32414 5.67212 0.649659
413 1 2.62246 6.06572 5.30048
414 1 7.37842 2.01623 8.11594
415 1 7.62807 6.0711 7.19351
416 1 1.95094 9.23703 7.50002
417 1 4.65827 8.14539 9.10079
418 1 9.08971 1.3952 7.47046
419 1 7.92003 3.9762 3.8237
420 1 6.27275 7.22657 6.58919
421 1 7.68134 6.61628 2.66766
422 1 0.96293 8.67134 4.12453
423 1 7.65397 2.18271 0.782188
424 1 1.2956 9.20756 1.68641
425 1 2.31738 8.08925 4.18328
426 1 0.804314 0.59437 8.70523
427 1 4.00373 4.26283 0.470092
428 1 0.579914 5.26678 3.52864
429 1 8.32471 6.1505 3.55738
430 1 6.37069 7.51063 8.29228
431 1 0.933971 0.39076 2.77671
432 1 6.97575 2.80398 6.39404
433 1 8.35028 4.48217 3.02602
434 1 8.83461 0.0270174 5.44529
435 1 7.94124 3.88367 2.59903
436 1 8.7415 3.45037 0.712851
437 1 7.47251 7.57345 2.34354
438 1 3.07925 6.24371 6.11199
439 1 2.19054 7.68574 0.73355
440 1 6.48508 6.05507 5.33484
441 1 2.75935 6.17564 7.14551
442 1 1.41161 3.78686 1.84812
443 1 0.963582 0.634849 3.64997
444 1 7.61745 3.05599 1.1037
445 1 5.46197 2.03748 7.60644
446 1 8.12091 2.95201 5.86855
447 1 0.696097 8.21018 3.23436
448 1 7.83342 5.04125 3.72185
449 1 5.83883 6.41609 2.21744
450 1 2.64066 1.45823 2.53433
451 1 3.07911 7.45046 4.55026
452 1 8.43595 6.25832 7.51543
453 1 3.69182 2.52963 7.80091
454 1 6.40322 6.02254 6.40887
455 1 6.37467 0.53179 7.3734
456 1 8.95192 1.50088 5.68489
457 1 0.462576 2.32228 1.56223
458 1 8.07202 1.36633 8.32701
459 1 3.153 4.99093 4.83557
460 1 3.60377 4.97197 1.00978
461 1 4.9024 8.08168 1.73973
462 1 3.83413 0.267376 3.33474
463 1 0.946209 4.54796 7.7548
464 1 3.51354 4.77952 1.96374
465 1 3.78095 8.17551 7.67646
466 1 2.48936 4.47342 6.48827
467 1 0.722342 4.34099 1.40349
468 1 5.49191 8.8346 6.59849
469 1 5.23944 0.0496776 3.55244
470 1 0.30709 1.90129 9.27268
471 1 4.47766 3.08415 8.36728
472 1 6.91087 4.78482 6.16039
473 1 6.08224 2.11407 5.09214
474 1 6.61622 3.26613 4.70497
475 1 4.85803 7.91243 2.6799
476 1 0.9101 7.95562 8.05073
477 1 1.11768 3.94445 0.122353
478 1 3.64373 3.64529 3.46716
479 1 5.01343 5.27609 3.06827
480 1 0.323231 9.19418 5.5966
481 1 2.08211 0.995856 7.29995
482 1 2.18287 1.27197 4.63843
483 1 2.09324 8.90097 3.8526
484 1 0.93405 3.47662 5.02363
485 1 4.00828 4.94655 4.51979
486 1 1.52321 0.373103 6.82393
487 1 5.40626 5.38496 1.09109
488 1 7.12347 8.15789 8.43857
489 1 0.552069 7.19889 3.73158
490 1 2.16836 0.772526 8.66848
491 1 9.22962 1.5916 1.70077
492 1 4.82465 6.90763 5.87147
493 1 1.03605 0.473619 6.01626
494 1 8.49821 2.66292 6.61417
495 1 0.46711 3.77409 6.09858
496 1 6.37741 6.11963 9.00515
497 1 1.81529 3.68408 8.00786
498 1 6.48541 3.82986 9.26339
499 1 6.98303 8.80551 1.59963
500 1 0.803013 5.67695 0.65768
501 1 8.67261 2.74107 3.86053
502 1 8.47835 1.28794 6.53038
503 1 2.2622 7.23581 5.19438
504 1 8.66662 8.89579 4.08772
505 1 7.87963 8.72484 4.75419
506 1 9.31363 4.58497 7.4381
507 1 5.76224 2.93476 4.52647
508 1 5.10673 8.10982 6.17743
509 1 7.62106 0.675028 4.87529
510 1 5.99947 0.00342667 8.35181
511 1 0.594332 8.1832 9.27588
512 1 4.6397 6.22452 6.72549
513 1 7.71428 4.05132 8.35563
514 1 1.22272 1.29211 7.21174
515 1 2.32004 8.88382 0.621625
516 1 6.74773 7.74817 6.03923
517 1 1.71175 3.85742 0.961192
518 1 4.09795 9.09133 7.41263
519 1 4.97992 3.11507 3.61936
520 1 0.264495 4.02595 5.17287
521 1 3.18158 0.352683 8.72176
522 1 7.56612 2.74206 4.60385
523 1 7.85931 2.64914 2.74591
524 1 6.10583 4.06853 8.2513
525 1 4.69332 7.44984 3.50186
526 1 6.78333 0.239517 3.21119
527 1 0.955816 5.77563 6.36111
528 1 6.79495 5.30646 8.79971
529 1 0.597004 7.35768 2.64481
530 1 4.50839 1.33852 5.50269
531 1 3.16896 4.14349 8.56858
532 1 4.93879 3.77547 5.27275
533 1 4.48297 9.02676 6.62555
534 1 0.904693 4.43356 5.68181
535 1 1.89185 2.86161 3.20708
536 1 7.41843 0.154548 7.38648
537 1 3.44212 4.92401 7.19836
538 1 1.3035 7.33561 6.81559
539 1 2.8289 6.57283 2.77193
540 1 1.2261 7.20603 0.224321
541 1 3.66747 8.61874 1.63177
542 1 1.85686 2.9939 7.38908
543 1 1.82835 6.3864 6.87613
544 1 1.15357 3.43934 2.7835
545 1 5.83378 7.92381 1.46123
546 1 8.30237 2.3593 0.300828
547 1 8.26822 7.13692 0.682551
548 1 4.48754 2.65045 1.22242
549 1 6.06472 0.839119 8.17355
550 1 6.35934 2.97929 3.75398
551 1 2.34267 3.69216 3.02617
552 1 2.75767 0.324113 3.69542
553 1 1.64478 0.346384 0.918437
554 1 3.53472 0.423654 5.04114
555 1 1.46558 3.47483 8.82495
556 1 2.14846 6.74889 7.67337
557 1 2.11871 2.2169 1.97182
558 1 5.92768 1.65007 5.8212
559 1 1.85321 0.321099 3.38651
560 1 6.94455 3.30017 1.76656
561 1 3.30158 6.15729 3.5102
562 1 7.34122 2.11674 9.38622
563 1 5.64654 1.89158 9.27985
564 1 5.88378 2.92999 7.6668
565 1 9.23918 3.62163 9.19035
566 1 7.58889 5.75124 3.13406
567 1 3.72238 0.879545 5.8264
568 1 5.21199 5.54699 6.62287
569 1 7.93552 0.401565 8.26003
570 1 2.68458 8.16423 7.355
571 1 0.328893 5.19067 6.7284
572 1 3.50451 8.95036 6.71981
573 1 4.17187 4.22495 7.31569
574 1 4.24555 6.57756 3.04574
575 1 2.2824 6.80508 6.03977
576 1 8.90066 3.52347 5.84478
577 1 7.17418 3.47398 3.93841
578 1 3.67381 1.35038 1.25924
579 1 0.999853 0.550005 7.72553
580 1 3.88795 3.88239 2.50434
581 1 7.61063 0.0278973 3.28683
582 1 9.2121 6.99298 7.18711
583 1 2.83938 9.18835 4.57664
584 1 4.24882 3.89675 8.17823
585 1 6.89336 2.52217 5.31295
586 1 1.23298 1.67833 0.462467
587 1 1.51827 8.44813 3.1255
588 1 3.03935 1.25301 8.95435
589 1 3.42759 8.8516 8.33672
590 1 5.29876 3.64727 4.42898
591 1 4.58549 0.408082 9.2042
592 1 9.03935 6.87958 1.05245
593 1 7.8631 8.60309 8.02765
594 1 0.267914 6.11676 1.46249
595 1 9.02636 3.85944 6.87365
596 1 3.6463 1.4439 4.51865
597 1 2.13742 5.91826 6.13659
598 1 4.61229 0.511795 7.30297
599 1 3.30221 2.78155 3.72276
600 1 8.89914 1.53635 9.3894
601 1 6.83132 4.73754 8.01088
602 1 0.00925039 2.30326 2.29817
603 1 1.33538 8.30508 7.29221
604 1 3.29451 4.68448 0.230472
605 1 4.22754 4.66605 5.63562
606 1 7.394 0.0415048 0.800519
607 1 5.78216 2.36561 2.31428
608 1 1.92038 5.64856 1.20725
609 1 4.4835 1.69519 1.06917
610 1 6.31798 8.39107 6.49858
611 1 2.45769 5.0637 9.3811
612 1 0.335148 7.48624 6.50748
613 1 7.2185 1.23294 1.3737
614 1 8.85771 5.70858 5.38909
615 1 3.73783 3.28644 4.48444
616 1 2.25633 4.03794 0.0841517
617 1 4.40103 4.11361 3.26131
618 1 5.91612 2.26556 6.77108
619 1 5.62551 8.05182 7.37135
620 1 8.82823 9.26877 1.15133
621 1 9.24856 7.969 2.74628
622 1 0.0625966 6.1847 7.39998
623 1 8.89711 6.34989 1.76139
624 1 2.90155 2.02927 6.97919
625 1 8.87491 5.0345 2.13851
626 1 2.44419 2.80687 6.56873
627 1 9.16647 0.859559 4.1267
628 1 5.41071 5.47281 2.2245
629 1 6.30257 3.74431 7.42516
630 1 0.531464 2.49742 4.93911
631 1 0.549672 4.62644 9.11113
632 1 2.48157 4.25302 1.75585
633 1 4.53692 6.39331 8.56844
634 1 0.316902 9.22116 1.14934
635 1 2.71731 3.64617 6.09216
636 1 2.49121 3.15732 9.22064
637 1 7.57293 5.04024 6.89386
638 1 8.33426 7.39334 5.40431
639 1 5.17013 4.51491 2.47111
640 1 2.90635 7.00121 3.89083
641 1 2.06947 0.494848 6.09824
642 1 8.50179 0.427619 4.64877
643 1 8.02793 1.83617 7.47771
644 1 6.38673 8.33312 7.98056
645 1 7.93031 8.95765 8.78043
646 1 5.09959 1.957 6.31395
647 1 4.28607 8.36698 3.49793
648 1 2.09845 2.10529 0.868717
649 1 8.88916 7.27796 4.63956
650 1 2.24602 8.97652 1.95407
651 1 0.625984 8.85121 8.12134
652 1 6.25707 7.5894 4.66907
653 1 3.26241 9.07187 0.77433
654 1 0.833543 2.29487 8.45722
655 1 0.206386 7.60351 1.32292
656 1 0.384314 6.82249 4.64293
657 1 4.47365 3.84057 6.03582
658 1 3.13542 2.08861 9.3992
659 1 4.62216 1.01838 8.2
660 1 1.93996 8.26479 5.61507
661 1 8.33452 0.906693 9.15753
662 1 0.598922 8.51696 5.14279
663 1 8.74533 8.56494 7.71512
664 1 4.40782 9.03458 2.0073
665 1 9.21015 8.0528 3.99242
666 1 1.17308 2.30315 3.6239
667 1 3.01884 8.00692 8.21951
668 1 5.66349 7.66773 0.364328
669 1 7.98333 4.98926 0.310568
670 1 1.70154 9.29951 2.59331
671 1 4.49541 5.03835 0.797465
672 1 7.89804 0.0777028 5.59537
673 1 2.46256 5.1458 3.99798
674 1 5.13657 4.36194 3.82223
675 1 1.0021 8.20407 6.39242
676 1 8.49539 0.329034 6.26964
677 1 3.44287 6.08054 8.99861
678 1 9.02171 5.35819 3.87009
679 1 9.28413 0.235189 0.328455
680 1 4.45815 6.42036 2.05641
681 1 6.20831 1.0659 1.14605
682 1 7.73948 8.09716 5.92846
683 1 3.01812 2.1641 1.8879
684 1 5.23156 8.39137 5.28234
685 1 7.73905 9.00363 6.67292
686 1 9.114 4.32064 0.372803
687 1 8.99208 3.97033 2.36698
688 1 6.09789 5.35708 5.79175
689 1 6.25218 4.73055 9.32982
690 1 4.88702 7.22081 9.12799
691 1 1.15758 8.78071 8.91498
692 1 5.78225 2.64391 3.25689
693 1 7.87791 5.35535 1.29102
694 1 2.99302 2.92687 0.581126
695 1 0.929765 5.36874 5.47971
696 1 5.26823 5.49765 7.65055
697 1 2.35122 4.44769 8.63599
698 1 7.07368 7.07842 4.69927
699 1 1.4012 4.4082 6.91079
700 1 2.6494 5.1716 1.8588
701 1 9.34023 3.05949 6.52056
702 1 6.17608 8.03241 3.68951
703 1 5.61479 2.34964 0.827696
704 1 7.87741 7.69172 3.19147
705 1 6.66114 9.2938 6.54184
706 1 8.3856 1.38864 4.48694
707 1 0.358206 0.950077 0.301729
708 1 3.42939 3.75715 6.81087
709 1 8.57754 6.41508 2.67884
710 1 8.51201 4.62051 8.07346
711 1 5.36207 2.5617 8.61374
712 1 7.57564 8.70321 2.42448
713 1 8.56856 9.36067 9.39199
714 1 6.13406 7.35754 2.0932
715 1 1.63482 0.13911 8.39388
716 1 5.62216 6.23564 8.25466
717 1 7.55053 7.75536 0.694077
718 1 1.54486 0.605906 5.28651
719 1 3.47334 5.53993 5.6805
720 1 8.04004 5.15326 5.14899
721 1 4.79245 1.36398 0.0878418
722 1 3.50754 7.89327 5.29537
723 1 2.21488 7.39441 3.48693
724 1 4.47024 3.90009 4.43449
725 1 7.01357 0.758168 8.14205
726 1 3.52303 0.531866 1.09807
727 1 4.08611 8.01267 1.1448
728 1 8.59837 7.57506 1.54954
729 1 1.24668 7.6265 5.76451
730 1 0.645703 7.33745 8.87184
731 1 2.93711 9.16169 7.50148
732 1 6.11848 4.9636 1.22672
733 1 3.1454 7.45139 1.09357
734 1 8.36687 0.536837 2.74007
735 1 3.09148 8.83949 9.17847
736 1 5.3109 3.65115 8.01095
737 1 3.90383 3.05919 2.08465
738 1 6.10898 8.98122 3.46575
739 1 5.57263 8.48815 2.21531
740 1 2.63799 1.1528 0.833614
741 1 4.6549 8.46103 8.15131
742 1 2.30916 6.51825 3.57179
743 1 3.74755 0.338317 2.28403
744 1 3.00222 2.55983 5.89366
745 1 8.14379 5.55693 8.07876
746 1 0.143401 5.63502 8.98612
747 1 1.4686 6.8987 3.70708
748 1 4.01294 6.3992 7.38003
749 1 3.7805 4.64156 8.03915
750 1 4.42025 2.10888 2.37336
751 1 9.32239 8.82888 3.265
752 1 6.63434 2.607 7.23524
753 1 5.55312 3.93074 8.99246
754 1 9.13679 2.46227 0.47339
755 1 4.95214 2.18045 3.40135
756 1 7.28752 6.01669 2.04388
757 1 3.4891 6.53278 1.64458
758 1 2.85733 3.851 4.11001
759 1 6.83633 1.32999 5.63511
760 1 1.79162 5.94346 2.2535
761 1 3.62822 5.75126 6.80169
762 1 3.88823 2.16401 3.90409
763 1 8.4462 2.58998 1.22328
764 1 3.58174 7.92758 9.12578
765 1 1.43259 6.46954 1.66486
766 1 8.09305 6.91255 4.5517
767 1 5.43877 0.362782 7.71029
768 1 7.75249 6.5449 9.31369
769 1 4.94255 7.3299 7.47314
770 1 2.94198 8.1456 3.3671
771 1 3.3825 3.94969 7.67432
772 1 7.95632 3.92267 0.690528
773 1 8.25184 6.25612 5.78794
774 1 2.15077 4.81262 4.76917
775 1 4.02869 5.61323 8.34938
776 1 1.49659 7.42451 1.95482
777 1 4.17091 7.52375 5.82162
778 1 3.48359 2.35457 2.61467
779 1 1.46986 4.86264 2.08658
780 1 1.02315 3.32586 1.1657
781 1 1.76261 5.8463 5.26542
782 1 5.2074 7.34006 6.52773
783 1 4.81651 4.39519 8.88032
784 1 0.663824 1.80647 2.54016
785 1 7.6858 5.04414 8.58014
786 1 1.27747 4.2833 8.62362
787 1 1.90191 5.82326 0.288897
788 1 6.68424 6.58608 7.19049
789 1 1.60036 4.66247 0.164187
790 1 8.80643 0.647827 8.20744
791 1 8.20959 1.97044 5.96709
792 1 5.19649 5.85122 5.8121
793 1 4.1573 3.41068 5.31902
794 1 9.22727 6.97838 2.86248
795 1 5.26103 7.1693 8.34719
796 1 6.51772 5.8347 4.4892
797 1 7.71117 6.54447 8.10249
798 1 1.90212 4.30151 2.43765
799 1 3.30506 5.67008 1.52575
800 1 2.2892 2.06013 3.89849
801 2 8.3073 3.15531 4.86945
802 2 0.525867 3.76143 2.05768
803 2 8.50259 7.02454 8.25065
804 2 8.28352 4.40923 6.48075
805 2 8.67291 5.07367 7.09494
806 2 0.968101 2.56641 0.125926
807 2 0.58914 3.05232 4.01386
808 2 8.95032 0.60158 7.06622
809 2 1.39407 6.75828 4.97333
810 2 4.35335 5.28062 7.30497
811 2 9.35327 4.48365 6.15485
812 2 4.84795 5.88242 0.340735
813 2 7.01371 0.656382 4.00444
814 2 2.38381 4.77926 1.01941
815 2 7.262 3.02515 0.193474
816 2 8.23036 7.8723 7.62224
817 2 6.98611 8.46046 4.19405
818 2 3.82959 2.27224 1.52681
819 2 8.64235 6.10118 8.56573
820 2 6.03243 8.50256 4.46429
821 2 0.0742023 5.04909 5.43894
822 2 6.90371 5.21593 2.6363
823 2 5.20374 4.75799 5.77635
824 2 8.43722 8.37826 3.32466
825 2 8.09374 1.65162 2.94866
826 2 3.74991 1.93301 6.86347
827 2 0.57366 1.9254 7.56153
828 2 5.26136 8.33469 3.7975
829 2 7.42568 5.45706 4.5602
830 2 3.83004 7.16207 3.92098
831 2 3.57049 5.76051 4.7927
832 2 8.80135 3.10116 2.13524
833 2 6.67602 5.27102 7.01323
834 2 1.76519 5.27173 8.70875
835 2 0.0512104 5.81796 4.73646
836 2 2.78876 4.23189 4.96697
837 2 5.95725 1.89008 1.52859
838 2 3.95398 1.60127 2.93043
839 2 5.35162 0.881995 6.06586
840 2 0.138815 5.9562 6.01375
841 2 5.99661 9.35011 4.99029
842 2 7.96166 4.72165 2.17671
843 2 1.43701 5.09203 3.88717
844 2 1.36974 7.6244 2.98866
845 2 7.1625 5.13623 0.72114
846 2 2.87243 1.26903 6.29612
847 2 7.52263 0.478952 6.46332
848 2 6.53343 1.78962 8.87336
849 2 7.74725 8.12658 1.60875
850 2 8.94932 1.41957 2.88652
851 2 0.488045 0.153664 1.90064
852 2 5.92056 7.84767 2.81757
853 2 5.79945 0.815463 4.39772
854 2 3.56562 1.76802 5.63857
855 2 1.93093 2.87042 5.82329
856 2 7.0317 6.76814 8.74911
857 2 0.502959 0.774115 1.23555
858 2 2.84605 7.04452 6.64793
859 2 2.90689 5.31189 6.428
860 2 2.87306 0.185532 2.79448
861 2 8.90685 5.23559 6.19348
862 2 6.81797 9.04309 8.19683
863 2 4.25014 5.66182 3.12481
864 2 1.34712 7.29088 1.10529
865 2 2.45621 2.99948 4.06019
866 2 2.466 5.77313 3.08514
867 2 0.908963 0.981069 4.46009
868 2 8.20647 5.98811 4.50413
869 2 3.18427 7.10029 9.32889
870 2 7.75385 0.853638 0.464727
871 2 6.07166 3.14145 6.63038
872 2 4.14678 9.12315 1.04848
873 2 1.31401 8.28581 2.10611
874 2 4.35652 7.13512 8.04972
875 2 9.38231 0.165621 7.77116
876 2 5.12598 2.14045 1.70448
877 2 5.96617 6.04641 7.33819
878 2 6.55118 0.37201 8.99012
879 2 2.92514 8.34046 4.82173
880 2 8.37315 4.1717 9.09793
881 2 8.76724 7.8453 6.07305
882 2 8.57074 4.49792 1.10648
883 2 4.64961 3.4009 1.90628
884 2 8.85705 9.09447 8.49482
885 2 3.98097 0.509036 6.6889
886 2 0.046793 6.1951 0.318596
887 2 0.862166 6.40817 9.35622
888 2 5.39725 0.26089 6.70787
889 2 6.68179 6.02945 8.15594
890 2 2.39422 8.88512 3.0481
891 2 6.51619 1.86874 0.492654
892 2 3.1261 1.97533 3.43792
893 2 6.41915 4.01904 1.63622
894 2 0.723112 2.9101 6.82263
895 2 6.16199 4.86023 2.05228
896 2 0.739988 6.27134 3.71018
897 2 6.0471 4.15142 0.779662
898 2 6.71656 8.18813 2.47972
899 2 0.0230647 6.7221 8.76214
900 2 6.9065 1.55912 3.72042
901 2 7.5134 0.261389 2.41568
902 2 8.36941 0.857147 5.44409
903 2 8.50999 5.82717 9.38236
904 2 3.51217 0.792903 7.43795
905 2 6.64667 0.857891 6.53838
906 2 8.30884 9.05916 2.74354
907 2 0.574731 7.84136 4.47871
908 2 0.191237 1.76574 0.789344
909 2 5.912 6.94995 8.91265
910 2 5.40422 1.2337 5.26236
911 2 0.305945 3.86428 8.26961
912 2 6.48421 8.16532 9.17531
913 2 1.31146 6.7183 2.80339
914 2 8.45021 0.309411 3.64193
915 2 6.01712 6.92442 1.34809
916 2 1.99724 7.91556 6.5431
917 2 8.41288 1.58087 1.20761
918 2 2.41015 6.7128 4.52483
919 2 3.17198 1.0344 3.17676
920 2 1.92049 2.04081 3.03516
921 2 2.55802 6.10276 1.88639
922 2 1.09866 2.0654 6.41598
923 2 9.17118 4.80936 2.93441
924 2 0.331264 3.66002 0.519233
925 2 5.08324 2.91991 2.67688
926 2 4.86249 6.21128 3.59874
927 2 5.8741 0.0406197 1.8831
928 2 9.3018 3.0627 7.97808
929 2 3.72296 7.39473 7.33606
930 2 4.94488 4.87129 4.66274
931 2 7.07318 3.25634 2.94891
932 2 0.139587 8.1254 7.41317
933 2 3.92743 6.25653 4.18866
934 2 9.13992 2.04604 6.38787
935 2 2.73886 0.302396 0.281495
936 2 7.14612 1.26923 7.31811
937 2 0.575433 3.11853 8.80843
938 2 7.45422 2.75751 8.68483
939 2 7.83557 9.05166 1.67516
940 2 4.71196 0.602454 2.92601
941 2 5.76501 1.22932 2.04198
942 2 3.30416 6.55543 4.83389
943 2 9.23901 4.08252 1.43734
944 2 9.1501 1.95621 8.27935
945 2 4.10727 8.39011 6.06129
946 2 0.918391 3.05923 7.93322
947 2 2.79036 8.40497 1.2151
948 2 5.13915 2.40794 5.11358
949 2 7.53105 7.02339 5.85436
950 2 5.86446 2.79391 5.83289
951 2 8.34982 2.24329 4.59031
952 2 5.36578 0.60302 0.4817
953 2 8.6315 8.49372 9.19824
954 2 8.65731 8.65388 1.70758
955 2 5.22092 1.25319 7.52297
956 2 8.06839 7.76689 4.66681
957 2 6.53899 0.637576 4.843
958 2 3.02092 1.90544 0.880218
959 2 5.85259 4.59261 3.14565
960 2 6.31204 4.10552 2.58103
961 2 1.60806 1.5738 2.24134
962 2 4.87112 2.78203 7.57493
963 2 6.19897 2.97979 1.24189
964 2 5.38893 3.75773 6.13076
965 2 3.91338 0.207087 8.1974
966 2 7.07407 6.08939 0.253565
967 2 8.93012 4.70423 4.73753
968 2 6.63857 9.11712 2.46435
969 2 6.34941 1.70066 2.64052
970 2 9.07995 5.54963 7.95237
971 2 9.22582 7.16669 1.93687
972 2 7.10378 7.43142 -0.0102657
973 2 8.43424 9.30625 7.23681
974 2 1.75028 2.15747 8.91829
975 2 6.45354 7.07288 5.53789
976 2 5.65878 7.35593 3.86598
977 2 5.81073 5.01313 8.55574
978 2 1.00006 6.58021 7.22266
979 2 8.13872 0.486937 1.09309
980 2 1.90812 7.69067 8.016
981 2 8.03219 6.66646 6.46997
982 2 1.60908 2.95414 1.65675
983 2 6.90294 3.65834 0.795045
984 2 2.51322 5.09969 5.68104
985 2 7.94492 4.33198 7.40194
986 2 0.697116 6.98693 1.84302
987 2 6.69296 4.07952 5.39745
988 2 5.6263 6.76929 5.47983
989 2 8.04611 6.9966 7.3183
990 2 1.83828 8.74087 4.76169
991 2 8.15947 2.13705 8.72996
992 2 0.996013 5.59824 7.21147
993 2 2.69137 2.56054 7.79758
994 2 1.6069 3.0253 0.542061
995 2 2.05664 8.42057 9.2724
996 2 7.29428 1.5462 2.36127
997 2 0.151163 8.2707 6.03407
998 2 4.83434 0.0305513 8.34174