#bin. KALJ data file T=0.5

1000 atoms
2 atom types

0 9.4 xlo xhi
0 9.4 ylo yhi
0 9.4 zlo zhi

Masses

1 1.0
2 1.0

Atoms

1 1 2.32235 7.95864 3.94532
2 1 5.8367 0.680951 6.40022
3 1 6.7854 2.84692 8.10944
4 1 9.08643 4.41794 0.416944
5 1 3.52429 2.177 6.77684
6 1 1.4191 8.61428 2.47279
7 1 4.96367 8.27247 6.87744
8 1 1.05342 5.58188 6.73912
9 1 3.76084 6.02298 0.445327
10 1 6.78389 4.75463 6.53375
11 1 1.69043 2.13874 1.38977
12 1 0.162515 8.31503 3.79374
13 1 8.44182 3.22699 4.37665
14 1 8.49779 3.46218 2.36092
15 1 4.40323 6.23583 2.53686
16 1 5.80765 4.45466 9.33932
17 1 6.33354 6.4389 0.0132483
18 1 7.66075 1.51388 6.95332
19 1 6.58281 2.1935 4.36283
20 1 6.91698 1.15942 6.3882
21 1 1.60284 0.431611 1.79362
22 1 0.846068 4.65654 1.56214
23 1 5.61302 1.37927 4.64936
24 1 3.51481 6.87978 8.27827
25 1 5.09128 5.83326 5.95782
26 1 7.23832 6.08612 8.35953
27 1 8.34781 9.01171 0.949021
28 1 9.13281 2.4225 5.21508
29 1 3.09192 7.0169 1.31126
30 1 1.87573 0.858992 6.31158
31 1 9.1119 7.01914 3.85695
32 1 8.17594 6.19275 7.49486
33 1 4.98946 9.14917 3.88511
34 1 3.42371 6.22637 8.98541
35 1 1.0469 7.94813 0.903023
36 1 6.51243 6.69324 3.66806
37 1 2.49442 3.04291 8.65104
38 1 5.0594 1.64476 6.37939
39 1 6.55924 7.91036 8.54109
40 1 5.07636 2.47838 3.65115
41 1 5.39355 6.29975 0.0522931
42 1 6.71718 8.46274 3.31
43 1 4.41643 0.49852 8.29115
44 1 3.02518 7.41164 0.299874
45 1 6.15623 4.84382 4.54611
46 1 4.59792 -0.0197581 3.03926
47 1 7.70199 2.91212 8.11742
48 1 0.601371 5.85051 8.27516
49 1 2.53083 0.366401 1.41124
50 1 4.59485 8.26382 4.50895
51 1 6.63674 0.471602 2.1756
52 1 7.62097 1.30972 0.679406
53 1 3.21056 7.754 8.17318
54 1 3.20853 4.61149 8.68697
55 1 2.29677 5.17988 1.23955
56 1 3.36494 7.77429 6.80525
57 1 1.3722 6.4143 6.99156
58 1 9.01098 1.80957 2.43429
59 1 8.91055 0.107727 3.32203
60 1 2.42521 7.65577 2.49758
61 1 1.19968 7.69286 4.04259
62 1 1.18982 0.878777 4.11123
63 1 0.927652 1.47835 7.07982
64 1 0.146327 0.913653 0.159847
65 1 3.28169 2.50036 3.38515
66 1 6.10287 4.80307 1.69433
67 1 4.62295 4.16275 5.66724
68 1 6.59038 0.289261 8.83931
69 1 6.21177 3.29372 6.96327
70 1 7.31786 8.64102 1.99589
71 1 3.08398 5.38549 0.743767
72 1 2.21067 0.433426 4.63212
73 1 1.88883 8.10352 0.513491
74 1 0.397874 8.64707 4.73253
75 1 6.29506 8.10309 0.848464
76 1 5.43839 9.37573 4.97682
77 1 3.05541 1.96452 1.55887
78 1 4.21505 1.36075 0.783363
79 1 7.97629 6.74448 6.61055
80 1 1.41659 3.40654 5.556
81 1 4.5707 2.91992 2.80971
82 1 2.63131 1.91344 8.50483
83 1 3.46981 2.77083 9.32613
84 1 7.68687 2.87853 0.967808
85 1 4.56346 4.56856 0.871329
86 1 0.933214 4.70862 6.25973
87 1 2.86748 0.693272 5.21511
88 1 7.34489 1.83254 5.08453
89 1 0.222276 0.025 0.630572
90 1 3.75005 7.33337 4.36266
91 1 1.26725 1.44956 7.94485
92 1 2.79462 4.01985 5.03454
93 1 8.82092 4.6141 7.03764
94 1 4.1909 7.68783 3.39185
95 1 5.73359 7.447 2.36832
96 1 0.983646 1.97623 0.829894
97 1 0.0911936 3.65675 0.834721
98 1 8.13748 7.8055 6.33374
99 1 3.8189 7.79857 0.527775
100 1 3.44595 0.929792 8.78035
101 1 7.8326 7.90631 1.68505
102 1 6.61969 6.73669 6.32386
103 1 0.423138 9.18387 3.98563
104 1 2.53582 1.94056 3.16581
105 1 2.08856 1.13902 5.4516
106 1 4.95278 4.97532 6.15397
107 1 9.29366 2.14954 3.2631
108 1 0.530099 5.29083 0.964302
109 1 4.18242 4.33594 8.63726
110 1 8.19806 3.9086 7.16121
111 1 2.9558 7.79468 1.57667
112 1 4.5363 8.55991 8.81069
113 1 7.93045 1.13338 9.15233
114 1 5.93873 5.62599 5.1907
115 1 1.77666 7.9528 4.57719
116 1 7.30068 6.35645 3.10905
117 1 1.78266 5.7961 5.58076
118 1 2.54034 2.49421 1.03158
119 1 7.5069 7.58245 0.789292
120 1 7.01321 5.02269 1.87745
121 1 7.40426 1.97746 2.93455
122 1 7.4328 8.45418 0.777196
123 1 4.34618 0.404746 7.3161
124 1 6.83329 4.1552 1.75438
125 1 4.10699 6.3758 5.89194
126 1 9.05628 8.83084 6.83345
127 1 3.64216 1.97407 8.8698
128 1 4.66427 5.28544 2.8689
129 1 9.24721 1.56404 9.044
130 1 0.180419 5.5426 3.17075
131 1 0.297962 7.68726 7.94534
132 1 2.60694 6.47846 8.22072
133 1 4.58093 2.95054 1.8554
134 1 4.67688 7.2099 4.79664
135 1 2.55766 6.61059 9.18309
136 1 8.6937 7.1687 9.25956
137 1 7.85963 2.82968 3.24014
138 1 8.08664 3.10255 9.12193
139 1 3.05991 3.6206 2.86121
140 1 3.30879 6.21188 7.72377
141 1 4.97807 7.2545 2.87704
142 1 7.35799 2.17561 0.472157
143 1 9.21555 2.0778 7.4279
144 1 0.566281 2.16772 5.59221
145 1 2.90618 7.75683 4.71315
146 1 8.22414 0.92666 8.31236
147 1 5.44275 1.6509 0.313114
148 1 6.04269 6.8182 7.17125
149 1 9.09326 6.1074 8.86638
150 1 7.08383 7.2595 3.13766
151 1 4.26203 8.87424 1.86858
152 1 1.11353 3.56745 6.98701
153 1 6.76103 0.74339 1.17928
154 1 0.313709 4.49808 8.02145
155 1 8.13151 3.98639 8.87215
156 1 6.9675 9.07334 0.12724
157 1 6.42692 6.96839 2.59125
158 1 0.5492 2.56506 4.53709
159 1 8.95462 6.02935 6.63358
160 1 5.71755 0.883022 9.25079
161 1 5.69866 2.88289 1.71533
162 1 7.49632 8.00112 3.72211
163 1 2.04741 3.8773 7.17516
164 1 5.98708 5.9495 6.12114
165 1 8.40999 1.90046 6.63656
166 1 3.90497 2.27967 1.55779
167 1 5.25767 0.333482 5.72666
168 1 0.120864 3.38509 4.81084
169 1 4.75898 7.01656 5.77289
170 1 2.75673 3.34624 1.11606
171 1 0.0313761 1.33966 3.06631
172 1 7.06265 0.0718641 4.52794
173 1 6.32034 8.59321 7.07799
174 1 6.29446 3.83813 8.0052
175 1 3.9884 7.01121 9.14267
176 1 1.0276 5.63187 4.20312
177 1 0.627761 3.0563 5.57476
178 1 4.49068 2.18173 0.320869
179 1 6.76759 9.37156 7.85963
180 1 1.72153 1.45733 3.64441
181 1 7.81103 8.84025 3.58893
182 1 0.886331 7.94888 8.53285
183 1 1.52331 6.36934 1.44948
184 1 9.29822 3.73051 2.9765
185 1 2.32789 5.00066 8.50943
186 1 3.92093 3.7268 6.38584
187 1 6.16966 6.11091 2.99137
188 1 1.8423 2.34933 8.69953
189 1 9.42471 4.52341 6.20899
190 1 6.46052 0.964217 8.05366
191 1 7.75196 4.76379 2.62346
192 1 2.42273 8.70845 8.17793
193 1 1.07479 7.56189 7.31231
194 1 7.19683 3.12112 7.32215
195 1 0.609276 8.59599 0.0959382
196 1 0.917531 2.5804 1.46794
197 1 1.63443 5.26627 4.88436
198 1 8.42249 7.11215 4.51961
199 1 0.457184 7.20677 0.701558
200 1 5.55411 6.86787 4.95225
201 1 8.58148 1.77276 8.62254
202 1 3.55625 6.17992 3.69236
203 1 8.42312 0.988703 5.40743
204 1 3.48489 5.98535 4.88393
205 1 1.70483 7.93642 6.67723
206 1 9.41678 1.25616 6.89303
207 1 3.94396 1.35038 2.91321
208 1 8.71172 4.40033 1.97232
209 1 6.8033 8.21374 -0.00316251
210 1 2.22811 3.7432 8.09022
211 1 0.340605 7.58241 4.20354
212 1 5.32847 0.538013 4.20529
213 1 0.722726 0.866369 1.03672
214 1 1.35723 3.80717 4.48276
215 1 3.30442 5.1866 7.16231
216 1 2.26622 8.75676 1.08203
217 1 8.28135 6.06898 9.31123
218 1 5.33537 3.34636 3.09978
219 1 5.15417 3.2318 5.17835
220 1 5.5981 2.46263 9.21438
221 1 8.89531 1.65877 1.35433
222 1 7.63294 1.8835 8.58271
223 1 7.61927 1.51869 5.85125
224 1 2.17203 7.30486 5.24226
225 1 4.07218 1.38088 6.51968
226 1 7.5499 8.96379 6.41669
227 1 1.38548 4.71204 0.766583
228 1 6.39782 7.09378 4.42276
229 1 1.76083 2.26518 0.247571
230 1 9.25313 4.08893 5.42293
231 1 1.04327 4.71374 5.40048
232 1 5.47106 7.26741 8.89172
233 1 8.25789 0.529753 1.12936
234 1 0.982887 0.297845 0.206862
235 1 3.61776 9.12245 2.5459
236 1 5.83364 2.95527 8.32598
237 1 8.14076 5.96506 1.06625
238 1 7.215 1.36782 2.16035
239 1 7.68713 3.87816 2.42254
240 1 3.32578 8.53529 4.76013
241 1 2.06403 7.10312 4.29804
242 1 0.945041 1.40012 3.17782
243 1 6.45659 2.08138 6.73965
244 1 0.575601 6.84492 7.58098
245 1 7.34355 4.56597 0.624891
246 1 5.06977 3.94321 0.390709
247 1 6.65523 3.26792 1.99812
248 1 4.36356 0.288329 4.36894
249 1 3.67354 8.48993 5.87113
250 1 9.15829 5.33441 1.79967
251 1 3.74809 4.54074 5.82366
252 1 0.0744542 3.30712 6.66252
253 1 3.76108 2.71943 7.54845
254 1 1.9663 2.04884 7.83987
255 1 3.24915 3.11576 4.7557
256 1 1.26077 3.52684 1.22351
257 1 7.60557 5.93982 2.45991
258 1 1.95894 5.05769 6.00972
259 1 8.79923 5.50864 0.544857
260 1 0.15221 6.25439 1.15958
261 1 6.36506 1.67672 5.11454
262 1 1.80938 7.97955 7.85083
263 1 3.05482 9.32761 0.463206
264 1 2.27929 8.28421 5.41075
265 1 2.33154 1.48439 1.38683
266 1 0.980052 1.98506 8.81299
267 1 5.31135 3.17464 6.77314
268 1 2.15605 4.45362 2.54369
269 1 8.65571 0.789061 2.88121
270 1 7.92436 5.23823 4.4263
271 1 4.6626 0.302802 1.93206
272 1 0.73989 2.73184 6.63344
273 1 4.28117 1.27099 8.99563
274 1 8.65121 4.80758 1.13941
275 1 5.20951 1.78543 7.88031
276 1 0.188645 4.98123 3.90322
277 1 4.92344 5.26872 7.03975
278 1 0.533232 8.70999 1.13682
279 1 3.484 1.07054 4.33502
280 1 0.228908 1.39614 1.94951
281 1 7.30957 3.52733 5.56541
282 1 6.08181 5.56561 0.556769
283 1 6.02271 7.30486 5.57787
284 1 8.13152 2.2314 9.28028
285 1 4.81315 9.30559 9.24396
286 1 7.0646 1.04032 4.18412
287 1 3.34497 4.45927 0.870782
288 1 7.80281 7.35164 9.30839
289 1 7.42629 1.37422 7.85477
290 1 7.33871 6.50559 7.51853
291 1 8.26132 8.68409 7.38447
292 1 6.44909 8.53206 4.37197
293 1 3.84922 7.72979 1.48757
294 1 2.47316 1.01717 3.71802
295 1 8.87195 7.96092 7.44312
296 1 8.2961 4.08233 0.71988
297 1 0.749243 5.9723 2.60828
298 1 3.53718 3.52952 0.477098
299 1 1.01047 7.82279 9.37551
300 1 4.9847 8.16323 2.77181
301 1 1.79222 1.47585 8.63417
302 1 1.54245 7.52872 2.58504
303 1 6.34238 0.361657 0.360185
304 1 9.03076 0.0515168 2.30748
305 1 2.02393 3.0846 1.5522
306 1 7.23487 3.64544 1.13671
307 1 2.49847 2.23822 4.82164
308 1 5.5868 1.14859 3.65944
309 1 6.3187 9.38039 5.34718
310 1 7.77281 0.702489 6.12588
311 1 4.24408 3.52667 8.18386
312 1 4.08493 5.377 1.17825
313 1 8.02462 8.68523 4.8628
314 1 3.86448 7.40437 5.97141
315 1 5.65438 2.79393 0.779597
316 1 5.00264 4.48893 8.75122
317 1 2.93219 8.96331 1.59295
318 1 6.89466 5.33261 0.975857
319 1 5.23294 3.54888 1.21093
320 1 9.01254 1.0172 7.82794
321 1 4.77452 6.67535 0.551619
322 1 0.154 7.55264 7.02788
323 1 4.87025 7.37443 6.87927
324 1 7.63167 2.94679 2.18063
325 1 6.8136 7.97245 1.49021
326 1 2.06582 6.35354 4.87998
327 1 0.524174 7.65497 5.17207
328 1 3.33376 2.79671 8.35172
329 1 2.14804 5.27445 0.21636
330 1 4.73393 7.76303 0.0847457
331 1 4.05928 5.30839 8.52414
332 1 6.29457 0.618773 4.71379
333 1 0.204725 3.40107 8.31407
334 1 5.60397 6.75108 6.14077
335 1 3.3037 3.75483 5.70816
336 1 5.42466 2.47327 6.11484
337 1 7.67325 5.98554 3.94434
338 1 7.70181 2.97389 5.00436
339 1 2.16414 6.48049 6.28238
340 1 4.1151 2.93412 0.823253
341 1 8.57455 3.4361 8.11644
342 1 2.18742 7.47116 9.20184
343 1 3.03275 4.47687 3.10456
344 1 5.07208 4.0955 4.68302
345 1 9.33896 3.14094 1.66734
346 1 2.36249 7.09433 1.85959
347 1 2.25522 5.27615 7.53521
348 1 2.66856 8.13809 9.01158
349 1 4.19489 1.23824 1.75219
350 1 3.33399 3.89339 8.26096
351 1 8.00584 6.88974 1.46081
352 1 1.18221 1.42409 5.42743
353 1 2.3841 3.4764 5.58571
354 1 0.942002 3.85592 7.8553
355 1 0.0977812 2.94481 2.53777
356 1 1.77845 6.49768 2.34818
357 1 3.16921 9.2915 6.50938
358 1 5.79214 6.40501 0.841369
359 1 2.81845 2.26443 7.57238
360 1 7.72089 5.41702 7.84068
361 1 0.81755 3.14333 0.300807
362 1 4.83998 2.59961 4.57071
363 1 3.80073 4.07838 2.35671
364 1 5.39849 3.97385 3.72273
365 1 2.39827 7.4089 8.27536
366 1 2.64402 0.768224 9.07863
367 1 5.70154 0.423311 2.48578
368 1 7.61268 0.340064 0.423589
369 1 5.56426 6.6544 3.4634
370 1 6.33285 0.64738 3.62106
371 1 1.3337 8.60646 1.49187
372 1 3.87976 7.97844 8.78819
373 1 0.588385 4.10727 8.91151
374 1 2.41493 3.22374 4.76981
375 1 8.54076 3.94399 3.65081
376 1 0.38455 4.9972 8.77833
377 1 5.55714 7.80582 6.20818
378 1 5.81284 5.36227 8.98497
379 1 2.52592 5.86909 2.77404
380 1 5.97582 4.74736 8.08675
381 1 8.89783 8.17515 3.25938
382 1 5.44305 2.16033 5.14301
383 1 2.6145 5.12774 2.261
384 1 3.76254 3.40681 3.46679
385 1 0.743395 5.06569 2.50064
386 1 8.64631 3.06701 3.19508
387 1 7.99489 7.20818 7.33721
388 1 5.67218 8.69391 6.26094
389 1 8.89537 8.03067 2.16789
390 1 6.43173 2.10115 0.580313
391 1 2.67969 8.39678 6.29745
392 1 7.81515 4.32561 1.46353
393 1 9.12599 7.05044 5.59502
394 1 5.90268 3.21141 5.9424
395 1 5.96251 6.20429 4.53447
396 1 7.42793 0.652376 2.73901
397 1 7.47342 8.08355 6.83215
398 1 4.72027 7.09782 1.36338
399 1 3.32525 2.26754 4.25053
400 1 5.378 1.72435 2.90141
401 1 8.17455 0.890681 7.29608
402 1 8.5276 7.14865 2.28159
403 1 1.0024 7.90881 1.932
404 1 5.22133 1.30653 2.03149
405 1 6.6541 5.01694 0.0955201
406 1 5.04462 7.78044 1.88058
407 1 5.02745 8.95538 1.4634
408 1 1.24592 6.5327 8.02942
409 1 8.89367 4.9007 3.28842
410 1 7.79209 4.57238 5.12195
411 1 0.04736 8.51256 7.65871
412 1 3.93589 4.24623 4.96098
413 1 1.21311 4.36433 2.24798
414 1 4.94847 0.869358 0.247814
415 1 5.08452 8.3063 3.64006
416 1 1.81549 3.27533 6.45561
417 1 4.8344 1.5647 4.05217
418 1 8.89104 9.08493 8.33227
419 1 6.55443 3.77992 6.25963
420 1 2.91731 4.63889 7.74656
421 1 3.69051 7.40642 2.54659
422 1 5.11521 3.51422 8.66929
423 1 1.68025 8.84864 7.1689
424 1 6.73655 5.89153 2.20782
425 1 8.38316 5.38058 7.13421
426 1 8.36353 8.02313 5.25634
427 1 6.01 8.42597 2.57261
428 1 8.61866 1.00693 6.47052
429 1 1.44764 2.4702 4.23667
430 1 1.70068 2.50931 6.97881
431 1 8.95196 5.19016 8.98711
432 1 5.23452 2.44202 2.37365
433 1 1.6057 0.461345 7.00606
434 1 0.777404 8.31688 5.96529
435 1 2.45718 6.42547 0.809751
436 1 4.29016 4.16142 4.08638
437 1 8.1008 0.255053 4.90097
438 1 1.73742 6.11867 0.347279
439 1 6.21339 3.83891 8.83266
440 1 1.02282 9.07256 8.80124
441 1 3.80903 5.32139 3.52671
442 1 0.916578 6.24056 0.731587
443 1 5.43791 8.97848 2.28819
444 1 7.90073 4.59064 8.25238
445 1 0.934026 8.29868 3.20066
446 1 4.78372 4.07926 6.6818
447 1 5.47059 3.58822 7.61903
448 1 0.0667411 5.97324 4.96464
449 1 3.24133 4.14995 4.02661
450 1 7.99821 1.39529 1.75794
451 1 3.05757 7.90985 5.59967
452 1 1.05552 5.35045 3.37868
453 1 5.275 5.06656 0.43216
454 1 5.68213 1.37759 7.08911
455 1 1.51216 2.53203 5.22099
456 1 9.19334 0.440165 4.63044
457 1 7.35725 5.3362 3.42512
458 1 4.19963 2.13023 8.24719
459 1 2.65964 2.4168 2.23237
460 1 4.11255 6.28234 1.68071
461 1 6.71672 7.84539 2.47369
462 1 1.21829 5.07974 8.94629
463 1 1.01284 0.937873 2.33922
464 1 5.72904 5.32636 2.83622
465 1 1.18651 0.0415334 7.83322
466 1 5.16214 0.878748 7.66459
467 1 4.23144 5.29287 4.42062
468 1 4.04596 8.72271 3.40919
469 1 0.0145912 4.36889 1.25957
470 1 3.66627 4.95767 2.58468
471 1 5.24888 0.973432 8.49623
472 1 6.91426 1.38539 3.4101
473 1 7.85962 4.56115 3.87028
474 1 7.94175 2.66633 7.1624
475 1 5.80909 4.27234 0.993949
476 1 3.95788 8.9658 4.24473
477 1 7.32984 2.17339 6.4699
478 1 5.51414 8.44319 0.49783
479 1 0.913444 5.64699 5.81905
480 1 1.4989 4.34565 3.51311
481 1 0.639647 6.7579 5.57217
482 1 9.25029 2.43189 0.937669
483 1 3.36942 5.89004 2.68179
484 1 9.0746 2.93043 7.55262
485 1 2.62554 0.860901 0.738596
486 1 6.6951 4.01783 2.62827
487 1 9.25701 1.9571 4.32192
488 1 1.75651 6.17491 3.37804
489 1 2.58773 6.93327 2.83358
490 1 6.88116 3.39287 4.79576
491 1 4.83212 0.835402 5.14277
492 1 0.611637 6.68964 3.10097
493 1 1.42242 7.16019 0.533879
494 1 9.23288 3.29119 3.91647
495 1 2.57792 3.50226 2.1012
496 1 6.30215 4.78629 3.63785
497 1 0.156255 7.40525 9.25727
498 1 2.67264 1.33352 4.54441
499 1 0.0878983 8.01957 1.50765
500 1 7.86768 6.21095 4.91248
501 1 8.60094 8.17404 1.22538
502 1 7.14245 1.02824 8.6905
503 1 5.11372 4.80573 5.28683
504 1 3.55244 5.17159 9.38842
505 1 4.25893 5.52979 5.48259
506 1 8.86748 8.93756 4.14354
507 1 1.74862 1.28479 0.7764
508 1 9.18189 6.10257 7.95855
509 1 1.03969 8.44089 7.81659
510 1 0.772061 2.0389 2.45987
511 1 0.0507543 3.40403 9.1835
512 1 8.06106 2.71496 5.95922
513 1 0.821261 1.69175 4.68314
514 1 8.27633 3.50054 5.4135
515 1 3.45888 8.0785 3.98409
516 1 0.751782 5.8156 1.71076
517 1 4.0177 1.73059 4.40619
518 1 8.08909 8.58914 8.4885
519 1 4.24248 8.99511 6.33107
520 1 4.24862 7.83967 5.31201
521 1 8.57046 6.7444 0.670414
522 1 6.00348 9.29283 3.99851
523 1 0.0866647 5.93733 5.93112
524 1 5.99632 0.51016 7.39074
525 1 7.70222 5.33683 8.80541
526 1 9.25711 0.282423 6.63876
527 1 5.29147 6.24961 2.48856
528 1 6.59098 2.87739 6.3445
529 1 7.37632 0.547373 7.05301
530 1 2.45417 5.9624 1.88677
531 1 9.37831 5.18576 7.59887
532 1 5.11154 5.55338 2.03827
533 1 0.190643 1.62784 0.779
534 1 1.70376 3.54894 2.40787
535 1 9.08801 6.93294 7.46496
536 1 3.41005 1.19815 5.86237
537 1 5.33936 4.65158 2.05631
538 1 1.63244 7.40383 1.46233
539 1 0.749017 8.37311 6.99618
540 1 3.09095 1.21407 6.89065
541 1 2.41634 4.32861 0.822883
542 1 8.22922 1.85545 7.79787
543 1 6.79387 7.21182 0.497142
544 1 1.53646 2.65076 2.2099
545 1 6.99695 4.53627 7.98887
546 1 1.60294 4.27515 8.64127
547 1 7.28331 3.94577 7.11357
548 1 6.48362 4.65839 5.42297
549 1 7.00512 6.30064 4.67677
550 1 5.41624 8.57823 4.47795
551 1 3.05331 3.72404 9.08669
552 1 7.28163 2.68057 8.92811
553 1 3.37634 6.01884 1.29735
554 1 8.68432 6.25166 4.37737
555 1 4.78143 6.27977 5.1748
556 1 0.472598 0.190159 1.76967
557 1 7.58273 0.49635 7.92226
558 1 6.69438 0.0879738 6.24216
559 1 8.58035 8.75028 6.00569
560 1 2.46343 4.95474 5.25416
561 1 2.7817 0.34486 8.22475
562 1 3.798 0.435727 6.59978
563 1 5.27592 5.54714 4.66206
564 1 2.51601 6.24322 3.82676
565 1 5.88508 5.68118 7.94451
566 1 8.69298 3.86133 6.32226
567 1 7.29138 6.87966 2.13097
568 1 6.73447 5.5566 4.00402
569 1 0.130152 2.5094 9.34261
570 1 1.42514 1.76141 6.13473
571 1 7.74834 7.77271 4.59364
572 1 1.86276 0.00861408 2.80025
573 1 3.83577 0.820846 5.14937
574 1 0.153614 1.10437 4.02586
575 1 1.89576 3.1323 0.705917
576 1 4.3696 0.7471 5.90905
577 1 2.47106 7.59804 6.28896
578 1 6.51422 7.78108 3.78981
579 1 8.63516 1.31628 0.276216
580 1 0.604739 4.36212 3.06676
581 1 8.71024 5.40033 8.09803
582 1 4.37287 2.09719 7.07139
583 1 1.43674 4.50515 6.95315
584 1 9.03493 0.723195 8.81601
585 1 4.54703 7.16523 8.46448
586 1 0.511038 0.514713 3.25053
587 1 7.49891 7.10095 5.22249
588 1 9.33297 3.84992 7.42311
589 1 2.50923 8.75293 2.73619
590 1 0.50032 0.704236 7.48485
591 1 0.436063 7.60611 2.90726
592 1 4.49385 3.74412 3.22573
593 1 2.37677 2.99991 7.34104
594 1 2.57205 5.69255 4.55931
595 1 1.58976 4.16553 6.04882
596 1 2.52054 3.90095 3.58959
597 1 6.6729 2.6934 1.15243
598 1 3.61966 5.39118 6.31013
599 1 0.170742 9.01645 6.04644
600 1 4.51458 8.87796 7.49288
601 1 0.860818 3.57764 2.8832
602 1 0.259132 5.70233 0.18973
603 1 3.89521 0.30136 0.102103
604 1 9.3119 8.0372 6.18294
605 1 1.23233 9.23002 3.51116
606 1 7.66054 3.79387 0.245063
607 1 5.14444 6.52687 4.20865
608 1 5.95566 8.10147 1.69147
609 1 6.27788 2.58815 5.23664
610 1 4.53427 0.351934 0.962882
611 1 6.84094 7.18509 8.94002
612 1 3.36255 3.03097 6.79198
613 1 4.59943 8.12147 7.92631
614 1 7.00061 5.48456 5.23521
615 1 0.941724 5.09511 7.53985
616 1 2.06441 6.27489 7.44163
617 1 6.29838 9.23801 2.89121
618 1 7.12553 4.39143 3.29115
619 1 8.20446 0.385333 2.23827
620 1 2.08676 4.97659 3.16034
621 1 8.94655 7.04368 8.41358
622 1 1.70417 8.43717 8.78981
623 1 7.44086 0.930234 5.1016
624 1 3.37232 1.86792 5.08017
625 1 8.15705 8.95395 1.8325
626 1 3.44945 1.69656 7.65404
627 1 4.01631 8.36234 2.57453
628 1 3.79005 8.72823 9.26957
629 1 5.78737 1.62072 5.81912
630 1 1.61298 2.24223 3.17608
631 1 1.53551 5.58815 2.64946
632 1 7.37315 9.31622 5.55418
633 1 0.592066 7.45323 6.09414
634 1 2.06336 4.20594 4.35439
635 1 2.85186 4.56034 5.95666
636 1 2.69803 0.356916 2.72899
637 1 8.6633 5.14036 5.18895
638 1 4.59929 3.8313 1.85118
639 1 8.18367 0.334907 3.95841
640 1 1.39558 0.512088 5.45436
641 1 8.34228 0.0691221 6.9276
642 1 0.756121 4.12873 0.395562
643 1 1.05913 8.60771 4.08151
644 1 3.32037 7.15485 3.50756
645 1 7.84411 1.49616 4.45195
646 1 0.157837 0.120885 9.17832
647 1 5.38992 6.01557 7.03548
648 1 4.15776 6.82787 3.68297
649 1 0.183602 0.449746 5.65209
650 1 0.62857 3.73419 6.14667
651 1 7.02578 3.01305 0.37046
652 1 2.4865 4.5312 9.31927
653 1 2.20623 9.24012 6.51104
654 1 4.26877 0.962329 3.7255
655 1 2.99703 8.97017 8.88272
656 1 3.27586 1.35414 0.198311
657 1 7.47383 8.12356 5.54172
658 1 5.46487 0.248299 3.29359
659 1 6.69228 1.96603 9.11214
660 1 6.40423 2.79517 8.98421
661 1 0.22625 5.12531 5.4232
662 1 6.48176 0.917627 5.52761
663 1 6.47666 6.50314 5.42108
664 1 3.95608 6.74446 0.880997
665 1 8.78145 1.82084 5.82751
666 1 3.64553 0.363447 1.40263
667 1 8.80797 7.28487 1.43032
668 1 6.22419 1.22085 1.67691
669 1 7.43534 4.51152 9.14661
670 1 6.69295 1.30602 0.207744
671 1 6.51986 2.79254 3.51965
672 1 1.44401 8.90791 0.526055
673 1 2.73861 0.62177 6.1218
674 1 9.35875 6.87954 4.68505
675 1 2.18762 8.77388 4.5253
676 1 4.35019 4.84184 2.00715
677 1 7.43554 8.09436 8.73566
678 1 3.17533 1.42369 3.51801
679 1 4.90677 7.31039 3.81279
680 1 8.25058 7.59164 3.42221
681 1 5.76131 4.18864 6.45172
682 1 0.242375 4.06851 3.93487
683 1 4.1505 2.5262 5.10722
684 1 6.58706 1.9771 2.77172
685 1 4.93339 6.14032 1.2106
686 1 0.661597 2.69188 3.24039
687 1 8.57258 6.06603 5.5136
688 1 2.73575 5.77452 9.19481
689 1 4.58891 5.8314 0.159605
690 1 8.83455 8.93198 9.26525
691 1 5.07082 1.82736 8.85414
692 1 6.92538 3.93503 4.09311
693 1 5.87432 3.83633 2.21418
694 1 1.64128 0.608534 3.3895
695 1 1.08232 2.37319 7.82318
696 1 4.24463 6.21538 4.40471
697 1 5.11081 6.36227 8.39655
698 1 4.16572 6.08747 8.44121
699 1 4.28963 2.29708 3.40145
700 1 6.91517 1.6525 1.24455
701 1 7.11256 4.83244 4.51198
702 1 0.960244 0.00501777 2.63599
703 1 4.16231 4.76819 6.83957
704 1 8.03118 7.6548 8.25085
705 1 6.1286 8.89172 8.94878
706 1 5.69317 5.80723 3.70383
707 1 1.16225 6.89625 9.14645
708 1 3.82594 4.36982 0.112701
709 1 3.82034 6.81411 5.07063
710 1 8.53772 6.17553 1.89546
711 1 7.91055 8.98349 0.0429957
712 1 0.736236 3.20848 2.05814
713 1 0.280223 4.13415 2.20748
714 1 8.09582 6.70041 3.48337
715 1 3.20076 8.27109 2.26721
716 1 0.559053 3.0109 7.43195
717 1 7.50401 3.84979 7.99205
718 1 1.52649 9.01935 5.03677
719 1 0.127409 5.84026 4.10195
720 1 7.75729 3.72082 3.35464
721 1 0.900163 6.93206 2.27418
722 1 8.34017 6.17451 8.45117
723 1 8.9682 7.93187 4.64577
724 1 0.386164 1.50961 8.2078
725 1 3.64328 3.63123 7.40303
726 1 6.31184 3.5606 1.0873
727 1 4.65832 8.88706 0.548995
728 1 4.44478 7.1181 2.142
729 1 6.41654 8.91467 1.93033
730 1 3.75794 4.54122 7.86719
731 1 2.49529 0.210119 7.39253
732 1 6.09612 3.94321 4.43288
733 1 8.58873 5.44654 6.1708
734 1 5.89004 8.32725 5.42484
735 1 2.23437 8.89499 3.60779
736 1 0.983379 6.16756 5.01146
737 1 7.72302 3.89776 4.51127
738 1 1.91527 8.21749 3.18847
739 1 3.71935 9.09106 8.35175
740 1 8.88504 0.888575 1.89359
741 1 7.70243 6.81533 8.51095
742 1 6.16424 5.75613 1.48915
743 1 6.86571 5.33095 7.59392
744 1 3.61251 0.684657 7.85021
745 1 6.07874 2.88285 2.70189
746 1 0.589509 1.99358 3.81415
747 1 8.66713 0.231498 5.84648
748 1 2.21105 2.99287 3.00751
749 1 2.37724 1.53035 0.1519
750 1 1.0769 4.69986 4.14983
751 1 8.65173 5.33874 2.48171
752 1 3.95317 7.37486 7.40934
753 1 9.13724 0.841687 1.00536
754 1 8.61616 3.05006 6.69056
755 1 4.47821 1.9215 2.31027
756 1 4.32354 1.32879 7.72837
757 1 4.03767 8.30978 6.91745
758 1 7.33631 2.10097 3.91979
759 1 5.25342 4.89443 3.63163
760 1 2.7328 4.86406 4.38461
761 1 2.95098 3.22612 3.89208
762 1 7.72873 5.34183 5.74613
763 1 8.1938 0.246405 8.79856
764 1 3.42811 2.70607 5.76488
765 1 4.8246 2.8155 7.95623
766 1 4.77686 0.93015 2.88262
767 1 1.20383 6.48231 6.15743
768 1 5.18946 0.044716 7.84176
769 1 8.36746 8.61944 2.59783
770 1 4.23364 3.63115 9.17747
771 1 6.95601 5.6235 6.17746
772 1 4.18831 9.20932 5.10282
773 1 3.69875 8.96902 0.935815
774 1 5.3148 7.47462 7.92764
775 1 7.22509 2.18812 7.44963
776 1 2.28995 1.51349 7.1144
777 1 1.1949 0.0932101 4.33066
778 1 3.16606 8.10916 3.12459
779 1 8.47173 4.5166 5.80238
780 1 1.02266 9.21236 6.36888
781 1 6.5956 2.04379 5.89631
782 1 6.85428 6.91944 1.35952
783 1 4.79817 3.39352 6.03085
784 1 8.25524 7.11596 5.62811
785 1 4.06505 2.99031 4.29695
786 1 4.91266 8.39883 5.361
787 1 7.25278 0.343177 3.47569
788 1 5.72212 1.95329 1.22955
789 1 9.10047 3.2221 5.72484
790 1 7.29504 9.22789 1.29005
791 1 8.68314 1.10986 3.88461
792 1 2.47056 5.6971 6.61028
793 1 0.677682 9.37588 5.18693
794 1 7.5435 6.5258 0.376927
795 1 1.85949 0.627421 7.98203
796 1 0.715847 3.89375 5.20293
797 1 1.65541 3.162 3.66085
798 1 3.98077 6.84908 6.71233
799 1 0.172039 2.2701 1.81449
800 1 5.42523 7.45203 0.894339
801 2 3.18197 6.76057 2.17641
802 2 2.48881 2.57392 5.937
803 2 0.258795 2.50114 8.28018
804 2 3.74604 3.6379 1.56985
805 2 7.90051 7.73431 2.5764
806 2 5.17459 1.12941 1.09648
807 2 3.69193 0.432206 3.33635
808 2 9.07517 0.0570532 7.55694
809 2 3.4963 0.224958 5.7653
810 2 2.44746 4.70382 6.8082
811 2 7.3061 8.5874 4.36817
812 2 2.58495 2.95027 0.224618
813 2 5.77221 7.95084 3.26144
814 2 0.567633 9.19711 7.18801
815 2 5.83036 3.52676 0.268334
816 2 3.65143 2.18193 0.621413
817 2 3.55546 8.8816 7.39342
818 2 5.7771 4.34759 2.99212
819 2 5.90861 6.61713 1.88548
820 2 2.95087 8.91803 5.39989
821 2 4.54597 7.91005 6.26469
822 2 0.944626 2.95646 8.81763
823 2 2.92594 1.47692 2.44841
824 2 3.48442 4.97071 5.08372
825 2 2.62187 2.26127 6.70666
826 2 7.09625 3.63297 8.92355
827 2 2.95177 5.44031 3.65018
828 2 5.81835 3.96276 5.36545
829 2 2.58685 1.60311 6.04959
830 2 1.58858 0.375493 0.891841
831 2 8.35295 4.68369 9.35142
832 2 0.23742 5.30992 6.49101
833 2 6.11713 7.53341 0.02845
834 2 6.78644 1.87098 8.24074
835 2 7.4046 6.34314 5.6904
836 2 0.439722 4.60491 7.02844
837 2 6.09143 7.30777 1.34264
838 2 4.88559 0.789484 6.77345
839 2 2.24272 0.0417888 5.48685
840 2 9.22125 8.31998 8.61005
841 2 4.34704 6.04954 6.72792
842 2 8.7908 0.262615 0.449094
843 2 7.69448 3.50298 6.37257
844 2 6.03229 1.22776 2.53879
845 2 3.03463 5.43929 8.21784
846 2 5.99547 6.39862 8.64493
847 2 1.76677 3.45278 9.18015
848 2 2.86445 6.66727 7.09802
849 2 7.03232 3.15708 2.92076
850 2 5.78649 0.337264 1.57719
851 2 6.69518 1.41933 7.2162
852 2 0.23039 4.63662 4.67373
853 2 1.84901 1.86012 2.32526
854 2 2.96958 6.98227 5.80169
855 2 2.9082 6.82673 4.55368
856 2 0.191253 8.73247 2.23983
857 2 8.84215 6.34666 3.01022
858 2 0.332162 1.35991 6.05859
859 2 5.8851 4.97292 6.1111
860 2 5.78658 7.75764 4.3757
861 2 5.68927 3.14703 4.15123
862 2 2.21881 8.85014 0.0807102
863 2 4.59935 1.79396 5.38317
864 2 7.32087 9.0369 8.68767
865 2 9.35632 6.86364 2.4551
866 2 2.21714 8.32107 1.99446
867 2 8.30785 2.36531 3.87555
868 2 1.54693 7.40032 5.93089
869 2 4.07936 5.60455 7.60794
870 2 7.96694 5.39891 1.84776
871 2 1.84849 0.67668 0.0408405
872 2 6.64236 5.35934 8.6089
873 2 7.69321 5.74717 6.73436
874 2 7.10548 5.92359 9.27222
875 2 4.43167 3.21705 7.0279
876 2 4.80125 3.34179 4.0879
877 2 1.38213 8.10298 5.30978
878 2 6.23902 2.2522 7.63462
879 2 6.30747 7.64101 7.62181
880 2 6.67737 6.08877 6.96603
881 2 6.06521 5.29698 6.92968
882 2 5.39881 5.20165 1.30817
883 2 0.958373 6.01844 9.04256
884 2 4.40209 4.9705 9.22165
885 2 1.59259 3.09507 7.86163
886 2 8.3298 8.24298 4.09789
887 2 5.90213 8.53578 7.85998
888 2 6.03388 1.07117 0.783919
889 2 2.96076 8.36199 0.599798
890 2 1.13945 1.48035 1.63664
891 2 8.63116 3.0363 0.483771
892 2 7.32388 7.0558 4.15101
893 2 3.28033 4.27079 6.72934
894 2 0.276798 6.0587 7.15272
895 2 4.62199 5.8254 3.62105
896 2 8.28473 2.14959 0.840738
897 2 6.27982 7.65781 6.67916
898 2 3.51631 2.2593 2.52948
899 2 7.87732 5.23629 0.481905
900 2 8.06826 1.40373 2.62794
901 2 8.24989 8.17773 0.244767
902 2 7.47884 4.3836 5.97815
903 2 4.91727 5.53995 7.83761
904 2 8.63248 2.50091 1.60172
905 2 0.82413 3.34819 3.91436
906 2 3.43839 4.95982 1.73743
907 2 7.57983 8.46463 2.84435
908 2 8.89822 9.0467 5.08725
909 2 3.40249 0.793261 2.2437
910 2 5.55345 4.53981 7.24477
911 2 4.88719 3.02931 0.277108
912 2 2.83153 8.26126 7.49289
913 2 1.8516 4.15659 1.53601
914 2 2.4107 7.55675 0.947747
915 2 8.86069 2.63097 8.77332
916 2 2.06932 1.01911 2.66209
917 2 4.23011 2.23353 6.08174
918 2 6.98896 7.15639 7.05995
919 2 0.646584 0.830338 4.91708
920 2 8.54914 3.40306 1.34729
921 2 3.89303 4.40118 3.34446
922 2 6.62357 3.99059 0.286222
923 2 1.96653 7.235 3.38221
924 2 1.00522 1.35097 0.205784
925 2 9.26258 8.39481 0.512161
926 2 5.47967 0.248401 0.672561
927 2 4.63644 8.13907 1.08011
928 2 1.37105 6.68511 4.01684
929 2 8.26607 2.20864 4.95435
930 2 6.36041 4.26142 7.17476
931 2 9.12838 8.95825 1.44705
932 2 9.09981 4.26168 8.84892
933 2 2.14491 7.27157 7.19604
934 2 2.75331 5.98779 5.54062
935 2 0.535806 6.78753 8.54392
936 2 1.52616 5.6937 8.07992
937 2 1.88806 4.29205 5.25684
938 2 1.74042 8.60232 6.03658
939 2 7.20041 7.35074 7.90687
940 2 5.36043 2.3028 7.15111
941 2 3.39364 3.03002 2.10828
942 2 9.36005 1.50008 5.21502
943 2 5.65187 2.23684 4.27644
944 2 1.82337 1.67518 4.71367
945 2 2.01081 9.34024 8.73555
946 2 6.26263 3.69969 3.46424
947 2 2.96462 4.2331 1.74568
948 2 6.05144 1.50852 8.7129
949 2 8.87754 7.6184 0.575861
950 2 3.18463 8.94442 3.40892
951 2 1.06398 0.855712 8.75098
952 2 6.63161 7.9208 5.03415
953 2 3.31701 6.2399 6.448
954 2 6.73125 2.32452 1.94461
955 2 4.04269 3.36516 5.14899
956 2 6.13817 1.80141 3.55692
957 2 1.79896 5.01907 1.92907
958 2 5.28211 9.15921 6.95081
959 2 1.33349 7.08536 4.97721
960 2 7.86187 1.30941 3.55253
961 2 4.3818 6.49571 7.54484
962 2 8.37983 5.74534 3.42734
963 2 6.77816 8.63294 5.71128
964 2 3.34495 0.118755 4.76644
965 2 0.966903 0.809008 6.37047
966 2 0.232575 8.97572 3.09288
967 2 2.81972 0.180031 3.92151
968 2 1.87741 6.27678 8.75288
969 2 8.59274 4.54758 4.48726
970 2 9.29334 2.2164 6.47494
971 2 5.51986 8.13663 8.99453
972 2 6.54955 6.64294 7.94533
973 2 1.42726 5.49438 1.1934
974 2 7.23358 6.16018 1.38809
975 2 7.26075 2.60764 5.63357
976 2 7.22833 7.3747 6.15634
977 2 6.67492 5.11098 2.8078
978 2 7.56296 0.549403 1.62964
979 2 4.92325 4.13802 2.63039
980 2 4.8557 2.40743 1.12378
981 2 7.70676 3.08823 4.01727
982 2 4.79528 4.18135 7.6268
983 2 5.71779 0.204483 8.59228
984 2 0.252906 6.55443 0.0526316
985 2 3.48318 1.19342 1.16173
986 2 7.19788 8.4403 7.71506
987 2 1.95924 5.46976 4.04769
988 2 0.372635 0.0960798 8.23212
989 2 2.40545 2.3958 3.94006
990 2 8.84687 7.17522 6.60591
991 2 4.43193 2.75835 8.83824
992 2 7.6029 4.75428 6.75795
993 2 3.724 6.62524 2.87265
994 2 7.69996 2.28608 1.57693
995 2 1.93707 4.53318 7.86613
996 2 8.84104 4.48192 7.99693
997 2 6.09431 8.8957 1.06542
998 2 8.29456 2.31869 2.47052