#bin. KALJ data file T=0.5

1000 atoms
2 atom types

0 9.4 xlo xhi
0 9.4 ylo yhi
0 9.4 zlo zhi

Masses

1 1.0
2 1.0

Atoms

1 1 0.195244 3.26788 8.8291
2 1 5.00445 6.91775 9.16755
3 1 4.28581 6.72859 5.77159
4 1 5.77719 4.05206 2.28862
5 1 6.26968 2.09613 8.0312
6 1 8.472 6.09348 8.82476
7 1 0.288806 7.39096 7.1348
8 1 1.43249 2.81055 0.920656
9 1 7.60915 4.50305 3.6035
10 1 4.7607 5.58891 0.39413
11 1 0.153306 2.15464 2.31319
12 1 2.65197 7.95787 0.669247
13 1 4.67189 4.39489 7.47257
14 1 2.8868 1.73523 5.89027
15 1 2.51992 6.65041 4.14172
16 1 5.12258 8.70502 7.72965
17 1 8.23951 4.81743 4.17211
18 1 5.3826 9.00393 4.49642
19 1 6.03766 3.89256 8.50051
20 1 1.017 2.36144 2.78987
21 1 3.92847 3.72947 0.643422
22 1 5.50166 4.48483 7.21054
23 1 4.86455 3.32935 0.222612
24 1 3.85027 6.72772 8.39276
25 1 1.85952 5.69869 0.57523
26 1 8.6609 8.40579 5.75439
27 1 4.27742 8.68908 2.10455
28 1 5.9082 0.671793 5.49913
29 1 7.08741 7.07852 1.28178
30 1 1.27009 7.04991 1.26871
31 1 2.73506 5.35589 5.39316
32 1 5.58506 8.57099 0.475789
33 1 4.52763 2.5087 2.4481
34 1 2.90604 6.01149 4.86007
35 1 8.5352 0.117034 4.74047
36 1 4.75608 2.98729 7.59122
37 1 8.61506 0.174256 7.7156
38 1 8.61285 5.83289 7.78735
39 1 6.22 0.191441 4.79332
40 1 7.30235 5.8037 1.73254
41 1 6.99344 2.39157 4.17788
42 1 1.48514 2.17174 1.72157
43 1 0.580582 2.933 0.551725
44 1 7.84767 2.3918 5.99052
45 1 3.80783 2.17473 6.78277
46 1 8.36197 2.35407 6.75083
47 1 4.22928 5.81965 1.30284
48 1 3.92818 4.70012 7.98408
49 1 7.70529 6.75219 8.83513
50 1 8.1408 0.793863 6.88486
51 1 8.88959 8.18917 1.69383
52 1 9.3788 4.96879 5.16849
53 1 4.39875 3.37121 2.28145
54 1 1.63117 9.23591 2.2344
55 1 8.93719 9.12469 1.08167
56 1 7.95453 9.01098 5.2505
57 1 0.90291 4.33959 0.788605
58 1 8.46546 3.9477 7.99316
59 1 7.65769 9.17263 2.21206
60 1 3.81038 7.81422 5.2867
61 1 9.22363 7.49157 0.778164
62 1 4.5541 0.102503 7.64171
63 1 0.649869 7.37328 5.14799
64 1 3.86051 8.35119 7.4453
65 1 5.23544 6.7732 6.40183
66 1 4.04837 9.05014 9.14452
67 1 8.17253 6.36612 3.04433
68 1 8.86297 5.59355 0.170471
69 1 2.84045 1.3807 1.05223
70 1 1.86839 8.21167 3.97422
71 1 3.27154 4.44035 4.53271
72 1 9.01344 6.30692 2.65707
73 1 5.40185 2.53464 0.289484
74 1 1.12911 8.86099 4.08484
75 1 3.05299 5.39746 6.58085
76 1 2.24128 8.63276 0.275476
77 1 6.73372 5.99643 3.77832
78 1 5.4036 4.92404 1.90795
79 1 3.88812 2.57105 5.89323
80 1 7.424 8.68609 3.82984
81 1 4.57879 4.24282 0.277525
82 1 0.972198 2.54841 8.09286
83 1 2.30036 4.58214 7.54756
84 1 6.66303 7.68632 6.19784
85 1 7.90332 2.04553 4.17127
86 1 1.17186 3.54838 2.83205
87 1 1.10804 7.93962 5.68864
88 1 7.35307 6.82631 4.50401
89 1 6.02169 2.99271 6.90382
90 1 4.13696 2.20064 4.17517
91 1 6.44644 5.85151 2.46402
92 1 7.12409 9.15062 9.30935
93 1 1.93653 7.47281 0.721014
94 1 8.05449 9.00914 6.21823
95 1 0.137086 3.86717 4.938
96 1 0.461447 7.74262 1.49975
97 1 8.59857 7.35081 2.36188
98 1 2.81498 3.47436 7.13
99 1 3.20526 1.57189 7.37125
100 1 1.61487 0.123306 8.39091
101 1 3.35184 4.35738 1.86165
102 1 2.70301 3.64646 2.12463
103 1 2.84179 0.814933 5.87955
104 1 4.19769 3.94157 6.71591
105 1 5.17591 3.59208 7.00227
106 1 1.50151 2.84683 9.34397
107 1 3.33543 1.19409 0.0558804
108 1 8.49305 6.81214 0.140631
109 1 7.394 3.80337 5.47145
110 1 7.1408 3.0966 4.81872
111 1 8.21995 8.25016 6.95824
112 1 0.0752409 7.09152 2.47872
113 1 2.32835 7.45502 1.73337
114 1 6.56782 4.73 5.5838
115 1 1.3085 7.23226 8.28301
116 1 8.12 9.24657 8.68178
117 1 3.59003 2.95738 0.279237
118 1 3.53475 3.35553 2.08168
119 1 9.10273 4.87544 7.812
120 1 6.00643 7.65668 5.08115
121 1 2.62763 7.66368 8.33774
122 1 4.77864 2.10551 8.99323
123 1 1.71498 0.238636 4.27773
124 1 7.64005 3.38244 7.80442
125 1 6.55651 1.28984 4.06554
126 1 3.38238 5.95212 5.87397
127 1 3.71526 7.00993 2.70788
128 1 0.198445 6.66946 0.72928
129 1 2.97134 6.72504 8.50859
130 1 0.725754 3.53695 1.37205
131 1 7.13695 4.73279 1.28879
132 1 5.23614 8.28134 5.06949
133 1 3.03884 6.9603 6.12782
134 1 0.115663 2.63463 3.25964
135 1 5.1045 7.35699 1.57391
136 1 4.35534 5.79742 3.55412
137 1 3.09266 8.34706 5.04928
138 1 5.47367 0.482515 7.78469
139 1 5.7121 0.778277 3.81577
140 1 4.96993 1.26436 3.06901
141 1 5.8122 6.69882 2.55522
142 1 1.03524 8.68145 1.75565
143 1 7.4181 3.11155 1.73688
144 1 0.13435 1.73078 0.192539
145 1 7.57643 5.09291 6.53492
146 1 1.06851 3.91485 5.18498
147 1 7.3196 0.11336 8.02564
148 1 0.149512 6.02822 7.46067
149 1 2.86356 2.87068 3.5728
150 1 8.3731 8.95592 0.250137
151 1 4.11513 4.72955 5.11914
152 1 7.1518 7.96059 3.20288
153 1 3.28726 5.31939 7.46389
154 1 3.77252 8.85905 5.39912
155 1 3.21015 6.23446 7.78124
156 1 3.1006 6.9284 1.8033
157 1 4.68183 3.93989 1.13921
158 1 0.642269 2.34659 4.00142
159 1 4.25186 8.6848 3.08987
160 1 1.04974 1.15584 5.45817
161 1 6.73325 0.423395 3.96975
162 1 4.0107 3.55188 7.5603
163 1 2.09527 4.99227 6.87209
164 1 1.73897 7.40061 4.46732
165 1 2.05442 0.392001 7.59519
166 1 2.20388 1.13326 2.65683
167 1 6.56729 4.67261 7.40621
168 1 7.826 6.0431 0.883151
169 1 2.38182 7.49306 3.57822
170 1 8.27848 0.769444 0.599347
171 1 5.36093 5.09305 4.40736
172 1 2.04446 3.65916 7.51962
173 1 5.93929 9.10907 3.0262
174 1 7.55202 4.29533 7.56001
175 1 1.91978 6.5954 3.19529
176 1 0.99258 5.68865 3.50437
177 1 6.0656 9.23451 3.88497
178 1 9.30846 6.72552 8.33628
179 1 3.01823 7.43999 4.62702
180 1 0.742708 1.61838 4.62277
181 1 8.16288 7.79319 1.39176
182 1 3.13163 9.14388 8.95651
183 1 4.2579 1.54024 2.23117
184 1 7.29678 0.105363 1.42342
185 1 8.83884 0.468654 9.39875
186 1 1.81756 5.49716 1.49579
187 1 1.32318 2.99247 4.79975
188 1 9.24709 4.15973 8.50147
189 1 6.81192 3.29223 8.76434
190 1 6.47598 2.46207 6.12953
191 1 3.35197 2.85527 1.11215
192 1 4.5354 8.65223 4.71188
193 1 6.52036 0.936966 0.0390961
194 1 6.17582 6.04575 1.58547
195 1 3.45096 3.63734 3.9441
196 1 0.387324 4.50978 1.44909
197 1 3.68573 4.73529 6.78495
198 1 2.58489 7.69247 6.6842
199 1 6.0281 6.0806 6.89956
200 1 5.82844 5.78795 5.05761
201 1 9.02421 2.39523 5.70579
202 1 4.39083 8.1925 1.29161
203 1 6.9653 3.554 7.17911
204 1 5.13172 4.97706 9.04002
205 1 5.30331 1.47559 5.92532
206 1 5.39683 6.84734 3.49764
207 1 2.09924 6.41125 6.82922
208 1 3.01813 5.90249 9.19812
209 1 7.70281 0.666671 5.31417
210 1 8.84276 4.40079 4.69635
211 1 2.64535 2.66198 4.31899
212 1 3.24717 2.20495 0.608231
213 1 3.50036 2.05912 2.62656
214 1 6.07116 8.09068 2.04962
215 1 5.62828 9.08267 7.04127
216 1 3.37604 3.44921 2.94706
217 1 7.34617 5.16181 4.16806
218 1 4.02473 2.2895 1.72348
219 1 2.10556 7.01642 6.084
220 1 2.99189 8.56852 7.05461
221 1 0.0161747 5.64726 6.13293
222 1 3.57275 1.53646 1.58346
223 1 5.26873 2.83053 4.998
224 1 1.23463 0.929519 3.11216
225 1 7.39342 2.03662 3.3105
226 1 0.957178 7.97965 4.16019
227 1 0.969807 2.02464 0.851287
228 1 2.68409 4.1024 4.01162
229 1 6.32963 7.19656 1.78657
230 1 6.09545 3.04025 3.51571
231 1 5.29334 5.61003 1.25464
232 1 1.38799 1.99395 5.11181
233 1 1.03323 8.89652 8.69712
234 1 4.82737 4.11052 5.34227
235 1 8.10313 4.6611 7.02364
236 1 2.93247 5.39786 0.50168
237 1 6.84985 8.8204 1.77582
238 1 5.78045 0.721783 2.65946
239 1 3.14902 7.05228 3.4924
240 1 8.95103 5.26411 4.45341
241 1 8.88358 5.06871 6.76529
242 1 1.80363 2.87854 7.89164
243 1 1.51023 6.22698 5.97467
244 1 9.25584 3.38935 7.95572
245 1 2.09732 8.86251 5.56071
246 1 7.73037 8.19538 5.57229
247 1 3.5349 6.57257 0.993072
248 1 5.74319 7.36898 9.2366
249 1 8.54351 0.406832 2.4166
250 1 2.29686 5.81984 8.27586
251 1 4.60081 2.48637 0.757112
252 1 5.97819 8.4802 8.75877
253 1 2.8057 0.0711327 6.7748
254 1 4.93287 5.79567 7.03288
255 1 8.31496 6.72138 6.15166
256 1 1.82564 5.09086 5.52614
257 1 7.99358 3.99054 1.92764
258 1 7.81373 8.15673 2.2445
259 1 5.31964 2.09555 3.18067
260 1 2.21274 5.11811 8.88211
261 1 0.289847 8.57296 1.14569
262 1 3.33716 6.74972 6.95022
263 1 3.50618 7.58293 6.69258
264 1 2.12967 5.91448 3.81188
265 1 1.67617 8.18986 4.8567
266 1 2.93098 7.7537 5.77636
267 1 5.43588 2.16227 8.08011
268 1 5.76286 1.70975 3.96182
269 1 6.23918 3.44146 1.55202
270 1 4.85186 4.33646 2.046
271 1 7.42906 0.378428 6.25302
272 1 4.20803 6.32852 2.24583
273 1 5.23794 4.13835 8.99367
274 1 2.30578 1.25045 7.57805
275 1 5.23088 8.42378 1.90227
276 1 0.801995 2.71387 7.23814
277 1 1.43905 9.26845 1.21204
278 1 3.80918 5.98932 6.64994
279 1 3.56112 3.06908 6.61951
280 1 1.37525 1.06281 7.48118
281 1 4.71361 5.79214 8.96553
282 1 2.57092 3.716 3.20151
283 1 6.51616 0.0997531 7.51422
284 1 6.84874 6.43006 6.4336
285 1 0.0653552 4.80786 2.32728
286 1 4.57276 0.630187 5.83667
287 1 6.16231 3.91991 0.213328
288 1 4.36312 6.1964 4.37302
289 1 7.76076 6.87948 1.91283
290 1 6.61025 3.2513 5.46605
291 1 8.13583 3.28661 6.1766
292 1 2.69532 8.15483 4.16318
293 1 4.67189 1.5129 1.35318
294 1 8.14994 4.85862 0.652498
295 1 0.543756 6.30054 6.59604
296 1 5.08181 6.80509 8.17651
297 1 0.670867 7.90644 0.498198
298 1 3.07926 4.13173 6.3899
299 1 1.09373 3.84838 4.15713
300 1 7.60606 1.24348 0.0179693
301 1 7.33205 0.605537 8.77116
302 1 5.39149 3.44164 0.862991
303 1 6.18119 4.41195 1.11003
304 1 2.81375 3.53846 4.87919
305 1 8.97246 5.06393 3.55266
306 1 6.8142 7.67381 7.35918
307 1 0.1494 0.803794 0.489052
308 1 6.92553 5.28981 3.21134
309 1 1.17321 5.38379 0.949142
310 1 2.75592 0.169892 0.292963
311 1 2.03027 0.438495 5.38143
312 1 6.81574 3.91247 8.00939
313 1 9.36619 7.99936 3.65705
314 1 4.45806 4.74739 3.629
315 1 1.90626 0.861473 6.2993
316 1 1.02583 0.363783 5.74403
317 1 8.80247 2.21306 1.56711
318 1 2.68144 2.76185 2.67366
319 1 8.3004 7.89178 7.89802
320 1 7.09256 9.1734 4.54549
321 1 8.7473 5.97513 3.81667
322 1 6.68342 2.5446 9.28256
323 1 2.18744 0.59199 1.19275
324 1 2.68941 6.91117 0.95445
325 1 6.39928 2.07568 3.53191
326 1 4.71916 5.57374 2.04356
327 1 5.9752 1.71719 0.481403
328 1 6.45542 2.66605 1.80578
329 1 6.40449 3.36313 4.28052
330 1 5.12181 3.25944 1.68862
331 1 8.34034 7.90179 4.98342
332 1 7.28908 3.90297 1.08083
333 1 4.82558 7.07981 4.15197
334 1 0.0526272 0.428135 2.00882
335 1 6.42422 7.47483 0.442833
336 1 6.28504 6.51784 0.60597
337 1 0.424547 0.459824 8.98922
338 1 9.07656 1.33428 2.01198
339 1 1.59714 9.20043 3.42837
340 1 8.7241 1.56945 5.96746
341 1 7.3899 7.1509 6.39172
342 1 6.69979 3.43822 2.64526
343 1 1.57003 3.12927 5.6692
344 1 4.19815 3.13495 1.28081
345 1 6.57425 2.96619 7.77879
346 1 5.93456 4.71242 8.06119
347 1 7.61621 4.94707 8.96164
348 1 8.69186 1.47896 3.90468
349 1 0.642666 3.0099 2.41011
350 1 0.45078 1.52356 1.48639
351 1 9.37853 6.45205 1.63657
352 1 5.63874 0.707596 0.638638
353 1 0.389545 9.35939 3.49012
354 1 3.79029 4.84137 0.534102
355 1 6.51524 0.518686 1.88901
356 1 7.55217 7.68191 3.96235
357 1 3.23764 7.73699 7.59686
358 1 8.47531 8.81297 2.25378
359 1 3.31886 0.754421 3.78354
360 1 2.66114 8.48481 6.15875
361 1 6.47597 5.24855 6.71063
362 1 5.86452 9.21832 8.19638
363 1 8.21364 0.125705 1.57669
364 1 0.704074 4.77315 5.49608
365 1 1.51359 2.03238 7.48655
366 1 5.72502 5.36954 7.40231
367 1 2.81193 0.471997 2.92734
368 1 3.387 2.04919 4.98843
369 1 0.652402 1.79326 7.31579
370 1 7.9091 8.69525 1.47393
371 1 7.56124 2.33197 5.0616
372 1 1.86464 3.08741 1.93856
373 1 5.24077 0.186051 3.27049
374 1 9.34957 1.22253 8.83859
375 1 5.30492 6.31723 0.523433
376 1 7.38721 8.21344 6.46775
377 1 0.456809 8.20014 2.33955
378 1 7.32028 1.10371 1.19075
379 1 2.07304 3.6797 0.00346039
380 1 6.20476 1.57993 5.7415
381 1 2.39905 4.49769 1.73169
382 1 2.44576 3.54783 5.85182
383 1 1.63523 4.11416 8.07146
384 1 0.00847838 6.54846 3.58109
385 1 2.38338 4.41813 4.94084
386 1 2.76811 2.61393 6.27157
387 1 0.0754436 8.55844 8.34371
388 1 2.27815 8.04453 7.49716
389 1 7.00917 3.66021 0.200656
390 1 9.15601 5.56636 2.00489
391 1 6.1548 4.40105 6.48883
392 1 9.21415 1.74289 2.96519
393 1 0.566384 8.44887 3.21117
394 1 5.93108 9.23329 2.18592
395 1 7.95119 6.14952 5.32754
396 1 1.04249 8.92402 0.35098
397 1 1.37101 7.64451 7.36327
398 1 8.70479 7.49498 8.84038
399 1 7.93886 0.781517 4.43964
400 1 7.86649 0.262447 9.40686
401 1 4.25046 6.3657 0.490621
402 1 8.53366 3.95146 5.47397
403 1 9.12547 3.91158 4.05013
404 1 7.16907 8.99431 5.73448
405 1 2.65215 5.18421 4.31538
406 1 0.871938 4.36195 3.36001
407 1 7.00833 2.59524 1.12014
408 1 7.67967 6.10256 6.41367
409 1 8.06163 3.75219 4.55967
410 1 7.79529 6.21391 7.85278
411 1 5.54367 0.250065 6.31282
412 1 5.97773 2.11172 2.5998
413 1 0.0557672 4.05235 0.182089
414 1 5.06482 3.37923 2.99596
415 1 3.38007 9.00677 0.563092
416 1 9.01268 6.85944 5.02409
417 1 4.95968 9.17761 8.57574
418 1 9.0295 7.17817 6.53321
419 1 5.8837 7.7464 7.60004
420 1 0.376115 8.27189 7.49989
421 1 2.2018 6.64548 1.85987
422 1 7.20748 4.12685 8.81922
423 1 2.92893 1.33315 2.15729
424 1 9.23998 9.29388 2.80508
425 1 0.605474 1.10524 6.29063
426 1 0.317074 8.24425 5.93227
427 1 1.10826 7.05069 0.425099
428 1 0.989638 8.01308 8.39655
429 1 6.77524 4.82018 0.465155
430 1 8.64612 0.857194 5.30517
431 1 6.84758 7.04402 3.36272
432 1 7.51552 4.52084 4.76758
433 1 1.6909 4.06835 5.94623
434 1 3.4413 6.2274 4.06624
435 1 2.51776 0.492762 8.71496
436 1 0.276663 3.92372 2.44103
437 1 6.83339 5.89594 9.28161
438 1 6.36602 8.58845 7.53319
439 1 5.16837 1.72241 2.34459
440 1 6.0952 4.92308 9.04506
441 1 4.28803 2.93764 5.15146
442 1 1.0004 7.11167 2.52132
443 1 4.80945 5.29552 8.09768
444 1 7.92645 5.23228 7.72064
445 1 7.79736 2.32611 7.58037
446 1 8.77139 0.183124 5.89593
447 1 3.14334 7.87016 1.58584
448 1 5.62331 0.581006 1.54791
449 1 6.59825 8.50907 0.338589
450 1 9.29013 7.67224 8.09539
451 1 7.28268 6.13608 2.92515
452 1 3.41669 4.57526 3.37402
453 1 7.99725 8.84637 7.83505
454 1 4.16465 9.28332 0.963023
455 1 8.35582 4.92397 8.3611
456 1 9.36276 6.39506 9.25508
457 1 5.48524 2.33534 6.05304
458 1 5.71628 2.97618 8.06605
459 1 4.52829 3.88239 8.26106
460 1 1.41371 4.88191 0.27209
461 1 5.53772 3.33994 6.2478
462 1 4.89932 1.21492 7.35056
463 1 8.5303 7.33462 3.34262
464 1 2.76597 0.321281 4.93425
465 1 8.31439 5.54094 6.12595
466 1 4.03881 0.543859 0.446043
467 1 2.41094 7.92189 9.20918
468 1 5.63117 5.56382 0.0269933
469 1 9.18457 1.71267 5.05262
470 1 8.16346 6.487 7.1345
471 1 7.9857 1.65634 2.77619
472 1 8.96722 8.83779 3.56147
473 1 2.71533 4.93673 2.40719
474 1 7.68179 5.78734 3.75659
475 1 2.63133 2.88693 0.112677
476 1 0.303418 3.90562 5.88331
477 1 4.98637 2.94524 8.7199
478 1 2.75751 3.22648 7.97518
479 1 6.41681 0.97781 1.03346
480 1 8.67354 2.3714 2.47499
481 1 0.0244575 9.27683 4.33369
482 1 2.2272 8.22096 3.03081
483 1 3.65123 5.56256 1.90945
484 1 2.51548 4.06239 8.38423
485 1 1.79199 4.66866 1.09016
486 1 0.588698 5.29851 9.38994
487 1 6.89717 7.78727 2.24183
488 1 7.66047 2.45157 2.44913
489 1 7.47654 7.43281 0.519977
490 1 0.129235 2.24007 8.38102
491 1 3.79716 4.21174 8.79452
492 1 6.60174 7.73249 4.15912
493 1 8.89615 8.48514 7.53916
494 1 5.0789 9.23133 2.41357
495 1 6.8646 6.81735 2.44751
496 1 4.27721 5.22157 4.43924
497 1 3.58129 8.79268 1.49655
498 1 2.3228 7.0606 5.10044
499 1 9.16626 5.51694 8.59167
500 1 8.45081 2.3605 0.295804
501 1 7.79325 3.16218 0.67282
502 1 0.608799 1.22566 2.35045
503 1 6.04509 2.65816 5.23273
504 1 7.97128 1.47847 7.73376
505 1 5.42437 5.8602 2.4705
506 1 1.15644 4.45003 2.15314
507 1 1.30501 0.242676 6.96061
508 1 1.47673 4.63254 4.7342
509 1 6.41431 0.466345 8.55472
510 1 0.221246 5.65032 1.12533
511 1 6.84225 4.06716 1.98119
512 1 4.88635 9.3043 0.130355
513 1 3.20208 1.10743 5.16886
514 1 2.48438 1.91711 0.0710351
515 1 1.93245 3.67058 4.94412
516 1 1.09727 6.1144 1.43093
517 1 5.87835 9.31125 9.25949
518 1 3.63169 0.170336 4.92392
519 1 1.14808 8.94114 7.68353
520 1 1.55718 5.71898 7.24034
521 1 6.90032 1.57888 8.73659
522 1 2.39893 0.970433 0.245128
523 1 5.10473 1.33188 8.43656
524 1 3.03216 2.28824 1.85384
525 1 5.43727 7.8128 4.35136
526 1 1.2982 8.22123 2.7187
527 1 6.47997 9.21887 6.5639
528 1 5.03393 5.96998 4.8246
529 1 6.14378 7.51845 8.47483
530 1 3.66108 0.525909 5.89252
531 1 1.4582 1.50198 6.68846
532 1 4.71285 4.94194 6.43372
533 1 1.34708 0.788742 2.12096
534 1 1.43685 4.86177 6.24584
535 1 5.90467 2.48485 4.32304
536 1 4.98235 1.35427 4.12555
537 1 3.80347 8.09315 4.42166
538 1 2.53948 4.67812 5.9837
539 1 4.11291 0.119457 2.4439
540 1 3.41952 2.066 9.11396
541 1 8.85442 3.09445 3.7108
542 1 7.38753 7.08421 7.998
543 1 6.12503 1.38266 3.04903
544 1 5.56147 7.07107 0.833729
545 1 3.27212 8.5374 8.21357
546 1 8.81742 5.76554 5.27674
547 1 3.2484 6.8992 5.25824
548 1 7.02179 7.40727 5.08233
549 1 2.20833 4.11991 6.63253
550 1 4.02562 5.39259 2.71318
551 1 3.88955 7.15681 4.04066
552 1 6.18079 6.76289 7.7556
553 1 5.19849 5.699 3.49213
554 1 8.37887 2.1437 8.27525
555 1 6.25808 1.51822 6.63114
556 1 8.71343 3.47131 2.70327
557 1 0.112824 5.53197 2.88766
558 1 6.67199 2.62721 2.76118
559 1 6.84853 7.94879 9.01736
560 1 3.98432 9.18428 4.17316
561 1 6.54207 1.80224 1.41352
562 1 9.11504 2.26394 7.60657
563 1 5.85825 3.9394 3.37906
564 1 3.15203 4.80096 9.16499
565 1 1.90908 0.128711 0.262453
566 1 4.01804 1.28291 6.84846
567 1 5.40701 3.95256 7.93345
568 1 3.44329 7.68455 8.59666
569 1 1.70778 3.3765 8.5957
570 1 1.60047 2.33307 4.29065
571 1 2.64775 9.08884 1.00339
572 1 8.28402 6.47965 4.50055
573 1 6.7132 4.36948 3.9767
574 1 4.00758 4.11789 2.69715
575 1 6.05544 1.35243 1.99742
576 1 7.67039 9.26658 7.11643
577 1 0.254654 3.13028 4.13344
578 1 2.36961 4.64982 0.305743
579 1 0.707749 5.43195 1.96563
580 1 3.733 1.36222 6.01626
581 1 3.8284 5.67946 8.33454
582 1 6.52925 5.01136 4.66544
583 1 8.3227 9.1071 3.12101
584 1 1.30858 7.03223 6.71696
585 1 0.9429 5.55509 6.45273
586 1 0.608649 0.735033 8.15402
587 1 5.01538 9.17959 0.991928
588 1 8.97881 2.30303 8.94563
589 1 8.07207 7.03789 5.27596
590 1 3.21775 3.00845 5.65766
591 1 4.04675 2.50614 8.52488
592 1 2.58862 9.1421 3.7103
593 1 4.18167 2.93885 3.27942
594 1 8.07277 1.02644 1.84662
595 1 3.24104 8.28124 9.29738
596 1 1.36302 5.92693 2.6681
597 1 5.82072 8.93987 1.39157
598 1 1.42942 7.93436 9.3145
599 1 7.78454 1.19131 3.64467
600 1 8.06241 2.63214 3.23702
601 1 7.671 3.37212 2.61257
602 1 4.80024 0.693107 0.975792
603 1 7.73853 6.88389 3.58542
604 1 6.66964 4.00293 4.89152
605 1 2.82971 4.93964 8.28841
606 1 1.27761 9.14757 4.99162
607 1 8.80863 6.10079 6.69028
608 1 1.07753 3.03024 3.64854
609 1 9.0601 9.36907 8.67126
610 1 4.78692 0.359323 4.1836
611 1 2.11749 0.922733 3.64868
612 1 7.52737 8.68044 0.504951
613 1 4.10225 7.9073 2.48891
614 1 9.22089 3.23894 0.963861
615 1 1.16738 6.11208 4.96457
616 1 2.75864 1.38772 8.77825
617 1 8.7796 0.977024 3.1344
618 1 8.66359 4.74282 1.42718
619 1 3.26623 1.55258 4.22421
620 1 4.69299 1.68611 6.6037
621 1 0.62263 8.89475 6.89597
622 1 1.82047 8.35566 8.18503
623 1 4.09976 4.71945 1.43383
624 1 5.46255 6.15685 7.66897
625 1 4.83145 0.817476 2.20991
626 1 7.33527 2.39385 8.4526
627 1 8.96766 4.43685 6.00283
628 1 4.40416 7.98333 6.8913
629 1 0.736127 0.464002 4.8282
630 1 4.58113 3.5324 4.50449
631 1 7.74829 3.69647 6.90583
632 1 0.164272 1.89109 6.25257
633 1 3.22001 3.79113 1.1649
634 1 0.968876 6.58407 3.33746
635 1 0.0943986 9.36289 5.27972
636 1 0.865477 1.67685 8.29821
637 1 8.16123 6.85705 1.06694
638 1 0.379711 2.77432 6.3584
639 1 4.25258 2.10295 7.74196
640 1 1.80586 3.22712 4.06433
641 1 1.46575 3.64956 0.616365
642 1 2.34738 8.81534 8.63453
643 1 3.64559 8.42307 6.32813
644 1 5.51186 1.40735 1.31702
645 1 6.995 6.39586 8.27278
646 1 4.04117 7.02868 9.36389
647 1 0.506751 7.25843 6.18634
648 1 2.34668 2.90053 5.22826
649 1 2.6612 2.11809 3.26142
650 1 7.30781 8.23815 4.6682
651 1 1.99848 4.18339 2.56415
652 1 1.36479 3.45489 7.08459
653 1 5.66421 6.12769 4.11589
654 1 6.92289 5.64843 5.97668
655 1 8.13215 7.64772 6.16548
656 1 4.60856 6.6398 1.4051
657 1 8.69356 8.41916 8.64575
658 1 8.19756 1.68932 5.23383
659 1 5.67886 4.85345 5.36347
660 1 2.98327 9.34284 5.85845
661 1 8.77571 6.20444 1.00829
662 1 6.88244 1.88183 0.492715
663 1 2.0346 8.86533 7.14147
664 1 6.12075 6.89977 4.10825
665 1 5.01647 7.23067 7.19765
666 1 0.224674 3.54557 6.94332
667 1 1.36181 5.44982 8.88813
668 1 6.04458 7.00251 5.80444
669 1 7.4937 2.16558 9.28428
670 1 1.64723 4.92836 3.85294
671 1 5.04405 4.23244 4.11855
672 1 1.5304 1.09643 4.64873
673 1 6.58624 5.89841 7.5846
674 1 0.733185 6.91211 4.22927
675 1 4.52738 2.7163 6.73172
676 1 2.4182 5.74418 7.23923
677 1 5.43698 3.29787 4.05023
678 1 1.72548 5.09799 2.26707
679 1 1.33221 8.22997 0.994077
680 1 9.22596 8.35526 6.68964
681 1 3.57649 1.76263 8.22327
682 1 3.25576 3.13259 8.76387
683 1 8.49918 4.77054 2.30424
684 1 0.258296 4.66176 4.08465
685 1 0.889966 5.76765 7.99275
686 1 4.27345 1.16761 8.02017
687 1 7.88425 7.46474 7.07634
688 1 0.150198 2.32453 1.06839
689 1 3.765 0.553024 7.29632
690 1 0.208217 0.895094 5.52486
691 1 0.0579326 8.92516 1.87146
692 1 0.438347 6.44888 5.42348
693 1 3.19421 6.10826 2.35905
694 1 8.94284 0.381815 3.83333
695 1 7.01159 1.21479 3.31356
696 1 7.45785 5.26001 5.26946
697 1 0.357772 8.38762 9.18734
698 1 4.27877 1.1649 9.11019
699 1 1.20866 0.776463 0.342957
700 1 9.20733 0.871832 6.61591
701 1 3.49943 2.2132 3.52563
702 1 7.63048 5.73369 8.6021
703 1 4.54663 8.20937 3.98536
704 1 0.947424 3.81829 9.32392
705 1 6.0742 3.76275 7.29748
706 1 0.293776 3.48947 3.25075
707 1 3.43405 2.57776 7.51728
708 1 0.660217 2.44776 9.02463
709 1 2.93185 9.16739 7.73224
710 1 0.819175 3.57187 7.98069
711 1 2.01952 2.1311 5.84386
712 1 4.46594 3.32393 5.98685
713 1 9.33136 4.30088 3.20159
714 1 7.73498 8.49955 8.90244
715 1 0.459141 7.39181 3.25325
716 1 2.26475 1.23155 5.36468
717 1 1.74649 5.07596 8.06863
718 1 3.76097 0.965006 2.82861
719 1 7.90763 4.0764 0.269469
720 1 0.755949 4.91616 8.28141
721 1 3.08196 1.38678 3.20251
722 1 5.47262 0.530025 8.84078
723 1 3.86231 1.36534 0.801566
724 1 5.94198 4.32291 4.54152
725 1 2.30385 1.77384 6.81822
726 1 8.40739 2.56294 4.81706
727 1 8.02297 3.66288 3.61136
728 1 2.94226 5.48952 3.25529
729 1 3.55448 6.22705 3.14639
730 1 3.98321 1.30147 3.60711
731 1 6.83588 0.619649 5.24903
732 1 7.79501 5.46159 2.77202
733 1 4.7864 7.15959 2.33417
734 1 0.762172 2.63437 1.62003
735 1 1.22054 2.30765 6.40711
736 1 7.51828 8.12432 7.62397
737 1 4.04223 1.30521 4.63182
738 1 5.83075 7.99634 5.87606
739 1 6.34903 4.95406 1.95119
740 1 4.38273 6.7113 3.2111
741 1 8.19492 5.48602 1.63507
742 1 8.57839 3.20773 7.13329
743 1 1.9586 7.82851 5.59373
744 1 5.52486 4.92129 0.58005
745 1 0.912069 7.94286 6.62019
746 1 3.15754 5.06718 1.28174
747 1 7.58312 7.73422 8.49328
748 1 4.47418 8.27342 5.82933
749 1 8.74928 7.48904 7.3039
750 1 7.36494 6.63519 0.251717
751 1 6.41194 0.744615 6.17961
752 1 0.322503 1.44504 3.85682
753 1 2.23054 1.78328 3.96546
754 1 4.80839 7.59358 3.37077
755 1 8.08389 1.62317 0.734343
756 1 7.71736 0.61847 2.92363
757 1 7.20042 1.41546 5.92257
758 1 6.03637 6.05899 5.89867
759 1 8.50452 8.80689 4.38712
760 1 0.583902 5.61101 5.38572
761 1 5.21099 7.72568 6.39311
762 1 0.884933 0.603214 3.86707
763 1 7.78859 7.41054 2.76189
764 1 9.18153 1.06395 7.88001
765 1 2.19395 8.67345 1.75601
766 1 8.49447 1.50346 9.31589
767 1 8.89509 8.13913 2.84563
768 1 3.18452 0.581868 8.0033
769 1 7.89357 1.45025 8.56894
770 1 0.614594 6.76351 7.65798
771 1 6.81402 8.8343 8.44116
772 1 6.09034 4.97649 2.84181
773 1 0.275448 0.0313911 6.25674
774 1 2.89758 7.77436 2.49518
775 1 3.60248 9.06417 3.43677
776 1 9.12272 2.24388 4.07904
777 1 8.52275 6.30939 1.88552
778 1 1.90804 6.56366 0.912145
779 1 5.0926 8.37297 2.8639
780 1 5.42171 8.48973 3.63994
781 1 0.648662 8.24366 4.9365
782 1 4.2235 8.32493 0.306172
783 1 7.40495 5.64065 7.23317
784 1 1.78826 1.6704 0.701387
785 1 8.70068 1.48703 7.05183
786 1 6.84246 1.41863 2.31698
787 1 2.46342 2.06673 4.93678
788 1 4.28063 6.91564 6.59384
789 1 4.22492 5.39836 7.27627
790 1 5.71165 3.50769 4.90483
791 1 5.22681 4.29783 6.20239
792 1 6.63315 5.49066 8.50278
793 1 7.20736 2.96709 6.00139
794 1 3.94096 4.39754 5.89749
795 1 8.4326 6.81292 8.26739
796 1 5.32668 6.53685 5.52929
797 1 0.668506 6.37449 8.48512
798 1 4.25052 9.25563 6.02985
799 1 2.58991 7.10283 7.62159
800 1 6.84666 4.35993 3.12175
801 2 3.27521 0.413817 1.13694
802 2 2.35676 2.30179 0.966319
803 2 4.98339 9.19223 5.24258
804 2 8.08718 4.20802 6.21894
805 2 2.3037 1.96524 2.47785
806 2 2.21251 5.9082 2.65451
807 2 2.25104 2.45403 8.71493
808 2 3.43006 8.83245 2.42531
809 2 6.75327 0.360049 2.82025
810 2 3.12296 0.998787 6.67115
811 2 1.425 0.898884 8.94708
812 2 2.72187 1.88398 7.95176
813 2 4.94808 5.36789 5.6159
814 2 3.59182 5.31363 3.96395
815 2 3.70038 9.19148 6.78585
816 2 5.94227 1.08005 4.67641
817 2 1.44877 6.91987 5.39838
818 2 5.97098 6.43323 8.8976
819 2 1.96276 7.44142 2.64636
820 2 2.29016 8.95417 4.69181
821 2 0.550114 6.22837 2.59809
822 2 9.07184 6.67775 7.41656
823 2 1.54339 6.14636 8.41018
824 2 8.44135 3.02621 8.10523
825 2 -0.000898746 7.46241 4.45928
826 2 0.0913685 9.3839 7.84783
827 2 0.721946 5.22189 7.24392
828 2 8.07184 2.56546 1.24243
829 2 6.03343 1.2789 8.85366
830 2 7.88462 3.12936 8.95611
831 2 2.32339 4.61613 3.40173
832 2 7.89005 0.138045 3.79678
833 2 6.30652 8.27536 1.14929
834 2 3.54186 7.52025 0.770926
835 2 8.15058 5.60533 4.58351
836 2 8.36527 7.96476 0.460699
837 2 1.5744 3.90442 1.43505
838 2 2.18658 1.64877 1.62476
839 2 5.00024 7.32935 5.4179
840 2 6.15335 7.59746 3.43018
841 2 4.25296 4.95151 8.85573
842 2 3.21143 8.86718 4.24564
843 2 4.1698 5.85993 5.2569
844 2 9.05665 3.02866 0.0904999
845 2 3.82667 5.64662 0.0984201
846 2 8.92064 4.70427 9.16614
847 2 4.74637 7.88437 7.76144
848 2 2.3871 3.40722 0.829915
849 2 4.41023 0.539913 8.58999
850 2 1.37187 7.42918 3.515
851 2 1.72456 8.08774 6.5516
852 2 3.47578 5.29487 4.92512
853 2 0.414664 4.35002 7.4959
854 2 6.54286 3.58926 6.35496
855 2 5.22557 7.97203 0.941616
856 2 5.77966 1.35275 7.62892
857 2 4.39988 1.97706 3.16922
858 2 8.94951 7.5855 5.69011
859 2 4.89991 5.18862 2.84674
860 2 0.45284 4.88446 6.34399
861 2 0.529198 7.37752 8.89606
862 2 4.36729 3.72338 3.49271
863 2 6.61043 8.609 3.60594
864 2 5.41513 1.95969 4.97513
865 2 5.86563 4.03015 5.6293
866 2 4.74761 8.876 6.91814
867 2 5.66973 5.52678 8.43481
868 2 8.60797 0.834456 8.50077
869 2 2.59404 6.0174 1.23985
870 2 1.49928 1.98119 8.83615
871 2 9.20034 0.950581 4.53976
872 2 6.92452 0.836397 7.08595
873 2 6.4802 9.35315 0.938121
874 2 4.34488 0.306723 3.3008
875 2 4.53058 7.39686 0.814004
876 2 6.16756 8.39603 4.51496
877 2 7.06941 4.28268 6.5618
878 2 6.14224 8.91487 5.30077
879 2 8.40023 4.24244 2.99897
880 2 1.99987 2.97636 6.66561
881 2 2.80817 0.241029 1.95122
882 2 2.7987 6.92767 2.62543
883 2 7.23396 3.22988 3.43492
884 2 7.43606 1.41468 4.88509
885 2 9.02366 4.03016 1.81277
886 2 1.06687 3.40602 6.28404
887 2 4.17225 0.697737 1.54093
888 2 7.04159 0.996525 7.95947
889 2 0.976498 6.13615 0.175522
890 2 6.14264 8.39567 6.55913
891 2 1.77253 3.99638 3.39343
892 2 9.13286 8.37961 0.482413
893 2 2.40168 7.05302 0.0732654
894 2 4.01971 7.48845 1.70974
895 2 0.707838 0.120631 0.842212
896 2 8.61146 5.57729 2.9222
897 2 3.1935 3.88741 0.0773766
898 2 1.34725 1.5463 3.83345
899 2 6.81333 5.69402 0.754808
900 2 7.7413 2.9552 4.06131
901 2 2.27114 6.29981 9.04403
902 2 4.54498 1.88728 5.72946
903 2 0.528658 3.12208 5.49617
904 2 8.41554 3.17129 1.85794
905 2 9.10417 6.5026 5.93811
906 2 5.36722 6.44713 1.82084
907 2 4.11769 3.38735 9.04156
908 2 0.584964 2.02098 5.4483
909 2 7.19812 6.57984 5.56017
910 2 1.4 4.4716 7.21674
911 2 8.73232 4.05265 0.848629
912 2 2.03874 5.68938 4.73475
913 2 4.02234 7.37135 7.50074
914 2 5.28702 8.69701 6.10682
915 2 1.3356 7.8392 1.72441
916 2 1.2865 0.891969 1.21407
917 2 4.11589 4.25973 4.30258
918 2 0.151299 0.833807 3.05298
919 2 3.1744 4.24774 5.42629
920 2 5.23976 2.3139 7.16915
921 2 7.11251 1.76253 7.39834
922 2 5.38903 4.77292 3.54964
923 2 7.19277 0.454761 0.503455
924 2 5.69851 3.05333 2.49552
925 2 2.45222 2.57049 7.41495
926 2 3.80776 3.71529 5.09967
927 2 7.90872 3.10774 5.35473
928 2 5.02886 2.42665 4.16961
929 2 3.85629 7.69539 3.33992
930 2 3.07549 8.26319 3.32386
931 2 2.3668 9.09566 2.65692
932 2 9.13845 8.50014 4.98885
933 2 1.83347 2.76093 2.96374
934 2 4.89896 4.31498 2.93614
935 2 7.58706 1.79316 1.63844
936 2 5.06766 1.56775 0.266603
937 2 4.45723 7.40646 8.43847
938 2 4.12394 6.90888 4.88463
939 2 3.87537 5.23288 5.82968
940 2 5.93964 3.12648 9.1023
941 2 8.43075 4.96851 5.44858
942 2 0.126809 6.21627 4.62734
943 2 6.51653 1.87783 4.92737
944 2 4.90864 0.964743 5.1513
945 2 8.43479 7.46148 4.24127
946 2 1.61443 4.28312 8.90475
947 2 9.29927 4.83647 0.716879
948 2 3.13939 4.34193 7.7005
949 2 7.10671 8.69702 2.76322
950 2 8.87403 4.07574 7.11408
951 2 1.56972 9.17976 6.17813
952 2 7.79499 1.65858 6.65176
953 2 5.96476 6.13574 3.21601
954 2 5.21998 8.02482 8.58053
955 2 9.32226 3.13419 1.88742
956 2 2.10915 7.03712 8.53936
957 2 5.00061 7.85999 9.36787
958 2 5.57127 5.25218 6.44758
959 2 0.710696 0.310852 2.6507
960 2 2.15943 5.69625 6.1927
961 2 7.05979 6.52276 7.30347
962 2 3.21761 6.67114 0.10783
963 2 1.418 6.73559 9.02327
964 2 1.55979 1.71497 2.98187
965 2 0.605084 5.51922 4.31495
966 2 1.72932 6.78349 7.52177
967 2 4.1513 1.91955 0.218959
968 2 2.45293 1.06105 4.53292
969 2 8.91171 0.778269 1.18186
970 2 5.14035 2.40353 1.73177
971 2 3.56407 0.434731 8.8075
972 2 4.39243 8.34251 8.56197
973 2 7.31585 8.12629 1.41403
974 2 6.09752 7.17407 6.89406
975 2 0.581075 0.676192 7.27108
976 2 8.18262 8.21421 3.37509
977 2 3.47505 2.97923 4.63887
978 2 7.28531 2.69227 6.90138
979 2 0.262408 2.5117 4.80971
980 2 8.93137 3.23726 4.75717
981 2 4.72442 6.09136 6.12411
982 2 6.27858 6.63025 5.01114
983 2 7.08941 4.78924 8.22271
984 2 4.71809 0.520943 6.79493
985 2 0.0511237 9.18765 0.246358
986 2 5.52737 7.54169 2.66946
987 2 9.06754 0.0703852 6.88902
988 2 6.14846 5.1924 3.7538
989 2 1.68941 1.36746 8.17733
990 2 4.47782 6.49178 7.50296
991 2 5.9793 2.13436 8.96278
992 2 7.09355 5.98253 4.73094
993 2 7.37646 4.61915 2.39143
994 2 6.74616 6.9374 9.07369
995 2 9.10354 3.29775 6.07831
996 2 5.81204 2.33317 1.19961
997 2 6.2773 2.98274 0.643502
998 2 1.47268 6.49832 4.15419
999 2 8.44132 4.06541 8.89007