#bin. KALJ data file T=0.5

1000 atoms
2 atom types

0 9.4 xlo xhi
0 9.4 ylo yhi
0 9.4 zlo zhi

Masses

1 1.0
2 1.0

Atoms

1 1 4.18563 5.45158 1.18706
2 1 0.0224752 5.99432 8.51586
3 1 8.83605 7.47888 0.718259
4 1 2.61962 8.72125 5.37879
5 1 4.27875 8.87592 7.07463
6 1 9.04302 5.97353 6.97707
7 1 2.34093 5.02105 7.97937
8 1 4.96926 7.77566 7.40692
9 1 4.11962 3.05103 5.85892
10 1 4.17766 3.23962 4.10899
11 1 3.59853 2.5199 9.30276
12 1 8.39462 5.74188 4.76938
13 1 0.182482 4.83378 1.55878
14 1 9.18026 2.00241 8.23388
15 1 6.691 3.05438 3.41975
16 1 4.24133 3.91652 1.38215
17 1 0.96875 8.03816 5.76659
18 1 6.98484 4.00292 7.42683
19 1 2.44526 9.36284 1.98833
20 1 6.90952 6.90587 3.05167
21 1 7.30405 4.01725 0.487873
22 1 9.08944 1.30016 5.06562
23 1 8.61201 7.69088 1.70573
24 1 7.87791 5.25117 7.21709
25 1 2.15778 0.826198 4.87183
26 1 5.92638 4.25309 4.57945
27 1 2.61689 6.59667 8.6526
28 1 1.91023 3.18981 0.96914
29 1 2.96375 4.94913 8.82441
30 1 7.69049 2.52203 4.6932
31 1 1.56017 7.1664 7.95896
32 1 4.6906 7.06864 8.4974
33 1 7.59592 2.90315 2.75687
34 1 6.00162 1.24181 0.394288
35 1 0.334107 8.40611 9.16448
36 1 0.473268 5.48256 7.18336
37 1 0.235717 4.86002 5.69885
38 1 1.88279 3.88361 5.48859
39 1 8.97109 7.72307 3.46492
40 1 2.32818 7.2163 4.55199
41 1 2.62195 5.10175 0.234448
42 1 6.42007 1.14708 8.9576
43 1 5.34197 3.03993 2.89238
44 1 8.11534 2.61321 5.52501
45 1 6.20999 0.957381 7.96672
46 1 8.07092 8.11869 9.0312
47 1 8.64421 7.53079 2.63342
48 1 1.40325 4.75904 5.67023
49 1 6.07682 2.01742 1.95527
50 1 3.32642 1.11885 2.65578
51 1 7.86543 4.10905 7.29917
52 1 1.12353 6.52018 5.22824
53 1 2.46737 2.43172 5.56531
54 1 2.485 4.52712 6.2271
55 1 8.64632 4.52529 5.58921
56 1 2.17915 3.10402 4.94355
57 1 1.51739 6.75491 7.12666
58 1 7.30967 6.27701 1.57485
59 1 6.38421 1.71137 7.25926
60 1 8.37334 4.74113 4.76347
61 1 2.75719 2.55162 6.64661
62 1 5.96864 4.57896 8.80403
63 1 1.66905 8.13817 7.49075
64 1 5.95054 0.517123 6.59196
65 1 1.87463 6.33674 9.06691
66 1 6.52974 9.2281 6.52843
67 1 2.11896 2.2759 0.664996
68 1 8.06766 6.07625 3.97939
69 1 0.60949 4.59197 3.73332
70 1 3.46441 7.05355 6.05706
71 1 0.118172 1.11043 3.35805
72 1 1.35812 2.37265 7.59149
73 1 8.24235 6.95933 1.28081
74 1 4.12566 4.44102 5.15128
75 1 0.415833 8.78518 2.34106
76 1 7.03624 0.072799 3.82595
77 1 8.60413 5.61481 6.34668
78 1 8.64027 5.50199 7.72427
79 1 0.682678 3.7127 7.00602
80 1 3.6744 7.91468 5.97388
81 1 4.0537 7.76023 9.01597
82 1 2.54889 1.49978 8.02493
83 1 9.24254 4.02548 7.464
84 1 4.90265 3.7166 6.61012
85 1 7.02788 2.75334 2.10006
86 1 5.70869 8.27921 2.31826
87 1 5.87552 4.76925 1.12116
88 1 7.78836 6.06648 6.73783
89 1 1.04613 3.55645 0.464568
90 1 1.45231 1.3323 7.46198
91 1 6.22404 2.37954 3.85387
92 1 2.84906 3.55126 4.44302
93 1 6.15293 6.87616 2.51371
94 1 2.99422 3.11274 2.34102
95 1 2.76067 8.77471 0.330328
96 1 2.52427 6.70278 7.09362
97 1 7.53458 0.941563 7.65167
98 1 5.82514 1.92952 8.26377
99 1 7.40067 4.12755 6.21029
100 1 3.43123 3.2203 6.56819
101 1 3.66679 2.5368 2.51822
102 1 2.09158 7.4562 0.887761
103 1 0.313134 9.36926 8.35367
104 1 3.32956 0.0682404 3.26817
105 1 1.34842 3.26032 9.06924
106 1 5.65935 3.82889 5.67166
107 1 2.6954 2.74758 7.54454
108 1 4.22681 2.2625 1.91625
109 1 4.46142 2.31622 0.475623
110 1 0.240146 2.96958 5.8472
111 1 7.81735 0.323062 2.32064
112 1 8.3482 4.78401 2.53014
113 1 3.20225 8.89037 7.87232
114 1 8.52748 6.31778 5.39961
115 1 4.21351 6.36693 8.86618
116 1 9.31189 8.34813 0.712935
117 1 8.63867 4.00315 6.74518
118 1 1.26057 8.68208 6.44637
119 1 3.67114 1.38082 3.43338
120 1 4.95308 2.58142 5.2826
121 1 5.62585 7.18435 8.26998
122 1 8.26301 5.60849 8.94828
123 1 7.38377 4.87837 1.74565
124 1 9.23622 9.12237 6.54221
125 1 0.18167 6.01121 2.92956
126 1 3.55947 2.14817 5.97134
127 1 5.72197 0.477573 2.69483
128 1 0.554729 1.96941 3.15967
129 1 7.94088 2.97516 1.86288
130 1 7.9101 1.64878 0.00819096
131 1 6.99736 7.28817 5.74205
132 1 3.53258 4.86391 5.96675
133 1 7.28861 1.03009 9.35891
134 1 8.36551 3.61995 3.63401
135 1 6.0414 1.2662 2.53324
136 1 4.99829 7.9649 2.80966
137 1 4.76484 7.11646 1.39393
138 1 3.53461 8.53924 2.17021
139 1 9.22638 4.25225 2.22313
140 1 0.95638 0.808507 8.4682
141 1 6.3872 2.06996 5.32702
142 1 8.83545 9.2156 0.951152
143 1 7.51548 1.14133 2.84209
144 1 3.71462 2.39176 3.40649
145 1 1.63612 2.6342 1.65314
146 1 0.309245 3.40562 1.40434
147 1 5.84508 3.38993 8.07906
148 1 4.54824 4.75937 8.7856
149 1 1.76945 8.65118 8.76764
150 1 1.32536 5.71292 6.29813
151 1 6.06849 6.31198 7.97309
152 1 0.717292 6.59814 0.15825
153 1 3.03653 8.17792 6.75722
154 1 2.60402 4.63518 5.33684
155 1 7.50135 1.51323 1.15843
156 1 0.54155 0.409283 2.12132
157 1 0.987601 8.80448 0.6735
158 1 8.41988 7.02711 3.72025
159 1 2.66844 7.43153 1.72559
160 1 5.43038 1.28674 8.96593
161 1 5.31545 7.84689 0.658472
162 1 3.25498 7.97048 7.663
163 1 2.28747 8.64114 2.98947
164 1 2.57572 2.65523 1.50619
165 1 3.39788 3.31545 7.78055
166 1 0.0687452 6.25682 5.67767
167 1 7.59998 6.89051 8.40591
168 1 6.65457 1.8313 8.16916
169 1 7.91517 0.224978 0.437404
170 1 0.886003 9.28818 3.47236
171 1 6.73008 7.82068 5.13047
172 1 1.38051 5.74103 0.599593
173 1 5.13324 4.24852 2.85464
174 1 6.72342 3.63412 1.87326
175 1 5.9 6.06028 6.3315
176 1 2.2285 7.48176 7.38609
177 1 2.63536 6.56685 3.84023
178 1 4.9208 0.756372 2.4417
179 1 3.52375 0.0971288 6.01
180 1 5.56789 1.76465 7.42653
181 1 5.51541 0.771633 5.93418
182 1 8.89555 8.91859 0.10393
183 1 7.61165 3.43496 5.07349
184 1 1.45848 1.30897 5.41735
185 1 6.46282 5.19364 6.1898
186 1 5.7885 8.86422 8.34088
187 1 3.48979 9.02732 4.2972
188 1 9.19767 0.420355 4.75596
189 1 6.93992 7.80444 7.28277
190 1 1.34119 7.23206 0.415289
191 1 5.85133 0.761723 3.66665
192 1 6.45115 4.04579 8.25184
193 1 5.39423 1.16524 1.29957
194 1 6.65384 3.08699 7.69335
195 1 2.50793 6.86924 5.43543
196 1 5.62221 8.91002 6.30474
197 1 5.5094 6.83429 7.47218
198 1 0.654117 9.09631 6.02823
199 1 7.92437 7.30026 5.3451
200 1 2.61823 9.10566 6.27284
201 1 0.770844 7.20015 4.73763
202 1 7.01003 2.64009 0.324299
203 1 2.66828 5.73369 8.6119
204 1 8.99043 7.09967 5.46932
205 1 1.87332 0.285995 0.874862
206 1 6.06718 3.29246 4.01192
207 1 0.219235 7.88771 2.30316
208 1 0.881157 9.24813 9.23335
209 1 7.62633 4.54852 3.70919
210 1 2.43299 7.04963 0.165889
211 1 4.36023 8.04014 0.563031
212 1 6.6997 0.215622 5.01688
213 1 3.95608 5.73219 6.35895
214 1 4.18816 0.522498 0.934472
215 1 9.37917 4.3031 4.87641
216 1 8.53442 1.41538 3.49718
217 1 0.46934 8.72503 5.20735
218 1 0.954108 4.51203 9.35244
219 1 7.58709 9.29339 8.09593
220 1 0.384465 6.43588 2.09996
221 1 0.52809 0.997219 5.74329
222 1 7.78124 7.10592 6.29317
223 1 8.9792 2.90662 5.18967
224 1 6.60007 0.249798 9.36076
225 1 3.72402 6.04816 5.25149
226 1 4.55434 4.92097 2.58341
227 1 0.570391 2.30946 4.21401
228 1 0.59179 7.05985 5.67973
229 1 7.01352 8.3736 1.22113
230 1 4.818 4.97812 3.46224
231 1 4.66141 1.60058 5.78938
232 1 2.3811 5.16981 1.07677
233 1 0.830293 0.0817321 4.77076
234 1 9.03382 6.33268 3.70747
235 1 0.0816175 1.98753 0.372526
236 1 2.53629 8.30301 8.06304
237 1 2.8181 4.78826 2.62166
238 1 0.558533 3.67663 8.05205
239 1 7.81674 2.55538 0.156625
240 1 7.33632 1.73254 7.04562
241 1 2.47103 0.968017 2.02983
242 1 2.05078 0.968496 8.75872
243 1 9.24113 2.09039 5.56145
244 1 8.07534 3.33964 6.83062
245 1 0.34232 4.6459 7.0839
246 1 3.96092 7.89076 1.37881
247 1 8.71842 6.53454 6.29694
248 1 4.43784 0.590802 5.83449
249 1 5.90678 4.05405 0.370974
250 1 1.13051 1.85861 1.60493
251 1 5.03961 3.32929 3.7718
252 1 8.20366 6.80995 7.1216
253 1 7.48347 5.38525 8.6399
254 1 7.17573 1.01276 3.60672
255 1 5.79099 5.35666 9.32599
256 1 7.57728 9.20271 6.42713
257 1 0.676745 1.71046 7.82458
258 1 1.46059 5.43428 4.68142
259 1 8.26452 0.893529 0.845185
260 1 5.687 2.56683 4.65751
261 1 7.83049 0.199226 1.32823
262 1 3.45353 2.52155 4.27383
263 1 3.14 0.235822 2.3311
264 1 6.60388 3.44414 0.800207
265 1 2.04664 4.27539 3.11642
266 1 4.01512 0.322627 8.60561
267 1 3.99935 0.541356 3.85456
268 1 2.35457 2.19098 4.54923
269 1 5.53397 1.77498 5.45168
270 1 4.78455 3.73357 5.69735
271 1 1.20736 8.15679 9.35411
272 1 7.32722 8.17266 3.42185
273 1 6.19583 8.72158 1.54195
274 1 5.82134 3.08532 0.314282
275 1 0.236418 3.17999 0.567487
276 1 5.05315 0.279142 7.65932
277 1 1.054 5.90169 9.15888
278 1 2.99487 0.517689 6.54415
279 1 8.02716 7.19261 2.13565
280 1 5.2238 1.13538 6.64928
281 1 2.07035 6.26168 8.00604
282 1 1.45336 4.56435 6.92123
283 1 7.46366 7.91667 8.12448
284 1 4.51617 7.65551 3.55511
285 1 8.60351 0.434315 9.02008
286 1 2.72377 3.18953 0.618047
287 1 9.21029 8.19427 8.47037
288 1 4.19937 1.83532 2.74306
289 1 1.98485 6.5098 6.32538
290 1 3.12495 0.755675 5.39638
291 1 0.953507 3.61288 6.07343
292 1 4.63842 8.8257 2.95899
293 1 6.44789 5.66849 4.56301
294 1 0.661588 1.36175 6.92629
295 1 1.25018 0.0712423 2.59172
296 1 0.705492 4.03038 5.33002
297 1 3.54112 5.69568 9.28933
298 1 4.86239 5.82746 6.07679
299 1 0.489843 7.6095 0.380498
300 1 3.09296 5.50252 6.55436
301 1 7.71798 5.86785 0.632179
302 1 4.45377 6.9355 2.35068
303 1 0.540805 8.83042 1.45886
304 1 6.49817 1.55874 3.47563
305 1 5.3293 4.83696 7.57885
306 1 5.01485 4.38824 5.04318
307 1 6.1744 0.277345 0.721601
308 1 1.71573 6.31436 3.24146
309 1 2.85045 1.74036 3.89629
310 1 0.903483 7.38368 2.04628
311 1 2.63093 3.47121 1.48268
312 1 0.794322 8.57127 8.485
313 1 5.71882 8.84567 3.06033
314 1 8.64495 8.63869 7.1716
315 1 7.84175 9.09882 5.01459
316 1 9.17665 6.91679 2.9996
317 1 6.30506 8.7867 5.49799
318 1 2.5513 7.87186 3.54203
319 1 7.8578 8.59685 7.61368
320 1 7.2584 5.8324 7.61453
321 1 1.85984 9.30864 5.94894
322 1 9.28567 2.63497 3.67266
323 1 4.16789 0.816106 0.113293
324 1 5.96798 7.93697 6.13793
325 1 1.52043 6.69225 1.26884
326 1 6.60613 0.0956519 8.4844
327 1 8.74271 1.83197 1.42004
328 1 8.4289 0.165643 4.39001
329 1 7.38008 7.84047 4.3902
330 1 7.61402 3.98385 4.3867
331 1 2.65508 3.89316 2.47622
332 1 8.8616 1.37437 6.6
333 1 6.98594 8.75932 4.65751
334 1 0.650284 5.64394 5.54932
335 1 2.6735 4.24866 7.91012
336 1 8.71056 8.84309 5.78645
337 1 8.27084 9.17552 3.12783
338 1 1.38201 5.46413 7.49666
339 1 6.75929 0.913782 6.94329
340 1 7.40765 7.03089 3.82547
341 1 4.46329 8.01709 5.53207
342 1 2.22467 1.85901 9.10013
343 1 5.26488 6.99542 2.77497
344 1 3.28531 3.85189 0.744005
345 1 4.22566 2.80115 8.72459
346 1 5.64017 7.4935 3.55712
347 1 4.6033 9.30713 4.31014
348 1 3.7152 3.23058 1.67272
349 1 9.00796 8.53381 2.89239
350 1 3.5606 1.59126 5.20113
351 1 4.7263 9.38222 9.27072
352 1 8.39916 1.08002 4.3614
353 1 3.61672 3.8322 2.54338
354 1 3.05077 5.39767 3.30606
355 1 8.90783 0.497701 0.391629
356 1 1.88669 9.05066 0.300158
357 1 4.85439 3.15058 0.881391
358 1 8.12068 3.85803 2.48683
359 1 5.47246 4.51602 3.83332
360 1 2.51953 5.57745 2.03747
361 1 5.86818 2.56016 7.58943
362 1 4.127 0.00342969 2.02976
363 1 0.405105 0.13075 0.668454
364 1 9.17823 0.679776 6.20177
365 1 1.21435 3.78012 3.54107
366 1 2.19377 3.05992 2.66324
367 1 1.38529 4.70737 2.32287
368 1 8.74328 3.94346 8.62778
369 1 8.18663 1.25703 8.62737
370 1 9.16744 2.65859 1.2885
371 1 3.2547 0.71406 8.98192
372 1 3.89907 5.75053 7.33942
373 1 4.36076 2.35312 4.21161
374 1 5.11378 0.141297 0.90295
375 1 3.28089 5.29046 4.87055
376 1 5.17418 3.02455 7.40706
377 1 5.62984 4.27515 6.46257
378 1 6.39589 0.959704 1.59127
379 1 5.16329 4.71311 0.169296
380 1 3.49854 3.91784 3.98959
381 1 2.27989 1.64234 5.27184
382 1 5.79183 8.05295 7.8395
383 1 6.26583 7.662 2.97463
384 1 9.07557 2.2938 4.55611
385 1 9.08442 3.11754 8.26877
386 1 4.61407 6.49025 7.88365
387 1 1.81884 2.86121 7.0584
388 1 3.83618 0.554067 4.93369
389 1 6.22382 1.81966 1.03675
390 1 8.36809 7.32264 9.38274
391 1 6.62843 6.82141 1.05155
392 1 1.23983 4.02324 8.64303
393 1 2.66667 6.11383 4.62418
394 1 8.12057 4.70825 6.38043
395 1 5.06699 8.52764 3.86346
396 1 0.481034 2.66073 8.07034
397 1 7.65927 2.42145 6.37519
398 1 3.9118 6.47011 3.38021
399 1 8.71468 8.92265 8.19889
400 1 0.461823 8.33581 3.67916
401 1 9.28555 0.0783703 5.57784
402 1 6.91103 5.73377 5.37268
403 1 0.836663 8.32373 7.62126
404 1 5.13809 8.50969 9.1779
405 1 2.08049 0.865064 2.83287
406 1 9.12424 3.68709 5.55575
407 1 9.22837 3.53741 4.36146
408 1 7.46201 6.8273 0.552739
409 1 5.34646 8.82107 7.41685
410 1 5.23439 4.28997 8.28505
411 1 7.04225 0.139311 1.87326
412 1 0.067458 3.48694 3.46853
413 1 6.2632 6.60631 7.06457
414 1 5.48993 8.75176 0.525309
415 1 0.439865 0.661523 7.61911
416 1 2.50127 2.73623 9.25128
417 1 0.843417 1.42327 3.86699
418 1 5.61211 0.108661 0.118754
419 1 3.55087 6.52881 2.58662
420 1 1.93444 0.468732 6.81252
421 1 6.7842 0.0812097 7.40472
422 1 8.69462 2.56781 2.05715
423 1 6.87389 1.72294 0.29133
424 1 5.67928 5.58495 3.62445
425 1 5.43403 6.09092 4.71341
426 1 6.95582 7.6258 0.915433
427 1 8.16613 1.47976 5.8739
428 1 0.836814 5.04083 8.59961
429 1 3.2342 4.44052 4.6375
430 1 4.84178 5.53571 9.11696
431 1 5.08829 6.48911 6.79043
432 1 5.12194 5.29531 5.35066
433 1 0.0259724 3.14894 7.29888
434 1 0.824353 2.98434 3.40899
435 1 6.91863 2.0191 2.9126
436 1 4.70491 1.60756 3.66965
437 1 2.51774 0.838758 0.423445
438 1 8.93637 4.83132 0.817385
439 1 0.157069 7.54487 6.73256
440 1 7.10255 7.06901 1.93368
441 1 4.68598 6.27505 5.17595
442 1 8.6509 3.1459 2.76802
443 1 2.84146 0.276975 4.24916
444 1 7.60534 3.14743 3.87243
445 1 8.22895 1.79349 5.08915
446 1 5.6714 0.41399 8.67327
447 1 7.29718 2.32826 3.64608
448 1 6.82165 4.46219 4.69288
449 1 2.89347 5.93248 5.72242
450 1 9.20209 5.41489 4.08605
451 1 6.59285 5.30586 8.80429
452 1 6.8036 3.94861 5.46625
453 1 0.250057 2.41673 2.07746
454 1 1.52702 2.54775 8.65633
455 1 4.22943 5.24092 5.5071
456 1 9.37738 4.8373 7.9301
457 1 1.57877 4.4672 1.12042
458 1 4.92871 7.71202 4.45071
459 1 0.139983 9.04186 4.4657
460 1 3.36297 3.9747 5.39994
461 1 3.40283 1.8261 2.03168
462 1 5.86299 5.50206 1.71011
463 1 5.11646 2.25364 2.58321
464 1 1.48944 3.58934 4.41941
465 1 6.86617 4.8203 5.47469
466 1 8.52689 4.89343 1.68334
467 1 2.40403 9.25974 7.36872
468 1 3.11421 3.79586 8.52305
469 1 2.30953 4.53182 1.66342
470 1 2.79828 5.83026 7.585
471 1 2.69704 6.07722 0.162526
472 1 4.33699 6.09503 0.514503
473 1 1.16351 3.26299 2.62897
474 1 7.52385 0.494806 4.68612
475 1 3.08056 4.20155 3.27135
476 1 1.76323 0.518138 1.91469
477 1 3.27349 3.28327 3.37799
478 1 0.688829 6.66319 1.09485
479 1 7.425 0.209292 8.93682
480 1 8.45713 6.43309 8.84419
481 1 2.64262 3.65678 7.21764
482 1 8.37272 8.05125 4.33203
483 1 0.681433 4.16197 1.82634
484 1 2.0908 5.93953 5.29747
485 1 8.06719 5.03274 0.884517
486 1 6.06986 4.77936 7.10278
487 1 1.33761 1.65671 8.44779
488 1 3.37382 5.30345 7.98007
489 1 7.07093 3.23841 6.56459
490 1 7.54576 1.75282 4.28965
491 1 1.74838 0.105838 3.74209
492 1 7.57864 3.77251 8.98727
493 1 6.18601 1.57965 6.15861
494 1 6.9241 6.1803 0.302692
495 1 6.5033 6.49805 4.1034
496 1 5.03371 1.81439 4.737
497 1 4.47247 3.05137 6.80165
498 1 1.45761 0.405192 7.71133
499 1 4.63981 4.65553 6.02272
500 1 6.58754 1.77777 4.43256
501 1 3.97482 3.49398 5.04145
502 1 2.71237 0.717528 7.72142
503 1 5.77276 3.69206 3.13415
504 1 7.50411 6.47595 5.76298
505 1 9.28875 8.04452 6.00678
506 1 2.52057 2.36237 8.45302
507 1 6.41301 4.51458 1.74022
508 1 3.8924 6.57325 1.54604
509 1 7.50145 4.57828 7.96501
510 1 6.99514 2.32899 1.3387
511 1 4.82007 0.992384 5.07941
512 1 2.76304 0.454072 1.29753
513 1 2.89806 0.82663 3.49219
514 1 5.2579 5.8674 7.77347
515 1 3.59208 0.705633 7.23921
516 1 5.03935 7.3369 5.89194
517 1 0.367761 7.84845 5.14396
518 1 6.35045 6.3332 1.76378
519 1 5.76429 6.85716 5.78391
520 1 3.2715 2.79086 8.48282
521 1 4.73784 6.10734 1.3608
522 1 8.17665 4.74765 8.55119
523 1 5.1251 8.18347 6.68645
524 1 5.66904 3.67166 2.27913
525 1 2.39282 0.951194 5.89123
526 1 1.69248 4.64822 3.88543
527 1 4.31807 6.85449 4.45649
528 1 6.76154 2.32148 6.26942
529 1 0.196493 1.11566 0.614832
530 1 4.71366 2.03839 7.28884
531 1 0.464604 4.28458 2.79665
532 1 2.94731 1.58829 1.25799
533 1 9.31038 9.04022 7.53108
534 1 7.84271 8.06853 6.79111
535 1 7.47567 1.74349 8.11174
536 1 3.8839 8.34323 8.21904
537 1 9.1432 6.97497 1.65354
538 1 8.0049 0.55995 3.49042
539 1 3.23196 9.11822 8.93005
540 1 5.71279 6.77911 9.24865
541 1 5.99718 2.6638 6.6561
542 1 7.93192 2.34527 1.11157
543 1 7.2293 8.8649 5.67828
544 1 7.48187 3.90453 1.52122
545 1 5.61257 6.77092 4.26187
546 1 6.34781 0.0480307 3.25865
547 1 2.48747 6.03424 2.80707
548 1 6.2461 2.25122 9.30023
549 1 8.15238 8.63485 0.410597
550 1 4.16602 7.55689 7.80406
551 1 0.181606 4.26159 8.6214
552 1 4.43826 1.24501 7.73652
553 1 6.55687 0.577721 6.10039
554 1 5.51469 4.59502 2.03777
555 1 2.43463 4.29021 0.773347
556 1 5.36608 6.22719 0.451417
557 1 2.84738 2.43871 2.99756
558 1 3.29682 6.93016 4.44893
559 1 6.97738 3.65024 2.77329
560 1 5.84001 6.95241 0.725489
561 1 5.15334 2.9275 6.28129
562 1 2.16287 8.28318 6.72175
563 1 5.79111 8.09859 4.24522
564 1 4.44139 1.19761 8.62894
565 1 5.79459 1.31703 4.76489
566 1 7.94291 2.03675 3.00464
567 1 1.74536 3.99242 0.0634912
568 1 5.68373 6.48613 3.3777
569 1 0.638718 6.19332 7.56629
570 1 5.91322 3.34256 5.02563
571 1 1.06124 2.69603 6.15601
572 1 3.954 3.04403 0.726415
573 1 3.46488 6.17225 8.41339
574 1 7.14722 6.98584 4.73247
575 1 3.92664 4.95188 6.86828
576 1 0.455332 6.47105 6.51303
577 1 6.67319 6.52237 6.07767
578 1 4.05949 0.613491 2.80798
579 1 6.81147 0.68632 2.6668
580 1 6.20595 6.09044 9.02376
581 1 8.11172 3.6028 0.518335
582 1 7.72567 5.29287 2.95587
583 1 4.39724 6.81157 6.2566
584 1 6.63135 6.98321 8.67516
585 1 4.16989 2.56608 5.07083
586 1 4.27011 3.58822 3.17368
587 1 3.69338 7.03603 8.48271
588 1 1.77585 8.32854 3.67829
589 1 2.13605 6.67942 2.19905
590 1 8.65016 2.9066 0.632128
591 1 2.18935 3.44788 3.51506
592 1 7.49085 7.38971 9.09708
593 1 8.50374 0.442608 8.05987
594 1 4.98344 0.0852467 3.45922
595 1 0.739753 2.28328 5.11447
596 1 1.13069 3.41322 1.39386
597 1 6.82261 7.14772 6.63382
598 1 7.83135 1.91602 1.97777
599 1 2.09171 1.54359 1.41258
600 1 9.0072 5.41744 5.33716
601 1 5.19021 7.51213 2.0046
602 1 1.33714 4.53446 4.71726
603 1 1.18919 2.67318 0.262302
604 1 1.25628 6.03893 2.45239
605 1 7.07337 4.5569 8.82487
606 1 6.58083 4.65834 0.205811
607 1 7.40085 3.15503 1.03356
608 1 5.75292 3.59884 8.89591
609 1 8.26058 3.1843 8.91054
610 1 0.802065 2.85512 7.06806
611 1 9.14867 1.07198 8.37127
612 1 8.6487 6.51034 7.88522
613 1 1.49177 0.704614 4.30637
614 1 4.12587 9.36787 7.86155
615 1 7.19727 9.15957 0.641902
616 1 2.99955 7.82244 0.49337
617 1 6.55702 7.98868 8.44375
618 1 1.78666 1.39155 0.507997
619 1 8.78625 3.46808 1.88449
620 1 6.80932 8.11794 6.31697
621 1 8.20563 1.12995 1.68787
622 1 3.71103 2.00385 1.27516
623 1 7.18358 2.1055 8.92666
624 1 3.97577 7.93904 2.93428
625 1 7.91644 7.67559 0.894382
626 1 2.11017 3.05688 6.14827
627 1 4.59974 1.4957 0.739729
628 1 8.97911 0.400963 7.21962
629 1 1.85649 3.92091 7.53279
630 1 4.87443 2.30842 1.25644
631 1 3.23819 1.76678 8.87346
632 1 0.777497 2.50682 1.08062
633 1 2.30104 3.61551 8.69505
634 1 0.181803 5.52346 6.40818
635 1 7.4455 0.353375 5.6373
636 1 5.95267 2.38934 2.82422
637 1 2.88378 1.50732 6.49611
638 1 1.53692 7.99977 4.51443
639 1 9.26331 7.96139 4.29257
640 1 4.82955 8.02942 8.39331
641 1 1.25714 8.50972 2.962
642 1 4.74668 3.1054 9.42457
643 1 3.46421 2.52484 7.28305
644 1 1.63689 4.63643 8.01928
645 1 8.59961 7.66357 6.65086
646 1 1.25234 8.23646 1.9073
647 1 1.09148 8.75999 4.26875
648 1 5.10006 4.1728 0.998916
649 1 6.42377 5.0329 3.60029
650 1 5.95625 7.46519 6.95101
651 1 6.30725 7.714 1.97104
652 1 0.255078 7.72073 1.41642
653 1 8.2946 6.49611 0.365754
654 1 2.42463 1.94341 2.15958
655 1 8.23593 8.09762 5.85615
656 1 8.47188 5.88413 1.37997
657 1 7.16864 2.92863 8.71632
658 1 5.53924 2.22046 0.37878
659 1 9.15253 1.72486 2.32824
660 1 0.511037 6.06726 3.74977
661 1 1.51168 2.48147 2.65095
662 1 5.85148 3.49471 7.09109
663 1 2.37142 2.56586 3.73064
664 1 0.448908 3.36851 8.94529
665 1 1.99839 5.63248 3.83627
666 1 9.28318 0.826041 2.56278
667 1 8.26517 2.29835 8.7114
668 1 8.56417 4.61448 7.37779
669 1 5.02359 3.84718 7.5207
670 1 2.39849 9.26385 8.38593
671 1 4.48449 4.20427 3.86932
672 1 2.26707 4.85671 7.04797
673 1 8.53237 7.35335 8.331
674 1 3.53459 6.66277 7.67292
675 1 1.08859 6.0076 8.29716
676 1 0.331233 2.27681 6.55747
677 1 4.23286 7.10984 5.45046
678 1 9.11301 2.17442 7.21714
679 1 4.28329 2.947 7.74244
680 1 8.14309 6.94048 4.53738
681 1 3.57905 7.30041 1.91339
682 1 1.46616 7.63498 2.6498
683 1 1.71783 3.69508 6.58886
684 1 5.10298 3.05712 1.94873
685 1 8.5055 1.07897 7.47652
686 1 3.2409 4.74199 1.03132
687 1 2.82828 7.98883 4.44529
688 1 3.03952 2.34253 0.748969
689 1 3.5629 3.51503 9.39769
690 1 2.12787 5.73756 6.98207
691 1 2.2052 1.97372 7.06173
692 1 2.86875 7.86224 5.45283
693 1 7.92251 6.07595 8.18426
694 1 4.24549 6.89565 7.21687
695 1 3.63343 4.90085 2.1701
696 1 9.07773 4.78129 6.38626
697 1 3.39219 4.22711 6.6983
698 1 3.78691 8.59945 5.38006
699 1 3.76791 9.40275 0.299017
700 1 2.05431 8.10644 0.225272
701 1 5.80194 5.31722 2.56374
702 1 6.35398 1.01405 5.3328
703 1 6.91513 5.93598 6.70818
704 1 4.93225 8.378 1.29859
705 1 0.371185 8.45034 6.74346
706 1 5.47721 5.07003 4.61805
707 1 7.64722 2.67767 7.9965
708 1 3.45086 0.943983 1.6987
709 1 3.53992 8.58219 0.764939
710 1 8.81083 4.35998 3.09497
711 1 3.49403 6.72695 0.0539951
712 1 1.09653 7.62587 3.68009
713 1 7.39183 2.14294 5.5315
714 1 9.13657 7.60481 9.17902
715 1 7.61515 8.00578 1.72868
716 1 7.60511 0.778701 6.54146
717 1 9.02081 3.45553 0.0295331
718 1 4.73365 3.50443 8.3429
719 1 1.41318 8.7502 5.14879
720 1 0.394535 7.56216 3.09882
721 1 3.27807 7.30894 6.97662
722 1 3.45432 6.48211 6.80824
723 1 6.44717 6.06317 2.84435
724 1 8.89945 0.54989 3.59053
725 1 4.73358 4.60599 6.9014
726 1 1.28871 7.97132 0.97029
727 1 2.42658 8.25132 2.16853
728 1 8.89095 5.71235 0.393063
729 1 1.75876 7.46083 1.77149
730 1 7.53179 6.14766 4.80788
731 1 7.26026 9.02293 3.04179
732 1 2.27282 7.48176 8.77717
733 1 6.35916 7.2716 7.83067
734 1 6.53769 7.70063 9.37297
735 1 7.99758 0.124421 7.06857
736 1 9.01612 8.48762 1.72953
737 1 1.64118 2.11491 3.56279
738 1 6.31176 3.35264 6.09387
739 1 8.92718 8.62841 3.83755
740 1 2.56122 4.53133 3.96413
741 1 9.04141 3.22539 6.37103
742 1 3.577 9.27613 1.33586
743 1 4.22115 1.31237 1.66986
744 1 0.144454 4.01816 6.31679
745 1 3.60832 4.91514 3.9491
746 1 5.60071 1.54304 3.23388
747 1 7.83265 7.47252 3.15876
748 1 2.95994 6.3301 1.77596
749 1 4.86342 6.85352 3.65199
750 1 3.00632 6.9441 1.02975
751 1 4.8245 6.27331 2.82496
752 1 1.67994 1.58538 2.55576
753 1 5.97605 5.84374 5.50374
754 1 8.09949 5.64176 2.17972
755 1 7.47934 4.35768 2.71537
756 1 7.5323 3.5641 8.01551
757 1 3.80159 1.68389 7.07706
758 1 5.79209 0.464449 4.95348
759 1 5.18862 6.95144 5.01601
760 1 0.486695 6.23553 4.68839
761 1 2.06661 5.25035 2.86224
762 1 0.92466 6.82475 3.01378
763 1 3.60042 7.57389 4.96086
764 1 7.691 8.21798 5.10021
765 1 5.88803 4.72304 5.51856
766 1 6.4964 0.7587 4.27021
767 1 5.93127 0.110214 7.47694
768 1 1.25784 0.938627 6.26391
769 1 0.790419 7.19296 7.54289
770 1 2.62457 1.50655 2.9916
771 1 4.34673 4.19405 7.82824
772 1 4.03441 5.90434 2.1722
773 1 2.11009 4.59882 8.93325
774 1 0.335285 5.18094 4.72492
775 1 0.725126 3.83383 4.24476
776 1 4.97702 3.97308 9.13221
777 1 1.10975 0.395048 5.56298
778 1 0.328354 6.89968 8.45435
779 1 0.394142 1.25333 9.00557
780 1 2.11213 4.11569 4.61527
781 1 4.34229 5.0381 0.308697
782 1 3.58238 4.53034 9.32976
783 1 0.262692 1.81337 1.27144
784 1 4.13257 7.89829 6.88809
785 1 5.73344 9.07337 3.97592
786 1 6.07827 2.92876 2.04624
787 1 4.46492 8.32267 2.08951
788 1 4.16365 5.59803 3.08115
789 1 6.39406 5.56999 0.71038
790 1 5.5077 5.17005 6.26298
791 1 4.82673 3.90547 2.10948
792 1 5.22473 8.42297 5.59484
793 1 5.58155 0.252193 1.62751
794 1 0.439489 3.14227 4.87176
795 1 1.72365 6.40701 4.59904
796 1 1.18436 1.73789 9.32035
797 1 8.96374 5.05786 8.83716
798 1 8.81366 7.95598 5.09772
799 1 1.07751 0.71879 3.15236
800 1 5.35826 7.62403 9.17431
801 2 6.70717 5.46529 1.54502
802 2 2.80349 4.10776 9.36325
803 2 2.13493 5.48509 6.10594
804 2 6.20512 8.45138 7.16252
805 2 4.54622 4.74285 1.62505
806 2 1.64781 5.44628 8.64769
807 2 1.48701 3.26789 7.9252
808 2 6.92039 5.34158 2.45206
809 2 0.85075 1.88819 5.94802
810 2 8.20213 8.29502 3.41124
811 2 7.18871 8.64863 7.0288
812 2 5.34065 1.0645 8.08136
813 2 2.96671 1.20839 4.53239
814 2 1.69425 3.76718 1.99534
815 2 8.2515 0.539231 5.25319
816 2 4.80629 1.96771 8.20853
817 2 0.746401 7.66571 8.65186
818 2 4.17863 3.97947 0.467354
819 2 1.93671 9.22583 4.62061
820 2 4.92072 6.98756 0.155089
821 2 9.10224 6.79359 4.4404
822 2 1.111 0.707501 0.380845
823 2 5.81252 2.75557 5.71518
824 2 1.62321 7.44898 6.1825
825 2 4.56087 9.21174 5.37928
826 2 7.06051 0.666255 0.827141
827 2 4.12707 1.57402 4.42136
828 2 6.84639 5.08533 7.17315
829 2 6.22379 4.98505 8.02583
830 2 4.90336 3.51405 4.76894
831 2 0.107767 3.347 2.40683
832 2 3.36761 9.01517 7.0364
833 2 9.14555 4.49448 4.06821
834 2 7.06114 8.66937 2.14897
835 2 8.38433 3.57489 7.87276
836 2 0.153238 0.38992 9.1465
837 2 5.6984 7.78658 5.18218
838 2 6.63787 7.58278 3.90343
839 2 4.63203 0.221592 6.69025
840 2 8.20172 9.04237 8.91336
841 2 4.84036 8.95641 8.27309
842 2 1.60512 8.89298 7.89769
843 2 9.27072 5.71528 1.87738
844 2 0.840994 5.18397 0.935849
845 2 7.31573 8.23295 0.30861
846 2 6.77404 8.75453 7.90135
847 2 4.64832 2.52634 3.29949
848 2 0.392498 5.22109 0.105698
849 2 3.52222 1.27019 8.03249
850 2 2.48103 7.23465 6.2787
851 2 9.09589 0.925654 1.37462
852 2 2.39134 5.18626 4.54018
853 2 8.54658 3.83893 5.02551
854 2 1.92987 7.16111 3.73676
855 2 7.24465 1.53261 6.16805
856 2 7.24597 6.09512 3.43327
857 2 3.96322 4.47628 3.10134
858 2 1.33134 3.19858 5.29708
859 2 8.7015 6.21179 2.3869
860 2 5.60727 3.60143 1.35122
861 2 4.15679 8.64352 9.09404
862 2 7.0211 8.75988 8.97418
863 2 0.75849 5.54099 1.72553
864 2 1.51831 7.12176 8.93048
865 2 8.97473 2.20772 3.03663
866 2 6.91243 1.55304 2.06911
867 2 0.48835 0.402347 6.54283
868 2 8.3242 3.0335 4.41885
869 2 6.24101 8.1001 0.755589
870 2 8.85235 5.47755 3.24703
871 2 7.9552 8.8245 4.16188
872 2 9.24423 6.83674 7.25634
873 2 7.08292 0.890898 8.50335
874 2 9.28184 5.0619 2.59295
875 2 1.85272 8.80096 1.33118
876 2 1.06891 6.78444 4.03749
877 2 6.55603 4.30299 6.48695
878 2 8.1365 6.36016 3.09165
879 2 0.140868 5.78059 0.877377
880 2 9.30366 9.37598 3.03548
881 2 8.40674 0.197131 6.25648
882 2 5.35827 2.67016 8.56887
883 2 5.4261 6.5469 1.79123
884 2 8.87368 9.30207 2.07694
885 2 5.48706 9.43328 5.62571
886 2 6.8853 6.03478 8.38778
887 2 8.05292 7.7024 7.57542
888 2 2.84096 7.29624 2.80325
889 2 4.02041 7.06808 0.856722
890 2 4.58848 5.96949 3.83998
891 2 4.34313 1.11886 6.7114
892 2 1.71059 4.99802 0.219446
893 2 1.55367 0.135762 8.58192
894 2 4.54814 8.63337 6.2063
895 2 5.13112 1.63503 2.00396
896 2 8.3502 1.85605 7.87024
897 2 0.518219 4.2273 0.936422
898 2 7.59674 5.11476 0.0578866
899 2 1.56019 5.67063 1.44552
900 2 3.29165 7.28025 3.48659
901 2 6.54023 8.57573 3.90907
902 2 5.33497 8.94636 4.86146
903 2 7.10284 7.74135 2.57851
904 2 9.1056 2.6306 9.14412
905 2 0.703574 1.33495 2.56443
906 2 6.27123 5.68762 7.33391
907 2 0.194379 7.16107 3.84931
908 2 6.7319 2.72854 4.49178
909 2 2.83471 7.05334 7.92996
910 2 6.57938 8.51849 2.88983
911 2 9.26541 6.58446 9.32422
912 2 4.2634 3.11411 2.36907
913 2 3.66851 5.99783 4.22176
914 2 4.37334 5.1611 7.80752
915 2 4.73737 1.99296 9.10744
916 2 1.93928 1.77062 6.17962
917 2 4.30368 2.24617 6.35545
918 2 8.36097 1.22984 2.60176
919 2 5.05129 5.55951 2.04492
920 2 4.79731 0.588972 1.59034
921 2 6.65705 3.53958 9.05636
922 2 5.83383 2.55136 1.23272
923 2 7.3491 1.33374 5.12342
924 2 3.28709 5.81214 0.827552
925 2 6.58649 3.98341 3.6803
926 2 7.98242 8.17979 2.51298
927 2 8.77063 8.83117 4.83675
928 2 9.35376 4.31306 0.140898
929 2 3.38843 5.53902 1.63811
930 2 1.05028 7.75669 6.88836
931 2 9.082 6.52713 0.808613
932 2 4.81743 5.5412 6.95025
933 2 8.92503 1.47385 9.24341
934 2 1.65568 7.24312 5.00077
935 2 2.68266 8.75606 4.0161
936 2 3.75564 1.73321 0.463882
937 2 4.3067 8.90334 1.08063
938 2 3.68522 1.09821 6.05923
939 2 7.72732 4.39952 5.39168
940 2 1.55765 2.66861 4.33411
941 2 3.23003 8.40357 3.21881
942 2 1.05068 0.118747 1.37223
943 2 5.03882 8.99818 2.19113
944 2 8.38311 2.76691 7.44802
945 2 7.08187 4.9077 0.876338
946 2 5.12307 6.24672 8.60854
947 2 3.31421 3.96605 1.70039
948 2 2.03129 1.26022 3.71089
949 2 4.13103 8.80327 3.69423
950 2 1.54798 2.29277 5.46323
951 2 8.237 8.78693 1.64298
952 2 0.837715 4.72702 6.29895
953 2 7.4361 5.20608 4.65897
954 2 9.07956 3.89599 0.8829
955 2 1.57194 1.72978 4.61753
956 2 9.05215 7.88053 7.44099
957 2 8.37933 2.08387 4.15635
958 2 4.0109 3.96053 8.74601
959 2 3.04013 8.0398 8.87051
960 2 2.2253 6.18711 0.976746
961 2 6.18218 6.79209 4.97254
962 2 2.44954 0.0704863 3.09117
963 2 8.24979 5.14227 3.84423
964 2 3.35815 0.957388 0.583068
965 2 4.28157 5.13298 4.50372
966 2 8.21031 4.43542 9.41
967 2 0.468946 2.06344 8.85409
968 2 6.2142 9.21269 2.3279
969 2 2.67916 8.42303 1.22509
970 2 3.03453 3.03044 5.66485
971 2 7.99305 5.36356 5.56584
972 2 1.35414 2.06645 6.8102
973 2 0.75955 5.24937 2.67375
974 2 0.862028 9.23927 7.09467
975 2 6.31459 2.79681 8.5388
976 2 3.92085 2.1118 8.21458
977 2 7.31933 6.99886 7.48851
978 2 5.01178 5.34485 0.832077
979 2 1.18253 5.58719 3.35499
980 2 6.978 2.93474 5.47009
981 2 5.34365 5.18113 8.51313
982 2 6.41146 8.85496 0.253954
983 2 1.93052 8.00102 5.53364
984 2 0.497491 1.29804 4.72693
985 2 3.69138 8.02909 3.99525
986 2 8.29954 3.97444 1.2842
987 2 8.36373 2.66466 3.52509
988 2 6.42917 4.57941 2.69753
989 2 4.28883 8.37469 4.57395
990 2 3.92216 3.69411 7.2302
991 2 8.65051 2.44175 6.40738
992 2 7.60078 6.24437 9.10593
993 2 0.381105 0.487013 4.04751
994 2 9.14134 1.50158 4.18012
995 2 8.18076 3.63611 5.92825
996 2 5.00035 0.795937 0.222848
997 2 7.38821 6.16419 2.39732
998 2 7.35947 5.15003 6.28097
999 2 4.0955 3.90655 6.12945