#bin. KALJ data file T=0.5

1000 atoms
2 atom types

0 9.4 xlo xhi
0 9.4 ylo yhi
0 9.4 zlo zhi

Masses

1 1.0
2 1.0

Atoms

1 1 0.134549 9.06628 9.09638
2 1 0.780199 6.44819 7.76846
3 1 4.21216 0.592113 2.05805
4 1 8.10246 0.210822 3.86892
5 1 5.28177 8.90572 3.89939
6 1 1.05181 3.73232 1.9539
7 1 1.7048 7.82664 5.27521
8 1 8.87456 5.85512 3.31102
9 1 2.69745 2.56475 0.108755
10 1 5.60421 1.20075 3.03222
11 1 8.01045 4.72765 2.10793
12 1 0.0237866 5.57837 0.960802
13 1 5.80137 3.00736 7.95745
14 1 6.28613 1.28892 7.33838
15 1 3.06617 3.27925 7.63406
16 1 6.18759 7.14449 5.92284
17 1 3.66624 1.54341 0.700564
18 1 7.99715 3.19431 0.0490443
19 1 4.41114 6.16677 0.387049
20 1 0.146805 0.279867 0.907769
21 1 1.28572 6.8155 6.49882
22 1 1.76196 0.778161 3.88161
23 1 2.46016 2.95666 1.04591
24 1 5.90676 6.28966 2.3749
25 1 3.08907 5.83805 5.88331
26 1 5.2839 0.266413 3.46177
27 1 2.76376 9.1582 9.28034
28 1 0.0968394 5.9214 7.13681
29 1 2.80233 1.09736 5.02414
30 1 1.01786 4.18603 3.40827
31 1 4.76538 5.3403 5.92828
32 1 9.33994 7.27297 9.22875
33 1 5.83789 1.63639 8.80759
34 1 8.28136 6.71073 6.97014
35 1 5.31361 5.19163 6.81604
36 1 5.67457 8.90433 2.07879
37 1 7.69656 2.18805 9.29312
38 1 3.6342 9.04433 0.890333
39 1 6.71127 3.92828 1.81331
40 1 6.44952 3.19455 4.45853
41 1 5.14264 5.34039 0.191046
42 1 2.15425 2.14694 5.13482
43 1 7.59766 3.05375 2.78075
44 1 4.11446 2.9579 2.32391
45 1 6.48242 5.64768 4.34997
46 1 6.23032 0.986522 6.24712
47 1 5.4991 2.08322 2.84935
48 1 8.21573 1.293 2.49113
49 1 5.23738 4.11484 2.06692
50 1 2.62507 3.34401 3.99948
51 1 7.31079 6.41039 7.8669
52 1 2.33274 2.1772 8.78529
53 1 0.846484 3.41513 2.74853
54 1 1.391 5.24343 1.94363
55 1 5.96152 6.46951 4.38917
56 1 0.662285 6.69163 2.08333
57 1 0.0930557 2.64273 5.95498
58 1 0.83988 5.7943 3.93979
59 1 0.879023 8.60073 3.28779
60 1 1.30859 0.478626 7.0241
61 1 3.54874 8.07444 0.208046
62 1 5.58995 3.63541 0.149708
63 1 8.47699 3.77707 1.21447
64 1 8.9495 5.34204 7.75637
65 1 7.70784 4.65233 4.95182
66 1 4.5108 0.516361 0.982218
67 1 3.05046 6.86803 7.20258
68 1 4.35884 4.67597 5.31314
69 1 6.9357 6.3279 2.80587
70 1 3.00559 1.30207 0.104766
71 1 5.20573 3.09384 3.80472
72 1 2.45701 7.10388 4.95382
73 1 1.01714 4.58464 5.50355
74 1 8.93052 3.44443 7.57238
75 1 7.16413 2.05641 2.08808
76 1 4.51738 7.71401 8.73915
77 1 9.00247 0.0381091 3.88176
78 1 0.68782 3.12485 -0.0439632
79 1 2.78577 2.61132 1.85709
80 1 6.32149 4.12634 5.8537
81 1 8.04492 8.81334 4.31868
82 1 3.25563 7.1157 6.38532
83 1 2.11328 1.03606 6.78233
84 1 6.49538 6.35482 8.74993
85 1 0.409937 0.922468 8.19372
86 1 1.4595 2.60583 1.44148
87 1 6.50598 5.15084 5.0946
88 1 3.81322 0.664981 7.35408
89 1 6.71294 7.31657 2.79438
90 1 9.22197 9.07398 6.52977
91 1 7.4271 1.56481 8.67382
92 1 7.50647 5.518 2.0608
93 1 5.57946 4.39027 7.02719
94 1 2.04627 7.85978 4.40501
95 1 8.84774 4.3156 2.07101
96 1 1.34387 1.77249 6.8909
97 1 4.65542 7.67368 1.70331
98 1 8.61798 8.29916 7.66131
99 1 6.45716 0.172271 2.49109
100 1 0.963476 2.56305 4.41976
101 1 0.951839 8.70841 8.54195
102 1 1.9967 3.12244 8.87087
103 1 1.16613 2.40469 6.00439
104 1 2.05168 8.50986 3.50074
105 1 4.38861 0.19218 3.91124
106 1 5.3874 0.722722 7.11336
107 1 7.30884 9.12034 2.3764
108 1 3.6481 9.20351 7.40416
109 1 6.34187 7.28092 6.86887
110 1 2.08356 3.89022 5.75223
111 1 8.16011 5.00896 6.63686
112 1 7.88635 5.76379 5.74554
113 1 2.43875 0.542495 0.429076
114 1 2.3443 0.216861 5.08757
115 1 3.49787 2.84453 2.99164
116 1 7.22053 5.13467 6.96488
117 1 2.31002 0.128367 6.99359
118 1 6.47053 0.861519 2.97501
119 1 4.61851 2.22378 3.403
120 1 5.18253 7.5303 0.306355
121 1 2.97285 1.4252 6.27785
122 1 4.55964 5.63282 4.63038
123 1 6.44949 3.02181 2.71275
124 1 6.33527 7.26863 3.56488
125 1 5.45278 3.97135 3.94359
126 1 2.26167 7.88452 1.71305
127 1 6.04472 0.0730019 0.0370068
128 1 7.82809 5.81171 3.21944
129 1 7.37836 4.12736 8.74811
130 1 6.67844 5.56803 5.88997
131 1 2.33326 2.85053 7.43053
132 1 2.34776 8.14066 8.26722
133 1 4.2002 2.89856 5.0487
134 1 3.87441 3.17676 6.04137
135 1 3.46452 4.74877 5.55497
136 1 1.82051 5.76122 7.97801
137 1 4.41453 3.99472 4.06085
138 1 8.92168 9.19994 1.55813
139 1 0.845103 7.69273 3.79289
140 1 3.83271 5.15176 1.38343
141 1 7.52095 6.2471 0.604801
142 1 8.2454 6.92336 1.90417
143 1 2.30886 3.81419 1.09777
144 1 6.55181 1.23414 8.20233
145 1 2.7241 1.89794 2.69137
146 1 8.87979 7.1749 3.82873
147 1 6.31222 4.56641 2.57935
148 1 8.94957 4.43502 7.09769
149 1 3.64623 7.12175 5.51483
150 1 6.0697 6.91698 0.0679434
151 1 8.98932 5.32658 5.84374
152 1 4.64921 6.81651 1.1026
153 1 4.74918 6.87798 9.11619
154 1 0.477772 6.14943 6.28111
155 1 8.87434 1.29485 6.52802
156 1 7.56503 6.4363 4.2118
157 1 6.611 7.60117 0.18763
158 1 7.22997 7.1669 1.7952
159 1 0.302251 7.78432 0.889754
160 1 5.9178 6.03764 0.0509549
161 1 8.90845 2.2278 5.20466
162 1 6.96493 9.33898 3.41575
163 1 8.20749 8.56751 0.496293
164 1 4.8376 3.04438 7.96827
165 1 4.46017 0.0537765 7.0578
166 1 5.35892 6.1431 8.83791
167 1 9.08943 8.34051 0.497625
168 1 3.56503 9.16414 8.78917
169 1 4.94547 6.54768 1.93874
170 1 3.60293 7.61446 8.69576
171 1 4.73279 3.32435 4.50484
172 1 0.552889 5.20838 1.638
173 1 0.865586 8.72507 2.30406
174 1 0.400729 8.95024 7.21415
175 1 4.69472 2.35244 2.48415
176 1 8.23222 9.15124 3.11459
177 1 8.88632 2.95502 1.33579
178 1 0.484008 4.66955 7.37406
179 1 8.85127 2.13864 4.12466
180 1 6.16001 2.12521 7.40268
181 1 0.0333303 7.68088 7.51851
182 1 9.42081 3.55142 2.00211
183 1 0.935947 3.33524 8.522
184 1 2.02775 2.24293 2.17306
185 1 4.20817 8.2978 5.79683
186 1 3.68826 5.91019 0.794009
187 1 2.78548 5.24483 1.31635
188 1 6.86785 8.30874 3.42903
189 1 3.9423 4.35134 0.240542
190 1 2.6557 0.685883 4.18799
191 1 6.33193 1.73463 3.2326
192 1 3.39339 3.62921 9.29442
193 1 4.1085 3.53612 6.81479
194 1 3.04572 7.61513 7.87118
195 1 2.5181 8.42486 4.90518
196 1 3.5319 5.41319 7.07923
197 1 1.33207 0.0852112 5.39193
198 1 7.52185 4.71777 8.06596
199 1 6.60001 0.554212 0.873649
200 1 8.72852 1.03226 9.25329
201 1 8.92607 0.401816 2.32308
202 1 3.46481 5.13658 4.54059
203 1 9.02453 9.30404 7.47975
204 1 8.38201 7.36199 5.12923
205 1 2.17152 7.75989 2.604
206 1 1.43706 8.30628 9.31111
207 1 0.903192 2.6115 2.41254
208 1 6.31669 6.93358 1.87523
209 1 4.22213 7.86859 7.73469
210 1 7.56332 9.00564 9.01644
211 1 0.228779 4.86152 8.73678
212 1 7.28301 0.597756 3.9552
213 1 1.92183 3.66034 3.4606
214 1 9.06837 4.54111 8.0357
215 1 5.23198 2.35422 8.69194
216 1 4.3171 3.91788 5.86432
217 1 5.86499 6.45554 3.25769
218 1 5.8689 0.592324 5.2816
219 1 4.98162 4.51486 4.51231
220 1 7.12181 8.91607 4.31808
221 1 2.36026 3.57396 8.22618
222 1 0.332461 4.40049 1.60199
223 1 6.88844 0.386391 7.71479
224 1 7.12379 1.00904 2.26573
225 1 4.2809 7.60592 0.591832
226 1 2.97294 6.03293 8.9954
227 1 8.07563 7.55516 4.07255
228 1 7.17852 6.59158 5.68865
229 1 4.46645 5.11562 0.794627
230 1 0.147506 8.56762 7.96706
231 1 6.46108 7.2026 8.63915
232 1 8.73056 2.53527 0.244922
233 1 3.69753 0.185905 2.74607
234 1 6.66246 3.33473 5.47842
235 1 2.13465 6.67647 2.86151
236 1 6.16578 8.91405 3.60518
237 1 4.42833 0.984322 0.0799328
238 1 6.90887 2.58512 0.338909
239 1 0.49933 1.66053 6.49294
240 1 2.35261 4.41826 0.359596
241 1 1.28695 7.5658 1.1714
242 1 2.76071 2.01601 0.749409
243 1 4.76288 8.54139 1.95143
244 1 2.58954 6.15927 4.74436
245 1 5.0763 2.39442 1.26688
246 1 4.15456 3.83142 2.32273
247 1 4.01249 5.94185 1.86802
248 1 0.384166 5.53832 5.52501
249 1 7.53781 7.03706 7.2149
250 1 7.49742 1.85995 3.90665
251 1 3.98404 6.93221 1.76577
252 1 6.07021 2.57961 3.64975
253 1 0.239837 8.23822 5.23987
254 1 3.36505 0.539833 8.22205
255 1 4.48097 0.525349 8.17297
256 1 4.10929 8.75058 3.69308
257 1 5.15619 7.15317 4.37698
258 1 2.3156 5.28633 7.03041
259 1 5.06361 6.10274 7.08084
260 1 6.88135 7.5914 5.44115
261 1 6.83686 0.518454 9.26634
262 1 1.3073 3.97499 4.78906
263 1 1.51022 5.9552 3.32352
264 1 5.72404 3.45336 4.97099
265 1 7.29658 8.81459 6.66621
266 1 0.438332 3.9796 4.60141
267 1 1.78101 7.42067 3.46818
268 1 2.95966 6.17742 2.14903
269 1 6.31081 2.386 8.2661
270 1 8.19205 9.0392 6.00063
271 1 4.63069 5.54642 8.87987
272 1 2.63909 0.375944 5.93854
273 1 6.65109 2.95833 7.56845
274 1 1.84655 5.82108 2.57279
275 1 8.77418 3.79534 0.285214
276 1 1.10134 8.44817 0.747881
277 1 4.00222 8.18874 1.31488
278 1 0.367777 6.23664 3.15126
279 1 6.88693 7.37458 7.79096
280 1 5.55766 5.21351 8.70524
281 1 0.00657732 2.05449 7.10084
282 1 7.25641 4.30401 1.10571
283 1 7.30299 7.99662 2.62031
284 1 1.24492 7.94228 2.7412
285 1 8.10754 6.67442 0.0199638
286 1 1.402 1.79198 3.93529
287 1 4.93272 3.38752 7.00771
288 1 3.559 2.1724 2.37497
289 1 4.95044 4.01261 2.95285
290 1 7.86885 8.29291 3.59047
291 1 3.0459 8.38966 1.31281
292 1 8.03098 6.50039 4.97968
293 1 2.47853 1.58653 3.55572
294 1 7.26694 3.28184 6.51103
295 1 4.54003 1.38076 2.63885
296 1 1.71834 1.30239 2.93383
297 1 7.59657 3.46581 5.34813
298 1 4.89526 8.58956 7.34276
299 1 3.65378 2.38546 5.88772
300 1 1.6974 7.06727 5.67595
301 1 2.10553 4.27584 8.87934
302 1 7.89625 1.03744 6.26511
303 1 5.00242 7.90893 6.75575
304 1 6.5335 0.0304669 6.46997
305 1 2.42633 0.422894 8.8126
306 1 7.92653 1.14803 7.18013
307 1 2.22659 6.94071 6.72193
308 1 5.14038 0.0490241 6.5299
309 1 7.32185 0.678881 8.39649
310 1 5.31913 5.0107 1.12493
311 1 4.77426 1.48773 8.76916
312 1 3.05649 7.33297 9.34507
313 1 7.92589 1.89231 1.58474
314 1 8.00603 7.80461 1.96071
315 1 9.29316 6.14482 8.032
316 1 5.03353 9.24399 1.51045
317 1 4.39798 6.58848 5.40746
318 1 8.11948 3.30813 7.22924
319 1 1.42714 6.61538 0.638342
320 1 8.81965 5.58816 8.67596
321 1 5.89723 3.7145 3.25647
322 1 0.896125 9.33347 0.301697
323 1 7.6551 2.53926 7.42344
324 1 3.32076 2.20225 3.58681
325 1 3.34963 6.50057 0.209729
326 1 5.14178 1.41163 1.98959
327 1 0.350098 0.765892 9.36348
328 1 1.78681 2.09525 0.535329
329 1 1.48641 4.31113 0.609442
330 1 8.61087 2.29849 6.17404
331 1 0.497525 9.38231 3.99541
332 1 7.9673 0.505563 2.10752
333 1 0.436913 0.382868 7.35527
334 1 8.80019 8.55075 3.62286
335 1 7.0831 1.60727 5.99644
336 1 2.97589 1.12945 7.21965
337 1 4.38108 3.59344 0.164335
338 1 0.411261 6.90753 6.98952
339 1 7.34457 3.88307 2.41324
340 1 5.03971 4.10468 6.37204
341 1 5.59307 7.24685 7.24989
342 1 5.35648 1.96197 7.8657
343 1 7.12076 3.28532 9.31671
344 1 6.07353 0.254392 7.48768
345 1 5.08437 2.4333 6.8783
346 1 2.03301 1.06504 5.58037
347 1 0.656115 9.19708 4.83007
348 1 9.00289 6.45702 1.34397
349 1 9.21114 6.02847 2.44453
350 1 8.10584 2.00893 4.62013
351 1 8.81945 5.08778 0.170435
352 1 5.19405 6.3341 3.87503
353 1 0.396227 8.35208 4.36829
354 1 9.10892 1.10113 0.777945
355 1 9.35243 3.73916 1.07237
356 1 2.74748 5.85452 3.91037
357 1 2.95417 1.46223 8.4384
358 1 -0.04438 4.46098 6.17249
359 1 8.10998 8.87956 2.02627
360 1 0.0923732 2.67795 8.73691
361 1 7.81024 4.44073 3.95098
362 1 3.36247 0.386612 3.6143
363 1 2.65186 7.7573 3.58969
364 1 1.78577 5.63617 5.1362
365 1 1.5742 0.365309 0.963438
366 1 1.3002 6.66001 3.93951
367 1 4.32376 2.42267 0.671856
368 1 5.41537 5.7859 8.02878
369 1 6.84859 8.36718 8.31143
370 1 8.75876 2.86774 3.42197
371 1 7.3963 3.70217 7.5298
372 1 5.91505 9.20751 0.968549
373 1 3.30287 8.41206 7.32739
374 1 1.51753 7.26753 2.01168
375 1 5.54471 6.65482 6.56572
376 1 6.69501 0.514387 5.53556
377 1 2.67437 9.10654 0.823064
378 1 2.11769 7.4084 8.72893
379 1 0.454814 2.60665 0.61146
380 1 7.32171 4.38107 3.19635
381 1 8.49568 8.46418 1.28833
382 1 4.54608 4.80731 1.67982
383 1 0.475326 3.20961 5.26446
384 1 4.35249 6.35027 4.21552
385 1 9.10549 1.99822 7.89953
386 1 7.89278 4.37216 7.21119
387 1 0.380174 5.17047 2.8994
388 1 6.11833 8.39611 0.488283
389 1 4.8261 1.50735 5.13544
390 1 0.996271 2.23331 7.51992
391 1 2.07559 4.66893 5.01671
392 1 7.41542 5.51345 1.22483
393 1 7.353 0.0815989 6.10448
394 1 0.442199 7.84903 8.46682
395 1 3.01723 5.1716 3.43374
396 1 3.40559 3.41631 4.41317
397 1 0.0970791 0.315573 3.1783
398 1 3.13369 9.104 5.41711
399 1 9.17236 1.28938 3.67409
400 1 4.38392 2.12105 9.22744
401 1 4.01163 2.44665 6.6301
402 1 4.75731 2.84839 6.11942
403 1 6.38047 4.70953 0.914963
404 1 5.17616 8.23032 0.899428
405 1 8.00766 5.11094 8.95043
406 1 5.56471 7.91791 4.46872
407 1 8.62603 3.13049 5.24472
408 1 6.54774 9.10605 1.69629
409 1 5.23575 0.781352 1.49825
410 1 1.51664 2.96536 0.441416
411 1 6.98772 5.1853 3.40124
412 1 0.219148 2.28053 1.85333
413 1 6.44008 5.65411 0.961239
414 1 3.83137 8.3607 4.66621
415 1 1.91857 2.86494 5.8419
416 1 1.86268 4.11202 2.5085
417 1 6.86623 6.01439 0.160461
418 1 3.36872 7.05752 3.68148
419 1 5.42081 5.44344 4.09863
420 1 5.97488 2.23098 0.153805
421 1 9.12353 0.356858 8.36346
422 1 0.101492 0.727658 4.28315
423 1 7.35581 4.07111 6.39555
424 1 6.12211 7.93193 8.07188
425 1 7.95125 1.99975 8.10833
426 1 2.8261 4.12974 7.67719
427 1 7.63936 9.02148 7.98176
428 1 1.9083 0.119922 8.14766
429 1 6.33004 6.43303 5.37204
430 1 4.50017 8.84845 5.19278
431 1 4.13465 1.32744 8.02445
432 1 1.94392 6.92167 1.24254
433 1 5.60867 7.44885 8.87432
434 1 2.15394 1.49248 0.0262555
435 1 1.26095 0.192791 8.89762
436 1 6.82034 1.3966 0.426409
437 1 8.05079 8.91088 7.2571
438 1 2.38143 5.37455 9.16066
439 1 6.88438 3.66751 3.32324
440 1 1.73137 8.72937 7.93085
441 1 0.823543 1.58825 2.05399
442 1 1.16678 6.98685 2.94172
443 1 7.34821 2.02166 0.878162
444 1 2.43903 6.70339 0.282553
445 1 2.85823 7.68439 5.56642
446 1 0.270604 5.48574 9.33493
447 1 1.789 1.76143 6.06103
448 1 7.87884 2.13198 2.6659
449 1 9.24139 2.26674 2.95487
450 1 4.91153 2.14148 4.41937
451 1 3.63544 5.31973 8.21705
452 1 7.58801 9.00502 5.35572
453 1 7.04126 5.16484 0.421623
454 1 6.24767 0.430231 3.74087
455 1 5.63404 5.00724 7.82411
456 1 3.32747 4.93781 0.560854
457 1 7.125 5.82027 5.11893
458 1 1.02217 0.181546 2.87235
459 1 7.70312 1.93403 6.52944
460 1 3.64104 1.29048 2.43208
461 1 6.64769 7.62556 4.34116
462 1 4.56882 8.95746 0.789556
463 1 6.96037 8.09346 0.795248
464 1 0.975732 5.87966 2.45035
465 1 5.78706 3.02792 7.11233
466 1 0.541848 0.319155 6.48096
467 1 1.41976 7.90544 8.24673
468 1 7.94791 3.47972 3.68881
469 1 8.50626 0.159483 6.69554
470 1 8.71209 4.86425 3.20214
471 1 8.63632 8.41193 6.79932
472 1 4.28052 7.03843 3.36083
473 1 0.0842933 8.17123 6.51551
474 1 5.21822 8.4725 9.29655
475 1 0.889601 4.48216 9.37975
476 1 1.36969 5.09837 7.50725
477 1 3.13343 3.79646 6.75802
478 1 0.617346 7.66372 1.86189
479 1 8.37163 9.2962 8.50378
480 1 2.99271 6.77941 8.4016
481 1 3.79494 2.3295 8.59095
482 1 7.06084 7.12464 6.36992
483 1 8.59392 6.25052 5.77494
484 1 5.94999 8.37813 1.38717
485 1 8.37019 7.70041 0.489985
486 1 0.850821 2.02194 1.07482
487 1 6.6539 6.0699 1.77183
488 1 5.12378 0.0246455 5.61474
489 1 0.392194 5.27245 6.40615
490 1 5.22756 7.33801 5.91584
491 1 5.79122 2.38945 2.0367
492 1 3.16272 6.00673 7.79432
493 1 1.2777 1.20245 1.2614
494 1 1.98585 7.64209 7.35977
495 1 1.98971 8.40669 0.860746
496 1 7.48802 6.57988 8.74257
497 1 7.33759 8.88129 0.486002
498 1 4.80903 4.6312 3.58585
499 1 3.63436 4.49298 7.28996
500 1 2.88092 6.14741 6.78125
501 1 8.45966 4.21055 8.91073
502 1 7.34667 5.65368 8.86579
503 1 1.40586 8.95568 7.05838
504 1 4.73936 6.96213 7.13112
505 1 8.38785 4.0452 3.03073
506 1 1.96997 5.20863 1.04189
507 1 7.33546 7.07872 3.6746
508 1 8.22163 7.60914 9.00477
509 1 8.4085 1.78527 0.812604
510 1 1.5693 4.473 1.54011
511 1 7.6229 8.08056 5.77056
512 1 2.08996 9.03699 4.39197
513 1 1.10976 7.56225 6.9051
514 1 4.2196 4.96035 2.49406
515 1 6.27828 1.6984 5.75659
516 1 7.83618 1.7292 5.45322
517 1 3.9037 6.31689 7.43447
518 1 7.30395 3.43986 0.799745
519 1 8.82626 6.10676 0.32457
520 1 4.12644 4.14371 1.16554
521 1 6.54245 2.95434 1.17766
522 1 3.94937 9.30898 4.59348
523 1 7.28274 1.66974 7.45477
524 1 3.90833 1.52554 6.91004
525 1 2.70316 8.92694 7.9228
526 1 0.949178 3.75457 5.85215
527 1 6.76752 5.89413 6.96852
528 1 8.75531 1.83793 8.96943
529 1 1.27418 5.57743 5.81081
530 1 8.85243 9.16052 5.01751
531 1 5.52596 5.64888 2.99936
532 1 8.15262 3.60635 6.19461
533 1 2.89869 6.64027 1.10262
534 1 2.37442 6.83011 3.96861
535 1 2.76062 2.66268 5.72143
536 1 0.722938 6.92247 1.22693
537 1 3.10461 1.7735 4.453
538 1 5.88777 8.71743 7.202
539 1 8.76229 9.25385 0.374402
540 1 2.77298 5.81871 0.55469
541 1 3.04447 1.79592 5.41289
542 1 4.4731 5.30799 7.35031
543 1 2.7391 7.11156 1.93363
544 1 1.89771 9.25104 0.207881
545 1 0.0584807 4.38284 0.322152
546 1 8.38715 2.61922 8.84575
547 1 3.28844 4.29899 1.20509
548 1 2.90313 1.31493 1.97367
549 1 7.97356 2.76655 0.875701
550 1 7.26339 3.70372 4.33783
551 1 9.01908 0.856295 5.29193
552 1 2.10196 8.61408 6.41554
553 1 8.67684 0.773828 1.52392
554 1 4.61703 6.91687 8.12265
555 1 1.01725 8.4661 6.24953
556 1 9.11655 1.41676 1.93313
557 1 8.04281 2.90048 4.49794
558 1 3.35474 0.606754 6.53118
559 1 8.80078 7.71566 8.26979
560 1 8.18929 0.452529 5.62008
561 1 2.2608 6.01636 1.39363
562 1 6.56593 2.13489 4.56785
563 1 0.715545 7.48786 5.97862
564 1 2.63458 0.969508 2.84942
565 1 6.68746 0.269234 4.56969
566 1 3.25077 3.44663 0.848559
567 1 5.92391 4.82868 9.39401
568 1 4.36751 0.707103 3.12477
569 1 3.34759 3.40001 1.90565
570 1 6.65654 4.29984 9.29634
571 1 6.10516 1.11966 0.0675761
572 1 9.04679 4.59483 5.21053
573 1 6.62539 2.12587 6.68793
574 1 3.80879 2.89128 0.0663595
575 1 4.06886 8.50278 6.8388
576 1 4.93767 3.16137 2.00517
577 1 1.3296 1.67124 4.96887
578 1 6.19786 2.97921 9.07033
579 1 5.68378 1.46468 4.23491
580 1 8.16083 4.62849 1.14976
581 1 0.940803 5.05027 0.81944
582 1 4.93637 4.09751 0.605747
583 1 0.826892 6.00635 8.68011
584 1 5.72434 2.97636 0.746069
585 1 3.68384 3.93201 3.4387
586 1 6.03312 0.278421 8.60055
587 1 2.16339 4.99062 3.22206
588 1 3.7556 6.41504 8.58645
589 1 6.89385 0.955709 6.75861
590 1 8.43286 7.83632 6.02105
591 1 2.63518 5.81178 2.97242
592 1 2.72726 7.74644 0.773861
593 1 3.62399 4.30125 8.28325
594 1 8.9558 6.92429 7.56223
595 1 0.981264 1.38595 0.446243
596 1 3.58519 0.797543 4.46446
597 1 5.34184 0.300013 2.29312
598 1 0.582299 1.65121 3.14455
599 1 4.75018 8.26897 4.44942
600 1 6.85625 4.76413 4.32687
601 1 0.0339852 7.96125 3.57491
602 1 8.9425 8.02253 4.45016
603 1 5.25341 3.32069 8.713
604 1 6.62674 8.16983 7.00524
605 1 6.44577 5.17963 7.42349
606 1 3.37686 8.26589 3.80458
607 1 1.68427 3.71979 7.65512
608 1 4.71082 7.22819 2.51517
609 1 4.34139 5.88124 2.74586
610 1 4.01661 9.18475 1.63487
611 1 6.443 2.91139 6.3501
612 1 3.45421 0.563759 0.746444
613 1 1.48021 9.22411 3.65815
614 1 8.65058 3.0679 2.48015
615 1 5.04797 4.9802 2.66311
616 1 4.55303 3.92061 8.73054
617 1 5.94026 8.99783 5.83705
618 1 0.43415 4.30825 2.61388
619 1 4.47571 8.78357 8.23928
620 1 4.81907 7.47061 5.04458
621 1 0.351914 1.25616 1.32379
622 1 2.53118 8.22064 9.24228
623 1 6.41395 3.80196 6.81333
624 1 1.63056 2.87346 7.99853
625 1 7.96023 1.24416 0.240363
626 1 0.752272 1.28124 5.55943
627 1 0.200881 6.48634 0.556817
628 1 6.18946 0.803445 1.83578
629 1 2.25666 6.36927 5.56824
630 1 1.58021 0.772573 0.147526
631 1 6.8085 4.32256 5.18251
632 1 2.59526 8.68624 2.62148
633 1 1.38528 6.83005 8.35938
634 1 6.60931 8.56272 2.4957
635 1 5.39559 1.01377 8.17857
636 1 8.5802 1.20543 4.54919
637 1 6.90885 2.41046 3.00366
638 1 7.39314 7.16235 4.74069
639 1 8.50464 2.68993 7.88476
640 1 7.94584 6.8652 6.11929
641 1 4.74074 8.28131 2.80015
642 1 1.08049 0.00916874 7.8765
643 1 5.56253 6.81066 8.14684
644 1 5.61268 4.73369 5.92068
645 1 3.97209 8.03992 2.15721
646 1 1.37425 5.03978 3.85446
647 1 1.98824 3.42184 1.87687
648 1 4.55004 9.20521 2.6205
649 1 8.01469 5.76845 8.29045
650 1 2.9848 4.30265 4.14778
651 1 8.48511 5.40774 1.58301
652 1 5.36024 7.49484 3.38201
653 1 3.63531 6.60854 2.62703
654 1 3.76351 7.53196 6.90964
655 1 0.11053 8.95603 2.57835
656 1 8.91671 3.41065 8.60964
657 1 2.5715 0.220516 2.31991
658 1 7.01135 2.42981 5.76647
659 1 5.95297 3.98228 8.56789
660 1 4.99344 6.46876 2.89449
661 1 0.996451 6.56762 5.625
662 1 9.03744 1.42057 2.80759
663 1 2.39816 2.10864 6.87442
664 1 6.5874 4.5428 8.18568
665 1 8.43501 6.29916 4.178
666 1 7.81159 2.6062 3.50764
667 1 0.530641 3.94711 6.7112
668 1 5.00685 4.5611 9.0584
669 1 1.48384 2.04773 8.34366
670 1 6.7797 1.26271 1.39065
671 1 6.81555 3.41329 8.2933
672 1 8.05464 3.59709 1.99495
673 1 7.88663 8.28765 8.49923
674 1 4.4875 0.810079 6.5124
675 1 0.16379 1.63197 8.70118
676 1 7.70067 7.62697 1.08851
677 1 2.86583 4.3405 5.10276
678 1 8.05175 7.07497 8.18386
679 1 0.418699 7.92731 2.78784
680 1 3.16015 8.87937 2.00889
681 1 3.31616 4.64609 2.25282
682 1 8.0124 0.293528 0.0425911
683 1 6.26054 7.59375 1.18742
684 1 9.09044 6.54186 6.46279
685 1 9.00885 1.25986 7.40801
686 1 7.55299 1.36299 4.70795
687 1 0.323399 0.902038 2.43786
688 1 7.53223 1.31083 3.09785
689 1 4.90195 3.79762 5.21488
690 1 4.56892 4.32845 7.15686
691 1 5.297 1.58678 0.284933
692 1 1.75822 3.01252 2.69564
693 1 3.40353 6.3367 4.34479
694 1 2.2126 0.831176 7.70734
695 1 5.48641 5.33525 4.96639
696 1 6.44852 3.71915 0.650902
697 1 4.25161 3.72403 7.74423
698 1 6.27215 5.53576 8.16947
699 1 6.39272 6.38906 6.37402
700 1 6.44016 3.97401 4.03679
701 1 9.39083 3.63997 5.90299
702 1 7.63044 6.32464 1.55308
703 1 4.47445 0.607022 5.62937
704 1 6.00318 5.28749 1.92488
705 1 5.71247 1.59632 1.38825
706 1 7.4583 0.918323 5.51265
707 1 8.22646 0.461702 7.7213
708 1 5.49291 3.01608 2.71402
709 1 4.10444 6.09413 6.61353
710 1 8.02475 4.37528 5.75236
711 1 3.40151 0.455794 9.18728
712 1 1.94461 8.89292 8.83115
713 1 7.40593 5.4528 4.29112
714 1 2.83087 5.35385 5.17715
715 1 4.35309 3.07071 8.71581
716 1 4.80867 5.80395 1.29868
717 1 5.0473 9.34263 8.85941
718 1 5.11001 2.65769 0.174306
719 1 3.79273 4.18001 4.70542
720 1 7.7014 6.07684 6.85302
721 1 7.66878 6.93745 2.74063
722 1 0.265969 2.74734 7.79224
723 1 2.73522 5.33139 8.06216
724 1 3.7885 7.09808 7.89258
725 1 0.663597 0.118412 2.01113
726 1 5.98791 8.37186 8.87964
727 1 8.21815 6.88986 0.953109
728 1 3.95767 1.42858 3.69403
729 1 1.45038 2.80743 5.10593
730 1 6.10883 8.16862 5.5199
731 1 9.02352 7.39448 6.65046
732 1 9.27393 1.70625 5.90494
733 1 2.25744 5.40638 5.92127
734 1 7.61079 0.399716 3.0615
735 1 6.6274 8.93456 9.29477
736 1 6.91889 4.93685 1.69742
737 1 7.25638 2.47013 8.35029
738 1 8.1491 3.89133 4.61758
739 1 2.4114 6.40947 7.89597
740 1 3.08487 7.9382 2.09286
741 1 3.96313 1.40566 5.91737
742 1 8.20503 5.40661 5.00048
743 1 5.56342 7.95489 2.11385
744 1 8.67019 7.57476 1.36562
745 1 1.82245 6.10782 6.77234
746 1 8.68474 5.49319 4.0708
747 1 4.31298 7.85141 3.68122
748 1 8.49151 6.13325 7.59646
749 1 6.51613 7.82273 1.98323
750 1 0.544837 3.02501 1.40405
751 1 8.2406 6.31852 2.65745
752 1 6.38256 8.4412 4.6612
753 1 3.01373 9.08697 4.22332
754 1 0.834481 7.31685 7.79462
755 1 4.35589 8.62175 9.27679
756 1 4.50348 5.97133 8.04246
757 1 9.04611 0.477501 6.0973
758 1 7.36582 7.06851 0.160583
759 1 1.72902 8.9157 2.79315
760 1 2.01925 3.47567 4.89834
761 1 1.21319 5.23214 6.61407
762 1 9.37114 3.5049 3.12925
763 1 0.814423 6.96212 9.01824
764 1 6.58731 4.78575 6.44092
765 1 5.86536 4.72491 4.25849
766 1 3.43887 2.60729 1.10793
767 1 1.3823 0.924765 8.06878
768 1 0.412953 8.50611 1.41838
769 1 9.18533 5.13008 2.19826
770 1 1.94491 4.80957 8.14024
771 1 3.03539 2.5917 4.62303
772 1 7.1375 0.310317 1.48625
773 1 8.60568 6.63998 8.68506
774 1 1.36487 4.37132 6.98089
775 1 5.67281 0.962839 0.798644
776 1 3.94765 1.83859 4.78838
777 1 2.42133 2.62553 3.09153
778 1 3.05308 3.41247 5.17572
779 1 9.10874 8.27019 2.00481
780 1 1.29775 4.93783 2.79722
781 1 4.76542 1.42263 7.20791
782 1 2.83251 7.74155 6.80982
783 1 3.29475 8.24228 6.14558
784 1 2.90814 4.13467 8.79256
785 1 7.17928 2.64049 4.95779
786 1 1.60972 2.62521 6.94953
787 1 5.70255 9.0664 4.77844
788 1 0.610096 2.21441 5.21248
789 1 5.2252 4.07609 7.98785
790 1 0.290605 3.63532 8.02438
791 1 2.33412 0.510604 1.46023
792 1 4.15568 2.73528 4.18731
793 1 2.8163 4.67834 6.12987
794 1 7.39076 4.89931 5.88261
795 1 3.09288 2.85637 6.73543
796 1 0.958337 4.29782 8.30376
797 1 0.866855 7.34303 5.07552
798 1 1.61098 6.72398 4.80642
799 1 8.22506 5.49292 0.724241
800 1 6.63482 6.66006 0.936852
801 2 0.0236231 6.46554 8.96167
802 2 4.69671 5.54328 3.51177
803 2 5.17785 5.69952 2.14306
804 2 7.75147 3.36373 8.58485
805 2 1.20067 0.985262 6.22407
806 2 5.1329 0.130809 0.348304
807 2 0.149491 4.43996 3.42985
808 2 2.02141 6.38743 8.89741
809 2 1.36916 3.54909 6.62516
810 2 3.93035 6.20591 3.4095
811 2 8.70419 8.49522 9.13131
812 2 0.128764 7.02981 8.27904
813 2 6.7605 8.96629 7.39961
814 2 9.15055 5.30387 4.74685
815 2 2.09172 1.35114 8.52447
816 2 3.13395 8.35125 8.4695
817 2 3.77557 1.33193 8.95923
818 2 1.04151 5.94218 7.11303
819 2 2.04743 4.19429 4.2089
820 2 5.63122 1.57929 6.6998
821 2 0.711248 1.20376 7.3611
822 2 1.0284 5.77621 0.355476
823 2 9.27845 2.0415 0.994934
824 2 5.78438 4.66172 3.24214
825 2 6.36087 1.72317 2.32431
826 2 5.93255 3.33304 1.8106
827 2 6.48615 1.25532 4.98492
828 2 6.81296 9.28702 8.51313
829 2 4.44381 3.22896 3.35327
830 2 7.9296 4.20317 0.348155
831 2 7.50332 8.05655 0.111647
832 2 1.55825 3.08769 4.04405
833 2 3.50403 7.47466 1.103
834 2 4.25682 1.7892 1.76197
835 2 6.13416 2.51939 5.39181
836 2 1.05297 5.32484 4.80696
837 2 3.18597 2.28505 7.54493
838 2 8.90468 2.99068 6.63929
839 2 0.570087 5.52396 7.86564
840 2 1.76532 8.65594 5.6719
841 2 1.43743 8.20442 1.86034
842 2 5.83544 6.24422 1.33001
843 2 0.101022 2.67377 4.52879
844 2 3.384 6.37019 5.18264
845 2 0.279885 2.09565 3.89702
846 2 8.65148 1.22708 8.32879
847 2 2.36126 8.46782 7.27574
848 2 6.68833 1.22925 3.99736
849 2 0.926794 2.27339 8.97525
850 2 8.99624 8.44724 5.77631
851 2 8.20267 8.25579 2.76853
852 2 7.34384 7.597 8.85343
853 2 1.6139 0.535683 2.28477
854 2 1.16536 5.14348 8.64335
855 2 0.725897 3.40695 4.09758
856 2 1.61012 5.06596 0.228678
857 2 1.96627 8.93548 1.55788
858 2 5.35605 6.57602 0.518445
859 2 2.29108 3.38141 6.60578
860 2 5.52565 5.80273 6.25681
861 2 1.73493 0.110515 6.19408
862 2 0.814004 1.28 4.26606
863 2 6.97957 3.04399 1.93705
864 2 5.4074 1.13571 5.8731
865 2 5.2761 9.32404 8.0167
866 2 3.56036 0.419568 5.54538
867 2 5.01688 0.457054 4.54003
868 2 4.95508 8.63905 6.03701
869 2 2.31375 5.11377 4.21793
870 2 4.51426 4.77322 8.21859
871 2 0.998056 0.884206 3.34631
872 2 1.54646 2.24248 3.09025
873 2 3.27596 1.21787 3.26331
874 2 5.88244 8.12764 6.47068
875 2 8.64838 2.14118 2.2463
876 2 5.56267 1.80177 5.30371
877 2 8.36546 1.88296 3.3906
878 2 5.02067 1.17927 3.7514
879 2 8.08189 9.30861 1.14724
880 2 3.91513 2.88593 7.66568
881 2 2.69368 4.13356 2.01317
882 2 3.9449 4.83388 3.52239
883 2 9.38579 7.02558 2.9604
884 2 0.783279 3.78129 0.744586
885 2 0.0411291 1.51773 4.89473
886 2 3.69535 1.11236 1.45861
887 2 3.21545 0.452749 1.83803
888 2 5.71027 7.25353 2.66446
889 2 6.71517 1.97437 9.13026
890 2 0.943621 3.12645 7.38718
891 2 8.56174 0.673809 3.13329
892 2 6.81697 6.25605 3.73211
893 2 4.68893 1.4686 1.11483
894 2 1.69659 5.8504 4.24997
895 2 2.18776 7.8113 6.23677
896 2 6.89196 4.42453 7.29342
897 2 8.83165 4.43616 4.20497
898 2 5.32454 0.772299 9.07968
899 2 6.08613 3.83121 7.68871
900 2 8.29692 7.57221 7.3578
901 2 5.49338 8.95437 2.9535
902 2 2.35806 3.48846 0.241418
903 2 0.0143989 6.06716 4.15987
904 2 7.3709 8.21819 4.7754
905 2 0.373948 4.82942 4.207
906 2 4.00197 4.85571 6.38609
907 2 2.24009 4.23443 6.63861
908 2 7.80699 2.73409 1.81107
909 2 7.90944 2.79017 5.83268
910 2 3.95442 7.11937 9.3456
911 2 9.21318 7.42699 5.65915
912 2 0.649025 6.39617 4.72194
913 2 8.28828 8.30925 5.14601
914 2 3.57208 8.71831 2.77262
915 2 8.18024 4.05584 8.07256
916 2 1.67348 6.43641 2.01667
917 2 2.14194 2.38217 3.92121
918 2 1.81941 7.5035 0.240015
919 2 1.74558 4.7011 6.07514
920 2 2.26485 1.2526 0.923977
921 2 3.60608 3.26247 8.46135
922 2 1.67178 0.715452 4.753
923 2 7.39134 8.75186 1.43846
924 2 6.65696 5.4934 2.61209
925 2 8.75224 5.68533 6.68897
926 2 9.20653 7.1646 1.98662
927 2 5.28426 8.38505 8.23505
928 2 0.702168 2.67293 3.36187
929 2 3.4739 2.07524 9.36753
930 2 6.42912 2.05754 1.02342
931 2 1.05869 1.35173 8.96178
932 2 4.60722 3.31416 1.04723
933 2 3.80151 5.6567 9.23226
934 2 0.3363 7.02392 3.90389
935 2 0.557316 7.9641 9.34122
936 2 2.45161 9.36504 3.52337
937 2 3.02029 7.36595 2.82311
938 2 0.782625 0.630296 4.90293
939 2 5.97561 8.19409 3.01956
940 2 9.21509 7.05738 4.6653
941 2 2.62175 3.4627 2.58681
942 2 9.04034 3.51233 4.03606
943 2 6.78319 6.58936 4.54056
944 2 8.51407 7.31361 2.88628
945 2 5.63828 2.4343 6.11798
946 2 1.42925 3.67289 9.32931
947 2 5.25114 7.6539 7.91944
948 2 4.1928 0.110026 0.150954
949 2 8.09366 6.66988 3.43809
950 2 7.63563 0.245187 4.72954
951 2 4.05597 7.32708 4.41704
952 2 7.55611 7.80723 6.67366
953 2 8.58334 2.17856 7.09039
954 2 5.67865 3.97449 1.19711
955 2 2.7945 4.3848 3.10214
956 2 0.187599 1.85861 0.170636
957 2 6.0761 8.84577 8.13611
958 2 7.45246 8.19925 7.58389
959 2 0.14312 4.01233 8.97705
960 2 2.09577 1.44362 4.33611
961 2 8.37546 5.48039 2.4921
962 2 3.36629 4.81129 9.01175
963 2 1.31118 8.44953 4.78862
964 2 1.02379 8.30047 7.49062
965 2 8.08666 5.33623 7.49756
966 2 3.96754 5.72902 5.76836
967 2 3.1378 7.49134 4.39184
968 2 6.33764 6.58875 7.52786
969 2 0.653268 2.92461 6.57651
970 2 7.64874 0.851275 1.03514
971 2 1.33916 5.88442 1.24455
972 2 2.92281 2.72463 8.3501
973 2 6.81908 8.67929 5.88579
974 2 3.39178 3.93673 5.92581
975 2 4.72451 6.57629 6.20161
976 2 5.72555 2.56771 4.50841
977 2 2.5506 5.07507 2.37516
978 2 4.37362 2.08706 7.64937
979 2 1.64319 6.72075 7.41151
980 2 5.74028 4.3757 5.12306
981 2 7.5525 0.313636 6.97755
982 2 9.02027 4.77208 1.03426
983 2 5.16668 2.64673 5.29813
984 2 5.73181 7.161 5.0852
985 2 4.2673 7.3781 6.17568
986 2 3.22955 9.07071 6.66658
987 2 5.58237 3.46211 6.05779
988 2 5.19989 6.39028 4.8891
989 2 7.15115 5.48835 7.92666
990 2 5.45214 7.22949 1.39153
991 2 0.390704 9.22672 5.74339
992 2 2.07541 1.42221 1.9594
993 2 3.67855 7.88216 2.96531
994 2 2.20068 2.0102 7.75088
995 2 8.06527 1.1408 3.79824
996 2 6.97422 2.83092 3.86956
997 2 4.92425 1.79379 6.0238
998 2 5.15809 8.2927 5.24