#bin. KALJ data file T=0.5

1000 atoms
2 atom types

0 9.4 xlo xhi
0 9.4 ylo yhi
0 9.4 zlo zhi

Masses

1 1.0
2 1.0

Atoms

1 1 2.91117 7.59373 2.74758
2 1 8.21581 5.9958 7.79258
3 1 5.57161 1.13796 6.71621
4 1 6.92949 4.50623 8.37029
5 1 0.924921 3.56165 1.62235
6 1 1.81051 0.585762 5.03051
7 1 5.46179 1.67558 0.117165
8 1 6.42525 6.91382 9.25671
9 1 3.33924 5.97642 1.67971
10 1 5.67138 2.14065 2.88999
11 1 4.66922 7.64442 6.57335
12 1 2.37068 5.95255 0.467499
13 1 1.7382 1.3679 7.67976
14 1 0.356872 3.09566 9.23056
15 1 1.1004 3.60375 7.38762
16 1 6.7998 0.405804 4.75171
17 1 8.64067 1.85854 9.07465
18 1 2.87141 2.56021 9.3187
19 1 7.90649 0.697423 2.59938
20 1 2.13442 3.02935 0.410584
21 1 6.55911 8.63434 8.78004
22 1 9.01376 1.55835 7.18685
23 1 3.15225 6.07049 8.83548
24 1 7.53238 2.57499 4.19488
25 1 4.3108 2.15844 2.67578
26 1 0.202107 5.57962 6.87838
27 1 5.85423 8.50095 0.781436
28 1 4.2642 1.90456 7.94079
29 1 4.70038 1.90615 6.72918
30 1 5.2509 3.5351 3.5097
31 1 2.98556 8.70169 4.54717
32 1 1.87407 4.45025 5.79387
33 1 3.29563 8.20265 7.84284
34 1 2.10342 2.50637 4.52971
35 1 5.27911 0.253024 6.63889
36 1 7.83188 3.56289 4.46667
37 1 5.25613 1.57979 2.11512
38 1 8.47293 8.01972 3.19642
39 1 7.96676 9.34017 1.50608
40 1 4.7295 3.10074 7.12663
41 1 8.58723 4.79261 7.91147
42 1 8.15031 1.68218 5.73965
43 1 0.274198 4.6123 7.2086
44 1 2.21887 5.77585 8.76078
45 1 5.71488 0.74057 9.0244
46 1 2.19029 0.550365 4.23347
47 1 2.34136 2.1292 7.47541
48 1 3.83768 3.34788 0.469677
49 1 4.23026 8.22488 0.66927
50 1 1.11528 2.3463 5.46675
51 1 5.20437 2.03966 0.976612
52 1 1.78352 3.56806 2.09008
53 1 6.96873 9.07823 7.19287
54 1 3.50744 0.220066 7.86763
55 1 3.81223 1.74559 5.22113
56 1 3.32838 1.78651 3.08206
57 1 2.19704 8.14177 4.47311
58 1 4.62774 5.39959 8.98213
59 1 2.19745 4.97991 4.96911
60 1 3.93649 2.5524 8.83278
61 1 4.43321 6.35301 1.47309
62 1 8.33804 3.72258 7.24187
63 1 1.38423 4.28441 8.74484
64 1 0.964954 8.1736 0.894625
65 1 5.01237 4.5372 4.88911
66 1 8.36952 2.42795 7.40264
67 1 0.271134 4.78269 6.2227
68 1 7.16168 7.46154 4.05562
69 1 7.70183 6.71515 1.51435
70 1 6.43471 5.49303 9.21006
71 1 2.61706 2.91645 6.36907
72 1 2.00481 7.27777 2.2936
73 1 2.55058 8.08493 1.91418
74 1 8.02392 7.60594 7.0043
75 1 6.37641 2.09423 2.34603
76 1 2.16069 7.6626 3.11115
77 1 3.71598 8.87129 2.07244
78 1 5.29044 6.27223 8.24226
79 1 2.04698 3.46976 6.98118
80 1 7.3352 4.94244 1.25651
81 1 8.94023 8.17888 0.581142
82 1 1.80726 1.08044 2.79555
83 1 3.00532 4.18211 5.95546
84 1 6.29573 5.62204 6.34047
85 1 9.29313 7.25608 8.88543
86 1 1.95816 4.49133 4.29769
87 1 8.80758 4.48674 7.02474
88 1 1.73559 1.8121 6.8497
89 1 4.61373 6.49256 2.36733
90 1 4.54131 7.18817 4.61376
91 1 5.58676 2.43856 6.73182
92 1 3.90678 7.19056 4.04085
93 1 0.0497199 5.24658 9.29332
94 1 1.29818 0.0373302 5.43186
95 1 7.02204 6.13816 1.03269
96 1 1.32188 6.68747 7.73892
97 1 7.64123 7.09284 3.29831
98 1 9.19024 7.42506 6.20982
99 1 1.01903 8.62398 6.41106
100 1 1.39848 7.17277 4.6984
101 1 0.815406 7.53934 0.349034
102 1 9.14405 5.20594 5.20759
103 1 7.88705 6.31556 3.63392
104 1 7.06663 2.1838 0.230865
105 1 7.51551 1.35244 3.4476
106 1 7.22393 3.98627 6.00302
107 1 8.57652 6.43534 1.80545
108 1 5.09558 1.59821 7.59982
109 1 5.59807 0.950027 0.574555
110 1 3.94316 3.9302 5.84055
111 1 3.67826 1.52684 7.26989
112 1 0.0566498 9.22934 2.78541
113 1 5.31337 8.31874 3.37158
114 1 8.64185 1.29287 2.15318
115 1 6.62675 5.45855 8.3783
116 1 6.20632 6.99987 2.64188
117 1 4.05616 7.22627 0.543762
118 1 1.90446 6.35976 1.88183
119 1 4.42798 7.73961 7.65413
120 1 0.879471 8.6475 2.71897
121 1 8.23894 8.76734 0.689682
122 1 1.69649 8.41002 3.49626
123 1 7.20427 1.9856 5.75358
124 1 2.47354 1.63262 6.23257
125 1 2.66242 2.67335 5.22059
126 1 8.18731 8.92024 9.19503
127 1 5.73559 7.72544 1.41485
128 1 9.34391 7.80669 3.78141
129 1 7.24286 0.922375 1.17712
130 1 1.26636 5.83243 3.8063
131 1 1.57118 9.34685 8.23091
132 1 7.40513 8.07208 4.89877
133 1 0.259008 6.72488 5.69302
134 1 6.21475 2.95733 1.92937
135 1 3.60061 0.205337 1.25753
136 1 2.99168 4.64823 5.04559
137 1 2.21419 9.09601 3.958
138 1 2.82723 0.289749 4.884
139 1 3.62406 2.49011 2.04515
140 1 8.72366 3.09295 7.80877
141 1 6.55301 2.90713 0.477162
142 1 5.50735 4.05357 2.67782
143 1 2.17114 1.1368 0.91417
144 1 4.47137 9.2841 2.05213
145 1 0.679216 1.20083 4.59814
146 1 6.19997 3.88289 2.10016
147 1 9.02554 5.86894 8.50611
148 1 6.09899 3.97882 3.49293
149 1 5.61238 7.34154 5.19526
150 1 8.72477 5.54322 7.00446
151 1 0.870275 6.19751 6.21561
152 1 1.8808 7.26389 1.0973
153 1 3.95523 2.58284 0.952171
154 1 9.13 2.03712 6.15978
155 1 1.27829 8.89147 4.32617
156 1 3.44005 6.22038 3.66458
157 1 5.70724 5.05087 9.06054
158 1 8.75997 6.95111 7.08646
159 1 0.64148 2.1821 2.79245
160 1 9.08744 7.33316 5.30762
161 1 3.04804 1.84064 5.61678
162 1 7.17501 4.26592 4.47218
163 1 1.56697 5.98449 7.08125
164 1 2.81516 3.8387 8.1794
165 1 3.20343 3.52417 9.14871
166 1 4.66042 3.22867 0.589768
167 1 8.29767 6.55078 2.69271
168 1 0.144388 7.83335 1.13556
169 1 5.91543 0.550209 3.38844
170 1 5.67335 5.3378 4.57965
171 1 3.33375 0.138668 3.95971
172 1 5.97043 0.575143 4.99969
173 1 5.99435 1.30429 1.63583
174 1 7.01434 1.13574 0.308696
175 1 2.00359 2.42359 3.59441
176 1 8.5894 3.33065 3.15318
177 1 7.30341 8.98712 0.0548251
178 1 7.0031 1.86455 3.99388
179 1 2.61561 8.45593 3.45123
180 1 1.75077 3.40558 3.39642
181 1 6.61537 6.26211 2.93798
182 1 8.89348 0.61463 6.96604
183 1 8.27887 5.7727 3.11319
184 1 2.46029 0.251875 1.14967
185 1 1.74247 6.41512 4.30558
186 1 6.02227 9.00163 3.28947
187 1 7.15696 3.14215 5.80285
188 1 1.53958 7.63429 3.89776
189 1 8.52532 6.4117 6.47847
190 1 1.07402 6.73827 2.13141
191 1 1.45021 1.48607 5.12632
192 1 8.8056 1.66369 0.594195
193 1 4.59513 3.76315 5.27252
194 1 7.67089 5.4283 4.23309
195 1 2.66172 1.76837 8.88706
196 1 9.39193 3.36088 7.14652
197 1 4.4177 7.23137 1.58008
198 1 4.76484 5.88957 5.69395
199 1 2.32032 3.70031 9.06907
200 1 4.12567 6.79744 5.32285
201 1 7.79762 5.9654 5.46828
202 1 3.27956 3.06446 5.87496
203 1 0.412619 0.192821 8.18681
204 1 1.05787 5.33115 6.80504
205 1 7.73261 4.82984 6.64089
206 1 7.52123 -0.00820076 2.40938
207 1 3.95888 4.87425 3.21432
208 1 1.94324 4.91426 6.80496
209 1 7.72614 5.48494 0.489059
210 1 7.8825 0.360794 9.1412
211 1 8.13058 1.35615 7.18414
212 1 2.89178 2.4825 3.88766
213 1 6.23894 5.28521 5.3503
214 1 4.531 0.828238 6.74733
215 1 6.85768 3.26994 8.19885
216 1 6.23859 3.42493 5.7825
217 1 4.98194 5.66363 0.642911
218 1 4.1686 5.97647 0.594828
219 1 8.78408 6.31609 0.879049
220 1 9.41035 3.93058 0.698444
221 1 9.06 1.30996 5.48295
222 1 3.91814 8.56368 6.26216
223 1 1.42783 7.80477 5.88214
224 1 1.78739 4.63769 2.10223
225 1 3.60285 6.59487 1.07895
226 1 4.13626 3.53361 3.33727
227 1 6.66698 6.91273 4.70227
228 1 4.70469 8.90838 5.48894
229 1 1.20982 6.91988 3.60914
230 1 7.6161 0.991785 6.60311
231 1 1.03252 2.17214 6.39003
232 1 7.9115 1.94875 1.7873
233 1 0.786419 7.45297 8.70226
234 1 0.688749 8.777 5.1964
235 1 3.67993 2.73876 3.21721
236 1 3.39659 6.08291 6.66085
237 1 5.27444 4.51828 1.57706
238 1 3.92349 1.02858 1.03076
239 1 9.31012 5.47895 2.77973
240 1 9.15654 6.26835 7.55881
241 1 6.76852 4.93203 7.6392
242 1 5.9782 1.18884 2.5784
243 1 5.63049 4.85816 2.26857
244 1 8.33114 7.62823 5.59754
245 1 0.148039 8.24727 9.23359
246 1 0.188498 2.35648 6.94725
247 1 2.48575 1.90735 0.864322
248 1 6.2547 2.21478 9.27419
249 1 0.0827534 6.47685 1.45791
250 1 7.05307 2.38684 6.55834
251 1 2.94487 8.92605 6.38989
252 1 8.82363 6.28009 5.21187
253 1 3.98534 6.21957 7.4804
254 1 7.82145 3.91991 0.671949
255 1 2.98758 3.66925 5.22862
256 1 5.73818 9.10586 5.12556
257 1 0.778234 1.77352 1.71586
258 1 5.19589 6.78611 6.0097
259 1 2.59425 7.28074 7.40116
260 1 5.23061 9.14889 2.78986
261 1 7.68128 8.59759 4.04583
262 1 6.7155 3.52094 1.4321
263 1 1.6643 4.25592 0.213622
264 1 2.09015 1.99292 5.43974
265 1 1.03523 3.90906 3.73036
266 1 3.27785 1.03429 1.56893
267 1 2.48125 7.95613 5.25035
268 1 4.43635 0.930473 2.09762
269 1 2.30894 4.14925 6.51952
270 1 2.45607 0.434594 0.211516
271 1 0.691132 5.19682 0.746694
272 1 9.13101 0.746752 7.90539
273 1 0.165233 0.146327 1.46442
274 1 2.14059 0.369848 5.78998
275 1 6.51029 1.59122 6.48182
276 1 8.42174 5.33564 8.88566
277 1 3.97067 4.22064 3.80463
278 1 4.3227 3.53243 7.9995
279 1 7.57516 1.94284 2.74825
280 1 3.50671 1.68954 8.65795
281 1 1.3139 4.17119 5.04141
282 1 5.05631 7.44562 0.734303
283 1 8.01889 7.16281 9.18811
284 1 9.24569 4.29858 5.32996
285 1 3.84393 3.42715 4.97979
286 1 6.75566 1.08965 7.937
287 1 6.755 7.33584 3.25501
288 1 2.51541 0.28014 8.73135
289 1 1.25531 1.51724 0.593247
290 1 3.94108 6.87799 8.16582
291 1 1.12626 4.91833 1.57979
292 1 6.04579 0.176508 2.61859
293 1 1.46501 3.35551 4.26969
294 1 6.22997 0.683912 7.07154
295 1 2.56963 4.97018 5.97714
296 1 7.98632 4.43699 4.04453
297 1 4.86106 6.35795 4.86053
298 1 5.18877 0.548673 1.53275
299 1 8.71713 0.14928 0.101486
300 1 4.79853 2.78163 3.23034
301 1 1.13789 7.90016 2.37239
302 1 9.07083 3.95457 7.80121
303 1 5.57287 8.50117 4.27724
304 1 5.25493 8.46781 7.72981
305 1 7.49544 8.08851 8.69775
306 1 3.39915 7.2234 4.90854
307 1 7.82006 2.0745 6.59596
308 1 8.731 3.66431 1.55491
309 1 3.1825 0.747293 9.11379
310 1 0.548771 1.00215 8.5417
311 1 8.65164 7.82827 8.845
312 1 5.40641 9.12009 1.91863
313 1 6.65845 1.97412 3.19609
314 1 4.52892 3.63523 4.15754
315 1 3.69725 4.78876 2.24622
316 1 5.25533 9.43427 3.79362
317 1 0.740358 3.00264 6.42134
318 1 8.47679 7.48476 0.984477
319 1 9.24062 9.20512 4.47491
320 1 5.89822 6.25801 2.29353
321 1 1.60465 0.45259 0.508736
322 1 7.97351 7.6901 3.8171
323 1 5.26758 5.88654 1.48523
324 1 6.24436 0.701046 6.13335
325 1 0.897425 2.28706 0.0632652
326 1 8.41666 3.00239 4.83853
327 1 6.6395 7.35476 5.54853
328 1 9.26973 3.25594 4.72
329 1 1.70388 2.7024 8.91813
330 1 5.46128 2.71986 7.64157
331 1 -0.00695448 8.09629 8.34551
332 1 4.63149 5.40267 3.17248
333 1 6.03571 7.50466 7.72354
334 1 2.34299 3.8225 2.72323
335 1 3.33832 8.31973 5.45168
336 1 0.68189 8.02934 4.20657
337 1 2.65544 4.21931 7.36719
338 1 2.68331 6.27503 7.4304
339 1 5.07572 3.94787 0.808348
340 1 9.06267 0.907509 4.65333
341 1 0.235535 8.87831 0.544169
342 1 1.68784 1.82916 8.62188
343 1 1.01186 2.9538 3.25186
344 1 8.25366 0.999236 0.244585
345 1 0.989346 8.89168 0.0911056
346 1 6.35221 7.86162 4.54478
347 1 3.05534 8.09588 0.376968
348 1 1.52126 3.53858 8.26829
349 1 0.480294 1.5767 5.65002
350 1 3.75812 8.9845 2.92232
351 1 8.41749 6.1158 4.37823
352 1 4.7377 6.87859 7.72936
353 1 7.51138 4.10492 7.8782
354 1 2.06825 6.39469 8.17206
355 1 0.279043 9.24909 7.0512
356 1 5.70205 4.01581 8.7433
357 1 3.4502 3.36699 4.00643
358 1 7.45805 0.514279 3.66061
359 1 7.2882 5.62904 6.91328
360 1 5.79382 4.42352 7.07949
361 1 1.00288 0.747432 2.98735
362 1 0.801308 3.14856 0.688491
363 1 6.88724 3.47504 2.66078
364 1 7.83785 7.1404 6.17117
365 1 1.0748 9.20819 3.41394
366 1 2.75456 8.96553 5.37172
367 1 6.03911 9.22776 6.60307
368 1 3.20182 4.45392 4.05565
369 1 6.58388 8.67125 4.88948
370 1 2.26443 6.6734 9.07254
371 1 7.24702 6.08486 4.72158
372 1 1.25561 3.39313 9.28547
373 1 0.993757 3.24185 2.40052
374 1 3.97375 1.61763 4.2377
375 1 5.60917 9.38962 0.896819
376 1 6.84054 1.1395 2.12281
377 1 1.08196 1.35354 9.17099
378 1 2.94741 1.07238 2.68268
379 1 0.295089 4.34514 9.17828
380 1 7.55163 8.29292 2.70966
381 1 4.08398 3.38683 1.48966
382 1 1.75042 2.80645 2.52399
383 1 2.04346 0.539551 7.69327
384 1 4.74544 8.59918 8.57593
385 1 0.858175 8.08068 7.31124
386 1 7.47126 6.79321 5.34348
387 1 7.31635 5.02581 9.24076
388 1 8.08997 2.48669 3.57101
389 1 8.98822 8.84982 8.74113
390 1 1.03501 4.79883 4.11501
391 1 6.02357 8.41184 1.81748
392 1 2.77893 0.591672 3.37111
393 1 5.57242 8.04264 6.92121
394 1 2.34523 0.362128 2.18821
395 1 0.634361 4.36787 8.11637
396 1 2.70566 6.03905 3.26065
397 1 5.95148 1.83072 8.24462
398 1 3.40096 0.669634 7.04671
399 1 8.34785 2.54373 5.83033
400 1 7.27815 1.30599 4.60206
401 1 4.55168 5.54512 6.60504
402 1 5.14934 9.34401 0.163987
403 1 0.626551 3.5419 5.36502
404 1 8.31418 8.44513 8.34094
405 1 1.08419 5.01074 7.7545
406 1 3.37648 1.92254 1.35625
407 1 6.72393 6.05918 5.64624
408 1 1.29716 2.14075 4.20742
409 1 0.0696573 6.47531 6.65903
410 1 5.12436 0.711204 7.45418
411 1 8.95379 8.98405 3.61886
412 1 0.110665 1.98781 9.06823
413 1 6.57489 9.34329 8.03806
414 1 6.89835 0.283045 8.79146
415 1 4.4874 0.582509 3.77769
416 1 3.67951 1.9682 0.317366
417 1 0.293039 3.65288 8.52735
418 1 7.16974 8.06549 7.74928
419 1 0.834461 6.01613 1.21151
420 1 2.05329 9.36866 3.1274
421 1 5.23775 7.67564 2.36431
422 1 4.91508 3.85452 2.06036
423 1 3.27562 5.9029 0.607451
424 1 5.16917 2.59203 1.85769
425 1 1.56792 3.5697 0.851688
426 1 5.5903 3.10305 2.49917
427 1 9.1436 2.39644 0.349207
428 1 7.10237 4.79153 3.79406
429 1 7.14822 0.623629 7.32652
430 1 5.95472 4.85948 8.16912
431 1 2.12906 8.16677 6.50982
432 1 1.79663 2.60089 8.03007
433 1 5.26477 7.83667 5.9009
434 1 7.32883 5.37602 5.8248
435 1 1.53477 5.63117 1.79264
436 1 5.84259 6.67262 7.29682
437 1 5.59971 3.48279 1.5955
438 1 4.5662 9.30767 7.29493
439 1 5.70308 2.80446 1.0799
440 1 6.2509 7.04541 3.87062
441 1 6.97162 9.04517 3.06934
442 1 5.2618 0.732747 2.40875
443 1 2.31319 8.16506 1.10134
444 1 8.04276 5.69034 6.32545
445 1 1.28738 7.70445 8.12233
446 1 9.04246 6.02849 3.63534
447 1 6.397 7.70237 8.56799
448 1 -0.000105201 4.81564 4.4896
449 1 0.536334 4.90334 2.26106
450 1 2.88549 2.9917 2.26092
451 1 0.564585 6.65988 8.21514
452 1 0.208389 0.275895 5.1601
453 1 7.90801 3.41058 1.55138
454 1 3.26869 5.62918 4.31651
455 1 6.24885 2.61252 6.04676
456 1 4.64463 8.09106 4.06725
457 1 8.09616 8.55778 5.46602
458 1 7.55954 6.53168 0.275517
459 1 6.26457 4.76639 4.10949
460 1 3.49783 4.08621 3.10493
461 1 3.77932 8.02882 4.68224
462 1 3.2439 3.25152 1.51768
463 1 6.72796 3.33192 4.11008
464 1 3.35726 0.990372 5.08528
465 1 7.10687 3.32058 4.9166
466 1 1.19777 5.90319 0.136525
467 1 3.25009 4.74334 6.89758
468 1 8.28639 3.91046 2.41764
469 1 2.48723 1.11317 5.47932
470 1 0.680968 6.12963 3.21533
471 1 0.218631 3.83628 6.17636
472 1 9.21277 8.74987 1.61403
473 1 3.3652 5.65571 2.69758
474 1 8.94285 1.99552 1.57455
475 1 3.72121 5.56816 9.26847
476 1 7.82715 1.7141 0.7044
477 1 0.590094 4.11906 4.6172
478 1 5.25087 7.57161 8.18308
479 1 0.183873 2.39879 5.42899
480 1 3.73026 6.45267 4.59898
481 1 0.156239 4.67026 1.3694
482 1 1.65254 5.23762 0.785031
483 1 0.789631 2.30031 1.045
484 1 0.745857 4.75859 3.14487
485 1 2.42148 4.75822 0.432057
486 1 4.69736 4.75252 2.47311
487 1 5.67989 4.25315 5.36709
488 1 8.67191 0.628982 8.64302
489 1 0.681453 3.95659 2.87506
490 1 2.41714 2.14302 2.75656
491 1 2.46049 5.36252 7.78216
492 1 7.95844 4.4597 8.651
493 1 1.03066 0.409097 7.55451
494 1 2.63192 1.71258 4.69321
495 1 7.64798 1.64255 9.12763
496 1 5.11614 2.83965 5.53691
497 1 3.96713 0.365975 4.53779
498 1 6.88365 9.10193 4.00683
499 1 6.13965 3.0111 4.8554
500 1 0.356681 6.55108 3.87764
501 1 3.54906 3.87717 7.61968
502 1 3.86441 4.82635 8.73531
503 1 8.87762 6.42794 -0.00179174
504 1 7.75016 2.48638 5.22414
505 1 6.00015 8.00374 9.30376
506 1 4.5792 8.26833 2.75003
507 1 5.26499 3.02467 4.60363
508 1 1.3204 8.21511 8.85171
509 1 5.23518 4.15663 7.76003
510 1 7.90982 6.38872 8.8309
511 1 7.45119 3.77383 8.7789
512 1 4.40874 1.9201 3.58252
513 1 2.49112 4.36845 3.57463
514 1 1.17511 4.39562 6.82261
515 1 0.651837 2.60535 1.85686
516 1 0.126444 0.263652 6.23445
517 1 6.93982 4.02838 0.735207
518 1 2.95864 6.78357 8.31788
519 1 7.67933 7.23154 0.804665
520 1 8.95518 6.87875 3.26137
521 1 4.69362 5.4359 4.73969
522 1 3.92949 1.51625 6.31128
523 1 7.0502 6.15738 8.99442
524 1 1.87228 9.00003 1.60318
525 1 1.27203 8.07958 4.89284
526 1 6.95777 7.58117 2.30665
527 1 3.45072 2.97 8.23729
528 1 7.3317 5.47112 3.1473
529 1 5.08056 5.97271 7.40395
530 1 6.03761 6.73577 5.82765
531 1 7.78104 3.29824 2.79224
532 1 5.07269 8.25466 0.312435
533 1 6.68109 4.39912 -0.0172317
534 1 5.57845 0.801392 4.26714
535 1 0.16668 5.93862 0.499186
536 1 6.94708 5.11861 4.73116
537 1 7.00285 2.13018 8.50919
538 1 6.28911 2.02189 1.34892
539 1 0.749368 6.12204 4.56432
540 1 7.29727 8.86405 5.80742
541 1 0.275137 7.37586 7.40041
542 1 3.70704 9.0341 0.393906
543 1 8.17874 2.36167 8.40373
544 1 3.73864 1.50666 2.24323
545 1 8.02448 0.268679 7.15562
546 1 9.30258 6.31164 2.33636
547 1 7.94094 3.54458 5.3726
548 1 8.98869 3.70827 9.21359
549 1 3.92328 6.76435 9.15853
550 1 7.84113 6.81115 4.52223
551 1 5.11339 1.76782 4.29313
552 1 4.79736 0.698997 0.609369
553 1 2.02883 4.302 1.20981
554 1 6.47498 9.36092 5.77302
555 1 7.98542 9.02879 3.20447
556 1 3.42266 4.06179 1.12776
557 1 7.65569 5.93094 2.249
558 1 6.74667 4.76816 6.72137
559 1 4.52553 -0.0106861 1.06768
560 1 8.69237 4.14531 4.58374
561 1 5.65653 6.05255 9.32212
562 1 2.7878 6.418 2.31384
563 1 8.65817 7.5484 7.84
564 1 4.27107 2.58684 4.16592
565 1 3.37629 8.32697 1.27972
566 1 8.98189 1.20464 3.79466
567 1 7.58053 0.210068 0.668303
568 1 0.799984 0.951763 1.32755
569 1 0.383441 1.35766 6.65539
570 1 3.84545 4.29461 0.340334
571 1 3.05216 6.64012 0.332354
572 1 5.42552 8.91721 6.06806
573 1 3.76713 9.20549 5.27032
574 1 4.50795 3.36571 6.24129
575 1 6.64243 8.51528 0.340347
576 1 6.93262 0.778908 2.93216
577 1 6.82026 7.02472 1.03319
578 1 9.13533 4.03776 2.90007
579 1 8.18514 0.86806 5.26183
580 1 3.83594 8.05714 7.00788
581 1 5.27863 6.73323 1.24734
582 1 0.346371 3.3968 3.95755
583 1 7.44217 3.95553 6.97825
584 1 3.82482 5.32383 1.34176
585 1 4.79775 1.13579 5.92648
586 1 2.73412 5.49198 6.75784
587 1 3.05779 2.92464 0.680002
588 1 8.0342 0.26337 6.03864
589 1 0.16725 7.12907 1.9874
590 1 8.64047 6.72183 8.44988
591 1 3.73146 3.91997 8.51306
592 1 4.87851 2.35557 8.43855
593 1 5.68338 6.13975 5.37893
594 1 3.95166 4.99675 4.35869
595 1 5.60221 9.41066 7.5434
596 1 8.51666 4.54542 1.14774
597 1 6.36183 6.03169 4.58061
598 1 1.02243 0.340331 8.85735
599 1 3.14484 7.66842 3.85887
600 1 5.784 7.63998 3.06315
601 1 4.72189 5.19485 1.39326
602 1 6.30375 2.52922 7.89081
603 1 4.34876 3.06022 2.43928
604 1 2.32251 3.19341 1.2966
605 1 8.14199 2.43487 0.354604
606 1 4.47837 1.67329 8.8807
607 1 9.32802 2.82406 1.25085
608 1 6.71201 4.6757 2.10495
609 1 8.53226 4.74844 5.83936
610 1 6.22742 8.09077 3.68444
611 1 7.18836 2.5653 2.04811
612 1 1.85642 9.11478 9.08467
613 1 0.422955 6.06174 9.02013
614 1 8.07803 3.34604 9.13455
615 1 6.40234 2.84607 7.03243
616 1 7.19686 2.72348 3.25295
617 1 3.10276 5.16045 3.42277
618 1 7.81871 4.95457 2.10547
619 1 2.74858 4.89933 1.57111
620 1 2.96705 5.17259 8.8867
621 1 5.09872 0.208983 4.88565
622 1 1.45324 0.985743 1.97135
623 1 1.58177 0.992833 8.46267
624 1 0.885141 7.30704 1.34121
625 1 1.7984 5.11264 9.11261
626 1 5.38715 9.36281 8.62164
627 1 5.84773 5.25293 1.46401
628 1 1.98411 0.646857 6.7717
629 1 4.62694 8.50994 6.89182
630 1 8.95369 8.21976 5.6273
631 1 2.91232 8.9242 0.892227
632 1 2.79002 1.44881 7.08103
633 1 4.24128 7.06727 2.94738
634 1 2.63987 0.0624303 7.2544
635 1 3.38889 9.35843 8.81532
636 1 3.91869 0.798005 8.491
637 1 0.483674 0.484 0.644724
638 1 4.26028 0.698548 7.64075
639 1 2.39064 7.38592 0.344601
640 1 6.45749 4.47651 1.34895
641 1 0.662281 5.874 7.5412
642 1 8.39542 8.70559 4.56358
643 1 8.39326 1.40783 3.16703
644 1 5.25288 3.54079 9.39468
645 1 8.46945 9.09612 2.39231
646 1 2.82819 9.01728 8.05302
647 1 8.27818 5.40154 5.00468
648 1 8.81406 2.81182 6.59089
649 1 4.29598 7.62371 5.76097
650 1 1.71907 6.22037 1.01847
651 1 7.67605 8.63129 1.88738
652 1 7.41483 8.91104 4.84374
653 1 3.71432 5.51831 5.15295
654 1 1.86449 1.409 4.38698
655 1 2.92782 4.49317 2.57378
656 1 7.19129 7.07435 8.65649
657 1 0.102296 0.115 9.05244
658 1 4.88931 5.00218 7.32647
659 1 6.36019 9.0489 1.31606
660 1 4.62159 7.72349 9.05646
661 1 5.82312 2.19763 5.18815
662 1 8.45018 4.41688 0.110296
663 1 5.06046 5.55287 2.28579
664 1 3.37011 2.16872 7.82049
665 1 6.01134 5.59458 0.599255
666 1 5.84958 3.3224 4.06989
667 1 4.7355 4.01579 6.92179
668 1 2.73485 7.16994 1.75294
669 1 4.80004 8.0126 5.05386
670 1 4.20686 5.54871 2.34858
671 1 3.90319 4.56386 5.19248
672 1 2.90112 8.56787 2.53473
673 1 2.74645 3.09859 3.12574
674 1 6.45559 8.45416 5.87199
675 1 1.9355 7.35989 8.66088
676 1 0.809098 7.00584 6.5035
677 1 3.28626 6.6997 5.81026
678 1 0.80197 2.85617 4.62072
679 1 0.0586889 8.45916 6.44433
680 1 2.2676 3.4598 5.79703
681 1 5.38364 5.25195 5.47286
682 1 8.07374 0.80145 1.31079
683 1 4.30659 4.95262 0.58393
684 1 3.13632 8.44522 8.78607
685 1 2.78172 9.0075 1.74593
686 1 1.11643 5.77729 8.46732
687 1 4.27188 6.18425 3.91513
688 1 1.90397 5.48817 6.16608
689 1 3.46652 7.06577 3.24887
690 1 4.13074 2.46403 6.13551
691 1 1.38493 5.31379 2.68889
692 1 8.5322 3.71371 8.4444
693 1 2.35802 6.86352 3.23917
694 1 4.23867 8.28083 1.67275
695 1 1.88038 8.87653 0.590089
696 1 8.9027 2.84195 4.03801
697 1 2.30369 7.33407 4.19959
698 1 2.33434 1.20633 1.84099
699 1 1.69966 5.12584 3.58091
700 1 4.45478 0.0887276 8.29497
701 1 5.21449 3.37276 8.43499
702 1 4.54553 2.3177 0.0752837
703 1 6.05386 6.19587 3.75387
704 1 0.890435 2.81963 8.46072
705 1 0.267911 8.02291 2.08516
706 1 9.06845 0.902749 2.78886
707 1 3.93416 9.3892 6.66917
708 1 2.89875 8.14064 6.93028
709 1 1.13843 6.66809 5.46937
710 1 7.4278 4.16635 1.76486
711 1 1.75262 2.66008 6.17218
712 1 6.3589 1.42014 5.53249
713 1 4.45111 3.39775 9.03885
714 1 7.06125 7.30435 7.25076
715 1 2.85684 5.88788 5.11012
716 1 5.54564 4.86572 3.53679
717 1 5.543 4.69606 0.768948
718 1 0.0849384 1.05861 9.36763
719 1 4.64237 4.27441 8.71677
720 1 1.4842 2.77472 1.33899
721 1 7.02557 6.42044 3.90047
722 1 8.41622 2.34898 2.74325
723 1 6.00491 -0.0100252 4.31581
724 1 7.5922 8.68376 6.6488
725 1 2.33741 5.53859 2.2229
726 1 8.97176 4.54275 8.69013
727 1 7.40052 2.38338 7.51348
728 1 7.57462 9.31269 7.84168
729 1 3.22932 4.93565 0.488664
730 1 4.61808 0.948304 4.77276
731 1 1.60121 7.93741 1.62833
732 1 9.38284 3.23538 2.41081
733 1 8.74497 4.51295 2.03399
734 1 0.304796 1.57798 0.745129
735 1 7.25552 5.93694 7.78726
736 1 7.59975 5.54362 8.52908
737 1 2.54563 3.88608 0.611404
738 1 9.21164 4.74493 3.56329
739 1 0.445185 2.20803 3.78455
740 1 7.17177 1.75663 1.40502
741 1 8.82625 7.85129 6.97138
742 1 1.72967 1.80377 1.34923
743 1 1.49946 1.36283 6.01426
744 1 5.29091 6.30926 2.99929
745 1 6.12116 1.78366 7.25832
746 1 2.55527 6.14339 5.99548
747 1 2.54704 2.8467 8.51179
748 1 1.48405 5.41442 4.57153
749 1 8.6259 5.411 2.18188
750 1 4.72842 6.64435 0.228665
751 1 8.90739 2.77238 8.75604
752 1 1.76235 2.21851 0.337744
753 1 6.41008 3.4068 9.15704
754 1 6.28751 3.83418 4.78082
755 1 9.09374 1.87772 4.85983
756 1 8.6662 1.21612 6.32136
757 1 6.03098 9.20486 0.00501028
758 1 6.78569 4.42462 5.31455
759 1 0.160698 0.525501 3.59679
760 1 2.79895 6.48131 4.43542
761 1 3.89455 6.02475 5.90916
762 1 4.10309 6.89115 6.36458
763 1 4.00434 1.07895 3.19971
764 1 4.01535 6.1925 3.05777
765 1 1.151 0.226238 6.55306
766 1 4.49145 1.61906 0.52442
767 1 1.35994 3.61552 6.19478
768 1 3.002 1.24028 0.499306
769 1 0.920439 5.07487 9.06047
770 1 0.203274 7.33375 4.56616
771 1 2.87849 0.481258 6.35046
772 1 3.41776 8.89965 7.24877
773 1 4.72322 4.2234 3.30922
774 1 2.03815 7.13545 5.51498
775 1 9.36592 8.25786 4.7498
776 1 2.54769 5.66382 1.24901
777 1 8.16913 1.77178 4.82949
778 1 7.46969 3.76272 3.51346
779 1 5.46282 1.32829 5.21125
780 1 8.76662 8.83608 7.40158
781 1 1.85333 5.97072 5.17089
782 1 4.78199 4.24499 5.9938
783 1 3.60527 8.58631 3.77923
784 1 3.8401 5.13423 7.4453
785 1 3.9902 8.37065 9.18578
786 1 7.73687 3.20237 8.24434
787 1 1.37696 6.53341 8.70562
788 1 5.3851 0.463826 5.80525
789 1 4.29426 0.0810229 9.23402
790 1 4.78995 4.7533 4.03173
791 1 4.48938 0.411403 5.5244
792 1 0.564801 2.04588 4.63701
793 1 6.07447 4.52011 6.13676
794 1 5.38298 7.54333 4.25242
795 1 3.95159 0.920719 0.0854238
796 1 3.87996 3.81004 2.33926
797 1 0.837882 8.99254 7.77144
798 1 6.24542 3.01117 3.11761
799 1 5.2866 2.02047 6.03778
800 1 3.45808 7.49949 1.22213
801 2 1.56795 6.90981 0.334886
802 2 6.91166 9.05884 1.97047
803 2 2.9867 4.34953 9.21773
804 2 1.81188 6.17606 2.93797
805 2 1.97289 8.41492 2.6227
806 2 8.4427 0.177353 4.79036
807 2 9.34473 7.34008 0.391728
808 2 1.57441 8.10907 0.311454
809 2 7.68962 6.51156 7.04281
810 2 2.83787 6.78521 6.65378
811 2 8.87261 3.32311 5.72462
812 2 8.72302 1.44549 8.1708
813 2 8.73401 7.0774 4.07765
814 2 1.02278 4.48116 5.82122
815 2 4.37768 4.58213 7.84114
816 2 4.51665 8.93571 3.46513
817 2 5.51994 4.27904 4.19354
818 2 6.40702 1.39094 4.62048
819 2 7.87765 7.55301 2.23666
820 2 7.8427 0.751455 7.93044
821 2 1.04643 4.2879 0.848738
822 2 3.59189 6.95766 7.13035
823 2 6.67459 6.52719 6.63834
824 2 0.594722 4.88719 5.1052
825 2 1.74019 7.23713 6.92552
826 2 9.27473 5.53797 1.44133
827 2 8.16292 2.59926 1.22254
828 2 6.56415 1.10142 3.7506
829 2 7.21757 8.81176 1.10175
830 2 3.38168 2.31991 4.73139
831 2 1.78562 8.39114 7.78594
832 2 6.61868 5.61705 1.91728
833 2 6.53246 8.24897 2.78071
834 2 5.40891 2.49875 3.85669
835 2 8.9007 3.74382 3.83416
836 2 3.87176 3.01973 6.79851
837 2 1.71326 8.65006 5.51093
838 2 2.97176 7.70283 6.05325
839 2 1.60967 6.77413 6.24099
840 2 0.578854 7.99356 5.75826
841 2 2.5321 6.54883 1.14951
842 2 2.57568 2.28282 1.72319
843 2 6.28603 4.91035 2.99136
844 2 8.58055 3.42681 0.540371
845 2 5.8434 6.88191 8.63633
846 2 8.74482 0.497984 1.8986
847 2 6.34566 0.542742 1.50133
848 2 0.854673 1.82014 8.2774
849 2 0.0931527 1.20939 1.9253
850 2 6.61106 6.56572 7.99517
851 2 5.95654 0.636006 8.07523
852 2 3.18697 0.95442 4.20476
853 2 1.73467 4.40875 7.62121
854 2 7.78013 2.96475 6.47766
855 2 8.83124 9.07879 6.52556
856 2 5.3213 2.63768 0.149971
857 2 8.69302 3.8073 6.42741
858 2 1.87078 9.1114 6.28774
859 2 7.72623 1.62223 7.92836
860 2 7.96638 8.41265 7.46772
861 2 2.63376 3.82219 1.8981
862 2 5.172 5.98922 3.9176
863 2 4.17352 2.58398 5.11921
864 2 3.2436 0.334876 0.512111
865 2 0.0776167 5.21106 8.30833
866 2 0.355712 1.33876 3.22451
867 2 5.49277 7.19973 9.38082
868 2 3.23081 5.76345 7.93805
869 2 1.23693 1.09114 6.91027
870 2 0.996583 -0.0290222 1.01309
871 2 0.691436 0.556853 2.11749
872 2 6.85212 5.38601 0.537899
873 2 1.30545 1.6122 3.43155
874 2 2.15629 8.29161 9.07018
875 2 4.29252 4.37878 1.58519
876 2 5.07611 1.06132 8.42826
877 2 5.61529 8.24225 8.61557
878 2 4.89107 1.42162 2.85512
879 2 0.660327 5.80773 2.22037
880 2 0.28862 5.81964 5.54557
881 2 8.07971 1.75118 3.98193
882 2 3.59566 6.76544 2.17048
883 2 8.76718 5.26462 4.06135
884 2 6.04185 6.53086 0.582093
885 2 3.18201 4.69055 8.13734
886 2 8.4319 9.39476 8.05435
887 2 6.48011 5.80447 7.2271
888 2 9.03041 2.04107 3.29202
889 2 6.80213 8.25888 6.74181
890 2 6.54503 4.11247 7.65036
891 2 7.72761 5.00544 7.59275
892 2 6.01528 3.7906 0.634752
893 2 3.47186 5.0531 6.05497
894 2 2.32575 4.69811 8.37932
895 2 4.63354 1.87422 5.34607
896 2 4.03154 4.4303 6.59755
897 2 7.89365 7.13066 8.14256
898 2 2.35324 5.6143 4.15799
899 2 1.00908 7.91133 3.26243
900 2 3.98188 8.70559 7.93692
901 2 9.39342 2.9163 3.19327
902 2 8.76312 7.51873 1.79811
903 2 0.118039 7.97822 2.98516
904 2 8.84449 8.31513 2.47712
905 2 9.12584 2.21934 7.87389
906 2 6.25658 1.5749 0.53381
907 2 2.71296 2.98979 7.51568
908 2 7.21848 3.22828 7.2893
909 2 0.542647 1.08376 7.65872
910 2 8.69596 5.54749 0.388168
911 2 5.96795 3.44176 7.88683
912 2 2.81569 0.918537 8.05928
913 2 2.22592 4.92964 2.8804
914 2 1.57435 4.29385 2.96461
915 2 5.70381 5.37845 7.53971
916 2 5.43175 5.89697 6.33277
917 2 0.871527 1.87091 7.39384
918 2 3.60229 7.80786 2.05016
919 2 7.89608 4.51382 5.07471
920 2 6.12674 6.29202 1.43318
921 2 0.479785 2.79626 7.6491
922 2 8.32911 7.86268 4.70291
923 2 1.80062 9.07534 7.18004
924 2 3.89449 7.91433 8.35397
925 2 0.593377 8.84113 8.67406
926 2 3.1639 3.65352 6.6349
927 2 6.70581 8.02547 1.36964
928 2 7.82763 8.10181 0.294452
929 2 4.41066 2.03193 1.68012
930 2 1.19485 5.58843 5.42665
931 2 7.37648 6.33384 6.23118
932 2 6.83963 1.2478 8.86493
933 2 0.0786515 3.9732 2.07059
934 2 7.25009 7.87075 6.01489
935 2 5.22343 4.90917 6.40268
936 2 1.74404 2.93789 5.196
937 2 7.63016 4.45763 2.82568
938 2 8.56941 2.99117 2.05463
939 2 3.83811 0.676916 6.06286
940 2 1.96979 9.07005 4.861
941 2 0.837579 9.04802 1.82038
942 2 5.83502 2.69714 8.68804
943 2 1.55394 0.780415 3.64227
944 2 6.88548 6.71484 2.0485
945 2 4.522 8.92347 4.44447
946 2 6.1318 7.51871 0.604008
947 2 2.39667 7.83679 8.10422
948 2 9.37348 5.76287 4.50566
949 2 0.373192 5.36477 3.62689
950 2 4.94862 6.66306 6.88418
951 2 0.582851 7.0806 2.84496
952 2 7.25655 2.85144 9.10779
953 2 5.00743 7.13783 3.5518
954 2 7.15758 0.123067 6.41448
955 2 3.28956 7.34063 9.05534
956 2 0.781215 0.226626 4.3532
957 2 7.63322 7.97615 1.24914
958 2 2.07224 1.16566 9.29606
959 2 3.74232 7.87745 2.97742
960 2 8.49168 8.34599 1.42539
961 2 6.65343 0.22198 0.635004
962 2 4.57162 0.409154 2.90465
963 2 5.71338 3.52771 6.94966
964 2 1.43552 0.000905162 2.39194
965 2 2.36349 3.45647 4.14277
966 2 4.31118 5.11407 5.70758
967 2 1.57127 2.6848 7.17622
968 2 5.68894 8.22167 5.24094
969 2 1.35082 1.84924 2.42097
970 2 5.32606 1.34977 3.56527
971 2 2.63967 1.51739 3.68977
972 2 7.0338 1.57328 7.18283
973 2 9.09561 0.928122 1.17909
974 2 3.3035 2.30106 6.52105
975 2 5.63584 6.61695 4.52486
976 2 6.70644 3.51654 6.54872
977 2 0.875115 0.759797 5.78521
978 2 8.17972 8.09609 6.2802
979 2 9.01441 9.04173 5.56335
980 2 8.93591 5.65139 6.02976
981 2 7.50188 3.07454 0.657943
982 2 7.22301 0.906713 5.78326
983 2 6.92928 2.17589 4.85525
984 2 4.14851 5.74533 8.26471
985 2 8.17743 0.853577 4.20376
986 2 6.98992 7.72115 0.112881
987 2 9.1799 4.70628 0.504914
988 2 8.38097 4.91829 3.31538
989 2 8.80121 9.32003 1.07721
990 2 0.393264 8.65457 3.63229
991 2 2.76178 8.92025 9.38396
992 2 8.43194 0.398471 3.36187
993 2 6.31062 8.49778 7.85237
994 2 6.66344 5.55148 3.78293
995 2 6.33552 2.38953 4.09661
996 2 7.87069 5.73924 1.39997
997 2 4.98475 8.56155 1.32949
998 2 2.14842 3.9605 5.02657