#bin. KALJ data file T=0.5

1000 atoms
2 atom types

0 9.4 xlo xhi
0 9.4 ylo yhi
0 9.4 zlo zhi

Masses

1 1.0
2 1.0

Atoms

1 1 3.89783 0.338717 4.45267
2 1 2.81744 2.64708 8.96081
3 1 5.22551 1.68855 0.781291
4 1 0.228542 6.77083 1.53437
5 1 4.03806 3.62971 5.15066
6 1 1.22952 7.74353 4.61493
7 1 8.27086 1.08375 3.02283
8 1 6.69456 7.07459 5.46816
9 1 8.33304 2.71957 0.603783
10 1 2.15007 5.8639 7.05644
11 1 8.59852 6.21048 3.19011
12 1 5.32701 2.34579 6.17481
13 1 2.55772 6.68209 0.276743
14 1 0.573399 8.7081 4.09382
15 1 1.15167 3.35044 5.55075
16 1 3.73636 0.190121 7.75413
17 1 3.29706 3.74909 0.845909
18 1 5.04733 8.09161 8.52694
19 1 5.35394 6.91223 4.5943
20 1 4.46425 0.440893 8.58004
21 1 0.157533 2.35332 5.32319
22 1 1.84081 4.44853 4.33867
23 1 2.31626 4.79202 1.35147
24 1 8.61691 5.39875 3.68479
25 1 4.08998 3.56086 2.80122
26 1 1.29161 3.44509 2.97264
27 1 0.928914 1.68906 4.05586
28 1 4.0625 3.30949 1.0196
29 1 0.000478017 7.30684 0.773746
30 1 8.9967 6.10812 7.54301
31 1 6.50856 6.05581 8.56446
32 1 9.10138 4.01116 5.41623
33 1 5.65254 4.7692 0.105025
34 1 6.57965 5.33041 6.15977
35 1 7.59313 7.10535 6.3098
36 1 8.31171 2.02866 6.93264
37 1 5.25532 5.72793 8.05381
38 1 6.72428 5.97464 0.696606
39 1 2.50172 5.67335 3.8659
40 1 6.63332 5.86629 1.54007
41 1 8.34562 3.77086 4.80191
42 1 0.145671 4.96578 1.06469
43 1 2.80032 9.35749 7.68384
44 1 6.41649 2.67132 1.06998
45 1 0.58951 2.98133 0.788931
46 1 7.34723 1.37502 3.39162
47 1 0.43981 4.46715 0.102325
48 1 2.77099 1.82287 7.41467
49 1 1.98168 1.43991 3.39378
50 1 7.68214 1.68715 8.71527
51 1 5.16189 2.49899 5.2241
52 1 1.58233 0.748938 0.64418
53 1 0.423804 3.82685 5.9246
54 1 7.13076 3.79639 7.31147
55 1 2.53258 8.90971 8.54
56 1 7.5642 8.36157 3.08831
57 1 2.91757 6.63687 4.92359
58 1 7.16405 7.53248 3.62263
59 1 5.32043 5.36542 6.21071
60 1 7.10712 6.62911 1.07362
61 1 6.55326 1.89156 9.11355
62 1 7.99659 4.45294 2.30451
63 1 4.46662 1.21635 6.50904
64 1 9.30745 4.21239 6.95598
65 1 0.71575 0.620813 0.804249
66 1 1.7859 0.979599 8.73112
67 1 5.65086 9.27385 3.86937
68 1 4.41227 6.77753 4.58137
69 1 1.93246 3.62332 8.44364
70 1 2.62741 6.87641 2.30508
71 1 7.08396 1.81549 7.08449
72 1 1.83029 4.14625 7.45718
73 1 7.86179 3.95147 8.2805
74 1 9.1992 2.73776 9.01093
75 1 2.43192 4.46061 4.97542
76 1 8.55471 2.23947 4.9026
77 1 5.28199 7.37181 7.81384
78 1 0.337448 1.9493 2.4161
79 1 1.64385 5.33903 4.63607
80 1 1.1323 9.22942 5.62175
81 1 7.61103 8.01592 0.383653
82 1 9.34956 9.34259 1.21875
83 1 2.96829 7.8573 1.69938
84 1 0.479937 7.62234 5.66889
85 1 4.99497 8.99595 1.42081
86 1 2.85453 6.10964 7.81301
87 1 0.70775 9.39669 2.71611
88 1 0.799655 5.00547 4.99811
89 1 9.03077 0.708564 0.561137
90 1 7.42036 2.36924 1.82271
91 1 4.8777 5.93806 0.784733
92 1 6.65272 3.01863 5.07138
93 1 6.76116 8.43464 0.173664
94 1 2.45519 3.82241 4.20386
95 1 9.01343 7.91945 5.0206
96 1 4.74705 2.95284 0.0424247
97 1 4.34743 2.0642 9.3226
98 1 5.37422 4.7966 5.31249
99 1 1.81362 6.94889 2.78139
100 1 1.69197 5.13361 2.05185
101 1 7.56604 2.62681 6.57953
102 1 2.31795 6.23089 3.25395
103 1 7.95794 7.69476 2.62385
104 1 9.10561 8.23741 2.05441
105 1 7.82198 4.78417 6.61325
106 1 2.54795 8.78304 5.06723
107 1 3.38106 8.70045 1.32384
108 1 2.72118 4.10376 2.2137
109 1 8.42086 8.80194 3.04759
110 1 8.90897 8.00361 2.96069
111 1 2.36624 0.812473 7.98426
112 1 8.615 2.99715 6.8456
113 1 8.62863 8.3028 6.72523
114 1 0.893959 2.46155 6.05342
115 1 0.967224 5.38345 1.58495
116 1 0.151364 8.04495 1.13001
117 1 6.19476 1.74455 0.574656
118 1 4.95688 2.81632 2.73546
119 1 7.45926 3.27114 5.76391
120 1 6.26583 0.330003 7.98499
121 1 2.43575 7.97615 5.43711
122 1 5.78857 2.35102 7.10102
123 1 3.54385 4.17572 7.37401
124 1 1.23978 5.67915 7.51131
125 1 3.97766 1.54585 4.6619
126 1 5.11934 6.31473 6.38668
127 1 4.12449 0.622886 2.36235
128 1 8.33519 0.370601 4.47401
129 1 1.77275 4.83262 9.31209
130 1 3.54752 8.82091 8.34872
131 1 8.19108 6.90699 2.70372
132 1 6.58674 0.226799 7.05128
133 1 9.13662 5.37763 8.1511
134 1 5.0151 8.68903 5.43492
135 1 7.30158 0.392323 5.04287
136 1 4.5761 5.81418 5.23061
137 1 3.55425 4.79814 6.35372
138 1 4.74014 0.606768 0.753438
139 1 8.29585 8.96147 4.03123
140 1 3.09266 2.07722 4.42246
141 1 4.06344 3.5189 8.95575
142 1 1.29092 7.52571 1.33613
143 1 7.91504 3.34124 7.24294
144 1 6.74394 2.46429 3.47646
145 1 6.9345 8.79856 6.21855
146 1 0.726261 5.96886 2.11353
147 1 2.55251 8.46467 0.00737515
148 1 6.20231 4.87931 8.82753
149 1 8.6929 6.42759 1.46338
150 1 5.91864 2.06492 3.00378
151 1 5.23747 4.70237 3.20949
152 1 8.79262 4.85106 0.650144
153 1 8.44755 1.02769 8.13227
154 1 9.24057 9.32399 8.238
155 1 5.90664 5.63434 9.20715
156 1 4.80494 9.10517 3.13455
157 1 8.61362 4.6174 8.24131
158 1 0.0641857 7.79651 8.95905
159 1 9.17655 8.773 3.47513
160 1 6.36495 2.6567 0.206328
161 1 3.45512 5.33545 3.93865
162 1 7.44929 9.22808 4.24791
163 1 3.37091 4.49304 3.39326
164 1 8.12673 7.62735 7.43726
165 1 7.34002 1.37719 1.71539
166 1 6.93489 8.08528 4.72338
167 1 4.48848 5.4999 7.89461
168 1 8.11101 6.8177 4.06548
169 1 4.28277 1.90815 7.67567
170 1 7.85678 0.225046 2.71252
171 1 6.64165 2.92004 6.91262
172 1 3.79341 3.44197 7.03151
173 1 4.93747 3.2356 5.83042
174 1 9.16896 0.0782913 5.52379
175 1 6.17108 2.04398 4.05785
176 1 2.43216 4.25008 9.01028
177 1 2.2473 0.885041 6.65509
178 1 7.96237 0.373556 1.78595
179 1 9.29139 6.62236 5.28194
180 1 0.295208 3.39998 7.39567
181 1 1.28945 4.86117 7.02759
182 1 3.05427 3.47877 6.55408
183 1 0.736569 8.85123 6.94297
184 1 0.82455 9.0636 0.858603
185 1 5.94729 9.28312 9.35473
186 1 8.05929 1.01238 5.09781
187 1 1.7149 3.23345 2.1265
188 1 8.47565 6.19117 0.018039
189 1 2.69643 6.99682 8.84601
190 1 4.08694 4.65763 7.95563
191 1 4.14456 4.87708 5.7429
192 1 0.0647796 5.30481 0.0964679
193 1 9.09556 6.05156 4.13314
194 1 5.7527 7.47462 8.58011
195 1 6.44574 3.2807 2.92272
196 1 9.27324 0.689874 6.55702
197 1 7.54678 8.05744 7.95241
198 1 8.43095 6.28651 5.81583
199 1 4.76437 4.81127 6.64219
200 1 3.27118 3.19024 4.1724
201 1 3.67964 1.85955 3.75108
202 1 4.05615 5.16694 7.05738
203 1 2.00572 2.51119 3.28869
204 1 7.78973 1.4594 6.54035
205 1 7.04044 5.18936 0.184066
206 1 4.4271 8.88539 0.685529
207 1 5.95581 6.01509 6.25479
208 1 0.712303 0.794701 8.32606
209 1 7.96863 5.34457 0.341619
210 1 7.91879 8.93276 0.115233
211 1 6.16748 5.26321 3.60905
212 1 6.51531 8.17801 3.01574
213 1 7.65294 3.98461 2.9668
214 1 3.99622 5.89265 0.191833
215 1 8.23255 2.08026 1.39139
216 1 4.20581 8.99083 3.84592
217 1 7.08895 5.1138 5.34466
218 1 5.88997 5.44253 5.40056
219 1 5.41692 9.2722 8.53202
220 1 5.41349 7.22674 1.03324
221 1 5.16227 8.64921 9.26864
222 1 9.18943 3.00849 0.510312
223 1 6.13869 1.66735 8.26336
224 1 4.35459 6.80802 9.3035
225 1 1.20951 2.55842 5.117
226 1 5.64108 8.44057 6.09134
227 1 1.84061 6.7363 3.89793
228 1 7.89241 2.06034 3.76509
229 1 0.740087 8.46341 4.98741
230 1 4.03018 7.76117 6.9014
231 1 8.99448 7.00751 3.2152
232 1 1.9266 9.17513 9.32015
233 1 2.38745 2.56362 2.48342
234 1 4.14292 3.89505 0.344064
235 1 5.19376 0.461978 2.64905
236 1 3.50778 8.38943 4.86279
237 1 1.31021 0.21257 1.96495
238 1 7.0729 2.56415 4.36643
239 1 0.960285 8.43611 8.96044
240 1 1.19121 2.44959 1.22488
241 1 1.3038 6.07164 3.68768
242 1 7.32518 9.10802 7.71081
243 1 1.81018 8.40651 8.07729
244 1 7.01898 0.924351 0.989917
245 1 3.85645 1.03279 7.46858
246 1 3.57017 5.92484 1.71586
247 1 8.17511 1.35644 2.0214
248 1 1.82596 1.81505 1.40589
249 1 2.65629 3.36905 0.233111
250 1 5.10266 5.79612 7.21845
251 1 8.43895 9.35491 7.65436
252 1 6.50342 6.05694 5.28509
253 1 2.25783 3.69312 6.63028
254 1 0.223044 0.163584 3.51019
255 1 1.11015 4.62529 2.72617
256 1 5.68321 4.27931 7.89648
257 1 4.17643 4.75401 4.82139
258 1 3.06798 0.471045 2.93806
259 1 8.29238 6.66298 4.91821
260 1 3.18466 7.6082 7.04747
261 1 6.59987 8.12613 5.67684
262 1 1.91965 2.67653 5.75025
263 1 9.06162 1.52342 5.23013
264 1 0.21704 5.9384 3.07547
265 1 2.09806 8.42939 2.98582
266 1 2.08794 7.22665 5.68409
267 1 2.7859 1.40711 6.09688
268 1 8.3813 7.7562 8.79118
269 1 2.12285 8.30362 1.26392
270 1 3.13344 4.65598 4.45576
271 1 7.97616 8.06084 1.70906
272 1 1.63727 8.22207 0.434456
273 1 5.88971 1.5852 4.73762
274 1 9.01248 4.4085 2.92899
275 1 3.40367 2.7112 0.959254
276 1 3.18296 0.898508 1.94673
277 1 7.39277 5.4224 1.00015
278 1 2.40157 8.91398 1.88885
279 1 3.94402 0.760491 5.31796
280 1 8.06547 6.54286 6.95478
281 1 1.92924 4.62394 8.42826
282 1 0.465256 5.68216 6.87793
283 1 7.97953 1.24637 0.978768
284 1 2.3473 2.12617 4.94059
285 1 5.2688 1.67059 6.85551
286 1 5.67081 7.96088 0.432691
287 1 6.69163 6.58565 3.76144
288 1 0.155341 5.07997 2.62602
289 1 4.25049 6.65026 2.16996
290 1 1.63445 0.551264 6.09716
291 1 5.20344 3.00263 1.82119
292 1 2.78514 8.48086 6.91643
293 1 2.70253 0.922158 0.97805
294 1 2.35977 9.3959 6.79882
295 1 2.2964 3.73465 1.51039
296 1 4.88769 1.51024 4.91657
297 1 2.59794 5.27466 9.01838
298 1 9.05409 1.8093 1.75082
299 1 4.68992 3.78929 8.33232
300 1 7.68107 4.45408 5.04243
301 1 9.07229 8.02936 4.12199
302 1 2.74835 4.41212 0.579763
303 1 4.93189 2.64767 8.60825
304 1 2.83227 8.02226 3.11488
305 1 0.505968 5.69202 5.33212
306 1 5.05676 1.03982 9.35265
307 1 7.80359 4.07054 1.38164
308 1 7.30076 5.87786 4.7761
309 1 0.542953 0.94403 2.55671
310 1 2.24479 0.826709 2.7043
311 1 6.48199 5.13655 2.17047
312 1 3.44328 9.26306 6.36607
313 1 7.02726 8.5339 3.88197
314 1 8.71845 7.88553 0.202995
315 1 0.688674 5.76138 0.80154
316 1 1.47916 0.993909 1.47681
317 1 0.757165 3.63247 2.22671
318 1 0.396398 4.51426 3.42089
319 1 4.25096 4.90091 3.82839
320 1 5.89613 7.22134 2.15082
321 1 0.226543 2.98861 6.46188
322 1 2.77115 7.24319 7.84665
323 1 5.03507 3.99052 2.60538
324 1 4.5464 8.51837 4.65985
325 1 6.17763 6.32161 7.74822
326 1 6.57307 3.97202 1.53311
327 1 7.6729 3.32991 0.535646
328 1 6.23182 8.80481 6.90549
329 1 1.53413 8.85802 2.51257
330 1 6.92685 5.14334 8.35539
331 1 5.5726 3.38996 0.0651922
332 1 0.795648 2.30083 0.168523
333 1 7.30908 7.0536 4.52912
334 1 3.3086 7.09371 0.857265
335 1 8.4745 5.24814 2.81667
336 1 6.16118 8.59147 4.10844
337 1 4.94305 3.46652 0.884429
338 1 0.242665 3.16963 3.87456
339 1 6.9662 4.46665 9.07723
340 1 1.33431 4.1748 6.29964
341 1 6.13954 8.88465 5.60387
342 1 1.8616 6.76801 1.37753
343 1 8.36799 6.90826 0.666714
344 1 7.15081 4.78377 1.56599
345 1 4.04058 0.281134 6.84677
346 1 7.64593 7.30816 0.941059
347 1 0.71508 5.34231 3.78676
348 1 1.77753 3.53469 4.69576
349 1 6.61421 2.89643 5.91858
350 1 8.94166 2.83938 1.69889
351 1 3.30077 7.64904 2.5596
352 1 5.58076 3.47805 3.20365
353 1 7.8851 5.73875 7.35845
354 1 6.55718 7.2086 2.99341
355 1 1.61743 7.01626 7.4426
356 1 4.26777 2.1264 2.45674
357 1 2.31716 9.29677 2.66461
358 1 5.08277 4.13428 1.46462
359 1 8.28871 4.32693 5.76371
360 1 6.26686 7.7242 3.90394
361 1 0.616228 8.30637 2.59339
362 1 0.955619 6.72602 2.95983
363 1 2.25231 5.41815 0.609521
364 1 6.61578 5.52801 4.41036
365 1 3.09146 5.41886 3.03822
366 1 1.80509 9.26344 1.18529
367 1 3.34798 5.66711 5.88653
368 1 8.71664 2.16079 2.77748
369 1 8.96049 6.94269 9.05557
370 1 1.31311 1.88817 8.69724
371 1 9.33722 1.65661 6.95357
372 1 3.74619 6.93845 7.60715
373 1 1.321 1.10237 4.65029
374 1 8.2781 7.48709 3.44253
375 1 2.701 0.487181 4.679
376 1 1.93392 3.67355 5.79187
377 1 2.4577 8.57526 4.04189
378 1 1.64737 5.89875 6.31225
379 1 4.54832 3.13917 3.56323
380 1 9.00561 7.09197 7.55743
381 1 7.29026 1.16422 5.6243
382 1 3.32099 8.46832 2.57028
383 1 2.38665 0.446577 0.300969
384 1 3.61454 8.66334 7.43329
385 1 6.51825 8.91313 8.16969
386 1 0.955159 3.86552 0.59276
387 1 7.58643 6.53693 3.32472
388 1 5.51293 2.32783 0.166037
389 1 3.65071 2.23053 8.38223
390 1 2.34506 2.11596 0.611356
391 1 3.22354 9.10601 4.34311
392 1 8.73323 8.65739 9.11589
393 1 3.43228 1.91018 2.53095
394 1 3.61433 1.65033 6.59158
395 1 8.64498 3.61406 1.34331
396 1 3.89429 8.76497 9.3428
397 1 6.28893 8.90694 0.861023
398 1 4.95041 0.46187 6.28838
399 1 3.50152 9.26893 5.41176
400 1 5.35421 6.68396 9.39578
401 1 3.85097 0.725854 0.902222
402 1 7.6163 1.80966 4.65123
403 1 1.44182 4.08764 1.94457
404 1 5.59548 6.75371 7.11487
405 1 8.76958 2.00958 8.53297
406 1 2.5565 1.48897 2.11989
407 1 5.58676 5.4122 1.61356
408 1 4.98505 4.78894 8.45123
409 1 4.85364 7.94718 0.999546
410 1 2.16786 1.84144 8.07271
411 1 0.118979 8.66187 0.193268
412 1 2.64239 8.28554 7.80948
413 1 0.785955 9.22516 8.68612
414 1 3.68703 5.16742 2.40876
415 1 4.6705 0.878452 3.21383
416 1 8.77156 0.184309 3.11763
417 1 3.4897 8.3954 3.83259
418 1 4.75392 6.04975 9.02641
419 1 5.808 2.85903 2.46418
420 1 7.78834 5.77286 2.88408
421 1 8.04109 8.57382 7.42991
422 1 1.14596 7.78846 8.14945
423 1 5.81871 3.31554 6.67832
424 1 2.37247 3.42507 3.08264
425 1 1.90715 7.19734 8.60089
426 1 3.93647 8.01047 1.18509
427 1 7.57978 0.626051 7.4219
428 1 6.20907 3.35031 7.52262
429 1 4.54993 2.01731 3.33008
430 1 8.32009 3.41248 5.71309
431 1 5.56501 8.45723 3.23612
432 1 5.90662 5.38363 6.803
433 1 3.39026 6.75637 1.7241
434 1 9.0462 3.3126 8.01874
435 1 9.13211 0.070078 4.21366
436 1 4.74379 0.285855 7.33906
437 1 3.89807 1.32362 8.59526
438 1 5.00527 0.579017 4.0517
439 1 8.69509 5.22791 8.98606
440 1 1.49214 5.97398 5.34257
441 1 2.0246 5.73581 8.60005
442 1 2.9801 5.45493 7.07863
443 1 3.57264 6.86928 6.7207
444 1 6.73785 0.408591 5.84663
445 1 5.47904 2.64453 3.58959
446 1 0.100527 4.18274 2.12275
447 1 5.20558 8.56909 4.09633
448 1 3.19549 4.89027 5.33865
449 1 3.24305 0.80049 9.3924
450 1 5.9329 8.33617 9.03203
451 1 6.94162 0.580925 9.30029
452 1 6.51641 5.12682 1.03995
453 1 8.6181 4.72483 5.0511
454 1 8.91755 3.70123 6.30456
455 1 0.973068 6.6481 8.03968
456 1 1.91179 1.77999 6.68746
457 1 1.66479 4.26761 3.44676
458 1 0.433694 4.80409 6.44801
459 1 3.57657 3.16566 7.98368
460 1 7.4996 6.17801 1.83039
461 1 6.83109 9.19886 9.03076
462 1 2.43652 2.77026 4.24948
463 1 4.96484 3.96563 9.12138
464 1 8.32917 0.922622 9.22788
465 1 3.08867 3.25417 2.43021
466 1 2.05287 8.10967 4.62929
467 1 0.0551289 6.97921 8.3326
468 1 6.76657 7.53071 0.662599
469 1 8.55296 1.26908 7.27071
470 1 6.84426 4.00444 3.48698
471 1 9.31299 8.99824 2.58785
472 1 7.94518 6.12129 0.918373
473 1 6.80981 0.991393 7.6641
474 1 3.8201 5.95616 7.59596
475 1 0.134637 1.82432 6.1393
476 1 4.76944 5.57423 2.36744
477 1 1.08896 5.34182 9.34705
478 1 6.93709 2.59323 8.77964
479 1 8.70857 8.16265 8.00279
480 1 5.72322 8.08413 7.94273
481 1 8.81579 9.27152 0.459749
482 1 1.47821 0.439985 7.95625
483 1 8.76865 2.55786 7.66832
484 1 6.86001 5.73137 3.10544
485 1 8.26848 2.3099 9.15739
486 1 2.81262 4.18271 6.09687
487 1 5.61425 5.36256 2.82623
488 1 2.29661 2.64003 1.41411
489 1 0.783803 4.18431 5.08683
490 1 0.153706 1.37395 7.82994
491 1 8.00956 6.93078 8.98431
492 1 6.81355 4.04476 2.53117
493 1 7.72677 8.87263 2.18871
494 1 5.05019 8.47647 2.1535
495 1 3.0164 9.24734 0.0571504
496 1 3.93798 1.31652 3.03915
497 1 3.65557 4.15969 2.26475
498 1 3.92272 6.26903 8.51613
499 1 1.99355 4.3066 2.68869
500 1 7.27656 3.62167 4.70395
501 1 1.55023 1.84995 5.5825
502 1 7.34053 8.38302 1.15324
503 1 6.69544 8.75117 1.68353
504 1 2.22031 0.317738 1.84596
505 1 3.4722 2.49615 7.24554
506 1 9.05521 0.824795 4.71467
507 1 0.133334 1.09146 1.50183
508 1 0.38782 5.01166 7.68931
509 1 7.95546 4.71956 3.37504
510 1 1.72283 1.97318 2.481
511 1 4.88844 5.17521 4.64092
512 1 1.4936 7.57084 6.4058
513 1 2.15526 0.107313 5.38791
514 1 5.86148 3.76486 0.920093
515 1 6.89282 4.5802 6.67559
516 1 8.51675 3.79271 2.19483
517 1 7.41492 3.3775 2.04467
518 1 2.06967 6.10839 4.54268
519 1 0.639751 1.177 0.0165662
520 1 2.97287 7.88217 8.76999
521 1 2.64989 2.82299 7.12247
522 1 7.4683 7.59646 8.81753
523 1 6.79554 6.5496 6.20241
524 1 1.54457 8.0685 5.38611
525 1 0.377813 8.75984 1.72767
526 1 7.68695 4.39916 0.562317
527 1 1.0133 2.60273 2.51313
528 1 1.59206 7.84094 2.15982
529 1 0.892739 3.1233 8.17999
530 1 0.998436 0.274205 3.98677
531 1 3.1589 4.54649 1.59208
532 1 1.8361 9.07756 7.46059
533 1 9.38775 1.42261 3.25777
534 1 5.49018 9.0946 7.6722
535 1 8.28267 8.4824 4.83378
536 1 6.38365 1.35553 5.8155
537 1 1.19832 3.96953 8.06483
538 1 7.05252 3.34885 1.23266
539 1 7.46616 5.86055 3.8866
540 1 3.12366 7.37175 5.36915
541 1 7.87626 0.337193 3.6045
542 1 1.47472 1.65951 0.199569
543 1 5.31816 4.95271 7.38312
544 1 5.34504 0.728497 8.05004
545 1 5.8563 0.834762 8.76847
546 1 6.13992 0.1543 2.8212
547 1 4.92365 8.02267 6.23966
548 1 6.401 7.10752 7.18649
549 1 4.08238 6.47173 3.56112
550 1 3.83998 5.43767 8.86913
551 1 1.12955 7.07594 2.08511
552 1 4.97791 2.1958 1.77224
553 1 4.41636 8.02319 3.91511
554 1 4.77797 1.24941 1.4902
555 1 1.05266 6.6908 0.845815
556 1 2.28183 7.66237 2.48006
557 1 0.937109 4.23573 8.80194
558 1 8.36099 7.35417 5.76113
559 1 7.58557 9.37729 5.87807
560 1 3.11786 0.125496 1.23214
561 1 4.04498 7.63354 2.03939
562 1 4.28892 5.83435 4.20431
563 1 0.988487 6.97122 4.0928
564 1 3.16568 6.28446 9.07444
565 1 7.55495 0.936679 4.26863
566 1 5.91305 6.42807 1.61421
567 1 8.57073 7.34444 6.69614
568 1 7.43906 3.41343 3.82391
569 1 4.3643 4.42459 3.07454
570 1 0.896803 1.2161 7.03363
571 1 6.66293 1.57106 2.48981
572 1 5.00723 4.30778 0.629227
573 1 6.14285 4.46969 2.95153
574 1 6.3307 2.05057 6.53307
575 1 3.3754 5.29105 7.8291
576 1 4.43977 8.94014 7.82073
577 1 7.39025 6.65593 8.42176
578 1 3.42182 0.270102 8.68674
579 1 5.75871 6.59931 5.54519
580 1 4.35138 6.47946 6.98249
581 1 7.34002 9.31062 1.43051
582 1 0.698499 9.38702 7.63525
583 1 2.39755 7.46599 1.144
584 1 0.54057 6.53467 5.95953
585 1 3.39215 7.18026 0.021963
586 1 9.05478 3.30918 4.5357
587 1 0.736317 8.27354 6.23093
588 1 0.393468 7.6182 1.94345
589 1 4.28707 7.39654 2.98721
590 1 8.96369 3.13147 3.00818
591 1 0.829494 1.90815 3.07606
592 1 4.57477 6.66723 7.81972
593 1 1.26378 5.75839 2.80338
594 1 8.60704 4.5321 4.15614
595 1 0.740343 1.67005 0.909678
596 1 9.06937 4.19324 8.85371
597 1 2.66108 6.24514 6.35728
598 1 4.89672 0.0835499 9.36921
599 1 8.21682 5.32717 5.569
600 1 4.95616 3.10004 6.84593
601 1 5.48581 6.42077 2.5057
602 1 4.43283 5.59311 6.23978
603 1 2.73554 0.538209 5.98599
604 1 6.87291 3.45674 0.303021
605 1 0.244644 8.55743 8.27213
606 1 3.15628 1.62709 0.828108
607 1 2.85694 3.51205 8.50265
608 1 3.65583 0.878565 6.10419
609 1 7.95435 2.98818 1.46547
610 1 4.47595 2.24665 6.8077
611 1 9.25717 0.998892 8.7119
612 1 4.94219 9.05455 6.63521
613 1 5.33364 4.71176 2.15375
614 1 3.12402 2.28539 1.77674
615 1 1.4106 1.12537 2.48383
616 1 5.47125 2.7392 0.952807
617 1 6.22369 6.71321 0.738694
618 1 0.520575 7.51299 6.61738
619 1 4.81787 4.10907 5.68752
620 1 0.936658 1.31988 6.13748
621 1 0.408708 7.60511 7.58785
622 1 6.25817 0.895457 1.98797
623 1 6.69838 9.20582 4.70817
624 1 2.54209 6.71149 7.16904
625 1 4.46255 1.26981 3.94902
626 1 2.16304 5.28094 7.72061
627 1 4.20579 8.04296 5.4069
628 1 4.96096 7.3062 2.20924
629 1 3.77791 4.03498 4.23588
630 1 2.3998 5.17035 5.73976
631 1 5.40825 0.5408 1.55954
632 1 0.311134 2.3741 1.36753
633 1 4.39857 7.67326 7.72506
634 1 4.44151 8.92672 8.71109
635 1 7.63804 3.06629 9.03473
636 1 1.88499 9.21826 3.9375
637 1 6.85101 1.14988 8.64916
638 1 1.76631 3.39158 3.81995
639 1 0.415517 2.41374 4.36354
640 1 1.58112 8.97878 6.34682
641 1 3.19369 2.08623 5.42033
642 1 4.85413 7.61374 4.89826
643 1 7.33084 3.16835 2.95659
644 1 5.04726 7.9888 2.82027
645 1 5.02831 2.23837 4.31348
646 1 9.00014 6.27348 6.62182
647 1 5.89079 9.13449 1.86594
648 1 8.26648 2.90653 2.30818
649 1 1.22865 8.66965 1.62822
650 1 6.3422 4.67371 7.40932
651 1 5.17523 1.95681 7.63871
652 1 4.18121 4.97751 0.78032
653 1 1.31865 2.31402 7.85542
654 1 8.16889 2.70915 8.29879
655 1 5.2962 5.31065 3.86258
656 1 3.00786 9.01819 3.22047
657 1 6.62354 8.0265 7.43689
658 1 3.92035 9.10435 2.78682
659 1 8.98242 7.33809 2.21606
660 1 0.0631995 6.3068 0.292993
661 1 4.78126 8.29364 7.11382
662 1 8.52022 0.138343 8.80556
663 1 7.6286 2.6508 5.17483
664 1 1.39161 1.34931 7.83226
665 1 0.99831 8.77518 3.25141
666 1 0.703036 7.74457 0.414136
667 1 5.80367 0.45301 6.23765
668 1 4.63365 4.0542 3.86246
669 1 2.13362 7.63802 7.00464
670 1 9.36761 9.02326 6.29942
671 1 9.31426 5.45141 1.75629
672 1 2.44444 1.67918 9.22003
673 1 3.76977 7.44281 6.10323
674 1 5.35133 9.24648 0.647277
675 1 2.1108 7.5658 3.6777
676 1 7.02392 9.31235 0.560569
677 1 7.04005 6.36953 7.17275
678 1 9.15602 3.93128 0.602673
679 1 4.11151 2.71463 5.48586
680 1 2.46028 0.387036 8.81355
681 1 9.19284 6.12722 8.55121
682 1 1.95319 3.23624 0.758649
683 1 4.27222 7.9871 0.27392
684 1 5.86161 5.91033 0.915095
685 1 6.48274 0.193461 1.36382
686 1 8.02931 3.92592 6.42161
687 1 7.9229 2.77313 4.27679
688 1 2.49132 4.72022 3.64388
689 1 5.37515 3.69735 4.14254
690 1 7.50694 5.02687 4.27967
691 1 2.34737 6.32483 5.45005
692 1 5.87325 1.89994 1.4342
693 1 6.93652 2.08379 5.74804
694 1 6.56799 7.11516 8.34571
695 1 3.61747 7.28593 3.52843
696 1 3.38416 3.36196 1.63443
697 1 4.39612 5.39534 1.50548
698 1 4.02612 0.305828 0.113288
699 1 8.21052 4.56968 9.23758
700 1 1.08854 3.30932 6.42607
701 1 8.39466 2.2991 6.05062
702 1 2.22944 8.29797 6.24837
703 1 7.68074 2.10913 2.87797
704 1 0.143408 2.44016 3.26734
705 1 7.22779 6.92593 0.179834
706 1 6.32273 3.94994 6.84649
707 1 0.862543 6.18316 9.37349
708 1 6.16908 2.26528 5.46163
709 1 7.41044 5.79435 5.90273
710 1 2.05947 5.34443 2.86398
711 1 7.39067 2.37534 0.256091
712 1 1.82979 3.26645 7.60998
713 1 8.6754 1.3006 6.14954
714 1 1.0385 1.01861 3.5286
715 1 8.49137 8.30155 1.01705
716 1 3.8256 7.11061 8.60319
717 1 3.94326 7.09005 5.28753
718 1 5.06186 6.27904 3.86383
719 1 5.57463 3.38075 8.509
720 1 8.48423 3.53003 3.60026
721 1 2.83366 8.81397 5.92059
722 1 2.71968 4.64942 8.24954
723 1 1.56992 3.90998 9.36738
724 1 4.36691 9.36929 5.83673
725 1 0.34592 4.19856 8.02192
726 1 0.306396 6.62298 3.64245
727 1 8.386 3.79881 0.243578
728 1 1.41754 8.40648 4.01021
729 1 1.18161 2.65546 3.56654
730 1 3.40304 7.8691 7.98198
731 1 5.77735 7.53792 3.15578
732 1 5.59409 3.78986 5.12517
733 1 8.34517 0.436732 6.84611
734 1 4.46079 4.61539 2.04876
735 1 4.92529 7.14704 5.85449
736 1 5.2685 3.50519 7.67184
737 1 3.60613 5.97142 6.74947
738 1 5.69617 8.10193 6.92096
739 1 3.25956 6.24285 4.10183
740 1 1.39873 2.94953 9.38526
741 1 0.328765 7.45728 2.89498
742 1 5.30931 0.156423 5.49252
743 1 8.33216 4.09674 7.4321
744 1 7.23724 3.19406 7.9266
745 1 4.81823 3.25763 4.77881
746 1 4.76655 6.35546 3.00964
747 1 5.8502 7.07914 6.30179
748 1 1.89627 8.09375 8.94277
749 1 1.59182 7.3674 0.102094
750 1 9.37324 4.24825 4.66821
751 1 5.86016 0.668218 4.26849
752 1 0.723612 1.5713 5.24111
753 1 4.82523 4.20051 4.80822
754 1 6.58054 4.25371 8.16715
755 1 4.47499 3.89137 6.48124
756 1 4.06559 8.23546 3.10446
757 1 2.93032 1.40559 8.48341
758 1 1.26203 3.487 1.35963
759 1 4.66637 0.272132 4.91892
760 1 4.30768 1.80112 5.77412
761 1 0.983964 5.80476 8.53995
762 1 8.84218 0.785562 3.73721
763 1 8.63582 5.70768 4.85058
764 1 1.18216 6.61773 6.83722
765 1 4.74806 7.19652 6.91146
766 1 5.59824 2.73782 7.9073
767 1 2.50033 8.9821 0.772755
768 1 5.07786 7.57994 9.32943
769 1 4.78285 6.28577 1.55856
770 1 0.438061 3.19203 4.91773
771 1 3.06348 8.05396 6.21173
772 1 7.95488 7.71501 4.73731
773 1 4.10714 2.57937 4.21867
774 1 2.76818 7.09596 3.14791
775 1 0.357471 2.14143 8.72375
776 1 9.30342 1.9334 0.0331664
777 1 7.21956 7.23044 7.65758
778 1 0.204353 0.117569 9.26614
779 1 9.05107 5.19408 7.29259
780 1 0.290303 0.820488 4.00003
781 1 7.57861 4.75908 7.67576
782 1 0.833639 4.11552 7.28673
783 1 7.3047 1.43733 0.222986
784 1 0.906455 4.60287 4.13938
785 1 4.25361 6.64665 6.02662
786 1 2.83406 5.70657 4.95646
787 1 8.4544 9.20833 6.18182
788 1 6.14394 3.74561 5.94273
789 1 1.33449 5.08602 6.0584
790 1 2.9304 6.0215 2.4778
791 1 9.3368 3.14744 5.7003
792 1 7.83278 7.06938 1.79844
793 1 0.91717 2.04405 6.8109
794 1 4.90449 7.10139 8.53431
795 1 1.71544 5.17677 3.80572
796 1 1.18177 4.96599 8.06378
797 1 7.77205 4.1605 4.1578
798 1 1.96077 6.20967 2.27116
799 1 9.31411 5.18737 4.71215
800 1 9.12308 5.65087 5.61125
801 2 6.29179 6.42406 4.50007
802 2 6.49239 4.218 0.590655
803 2 5.9948 8.19203 2.28618
804 2 2.62997 2.34997 6.3816
805 2 3.51046 4.71205 0.19404
806 2 5.74676 9.17502 4.80854
807 2 5.55701 1.61425 2.25464
808 2 3.86285 2.65583 3.06343
809 2 5.76994 6.88389 3.77929
810 2 6.0512 5.28049 8.07773
811 2 8.0985 0.732373 5.9551
812 2 6.62859 4.05896 5.21808
813 2 3.58393 2.55133 6.2446
814 2 7.21284 6.63367 2.48682
815 2 4.73888 1.3151 2.43701
816 2 1.7138 4.09774 0.883086
817 2 1.18438 0.417285 9.32138
818 2 0.162935 4.87303 5.6763
819 2 4.72211 1.14729 7.34625
820 2 4.4452 3.5687 1.95139
821 2 0.329584 3.71962 3.06045
822 2 7.40965 8.43683 8.8607
823 2 0.102473 0.922829 5.6806
824 2 7.94589 8.31738 6.00172
825 2 7.37002 8.14301 6.87992
826 2 3.16117 9.25133 2.1208
827 2 6.50245 2.56311 7.88501
828 2 9.26531 7.11644 6.18764
829 2 4.02125 2.60198 1.64087
830 2 1.36874 0.263174 7.08297
831 2 8.84992 5.6898 0.860121
832 2 6.34953 6.12227 2.46659
833 2 5.61758 8.26195 1.34951
834 2 2.00023 7.16116 4.76894
835 2 5.25199 1.52738 3.70486
836 2 0.866102 7.09368 8.85237
837 2 1.5556 5.99058 0.698177
838 2 6.72206 2.53556 2.50482
839 2 7.79916 0.292989 0.557699
840 2 3.96262 0.377811 3.41776
841 2 3.36797 1.78365 9.22042
842 2 7.06379 8.19467 2.30511
843 2 5.5075 1.26613 5.76141
844 2 8.30607 6.08142 8.39931
845 2 6.41604 7.27451 4.62477
846 2 5.97257 2.58334 8.85776
847 2 7.13084 4.75985 3.047
848 2 8.37777 1.46364 4.23053
849 2 6.00803 4.45503 3.83221
850 2 2.4508 7.61179 0.220262
851 2 3.56622 6.66993 2.84954
852 2 1.46362 8.19472 7.09458
853 2 7.30298 6.4882 5.38529
854 2 4.16078 1.60458 0.745131
855 2 2.68821 6.98392 4.11019
856 2 1.82213 2.93565 6.72592
857 2 7.70105 1.45711 7.59041
858 2 2.57603 0.234584 3.69416
859 2 0.653216 7.84793 3.6721
860 2 0.776852 6.16416 4.4913
861 2 4.21027 1.10111 9.33561
862 2 6.07158 0.697555 5.17432
863 2 4.3475 2.90797 7.59866
864 2 9.09125 8.84078 4.78797
865 2 6.87121 4.39471 4.31349
866 2 2.00765 6.71777 6.54358
867 2 7.39957 4.38531 5.9624
868 2 5.68584 6.48148 8.58441
869 2 4.06953 8.00182 8.48904
870 2 2.67615 3.65054 7.50987
871 2 8.59924 9.24201 2.08121
872 2 1.65292 2.17271 4.34033
873 2 1.9539 2.6413 8.56586
874 2 6.10211 4.63763 5.77666
875 2 6.78953 5.6883 7.56463
876 2 7.28956 8.63849 5.32384
877 2 8.84102 2.5288 3.93788
878 2 8.30345 0.0719671 5.28852
879 2 3.45286 1.01104 3.92669
880 2 3.68477 3.58575 5.96637
881 2 9.20532 0.637791 7.48364
882 2 8.85932 5.202 6.37934
883 2 2.99776 3.7559 3.50838
884 2 1.36473 7.79648 3.05856
885 2 8.14565 2.80508 3.18232
886 2 8.80432 4.68982 1.71028
887 2 9.07477 8.0144 6.00549
888 2 6.82063 3.43573 8.79681
889 2 2.08047 6.48609 7.9656
890 2 5.32776 7.69402 4.04279
891 2 4.11163 6.35812 0.962205
892 2 0.161366 2.86249 2.40541
893 2 8.18021 9.04071 1.31122
894 2 7.00881 1.86908 8.11454
895 2 5.42443 4.28609 6.4392
896 2 0.00147453 1.66806 4.39351
897 2 3.97209 4.12024 1.37949
898 2 6.48345 3.20099 1.93365
899 2 5.58497 5.858 4.52244
900 2 3.35851 8.03343 0.477387
901 2 8.93203 0.963366 2.49327
902 2 2.79184 2.97997 5.85742
903 2 6.17612 7.29452 0.0399325
904 2 2.81838 7.19795 6.29155
905 2 1.16025 6.81799 5.0647
906 2 3.10668 5.22619 0.913391
907 2 4.66782 5.37275 3.26385
908 2 6.28751 7.72117 1.39351
909 2 1.51582 0.325896 3.03633
910 2 3.28054 3.92148 9.17727
911 2 9.31775 8.85855 7.33082
912 2 3.17265 0.834554 6.82583
913 2 3.90429 7.70946 4.59495
914 2 7.24378 6.09413 9.2842
915 2 4.03067 8.45096 6.22261
916 2 1.66451 4.54623 5.35792
917 2 1.41479 6.75605 5.86733
918 2 1.91352 0.704042 3.99279
919 2 2.05765 1.00889 5.11937
920 2 0.917995 1.64698 1.86783
921 2 8.77806 0.576786 1.45315
922 2 6.6577 7.70427 6.5884
923 2 4.18011 8.83987 1.87065
924 2 8.09888 8.80889 8.34533
925 2 7.67428 5.28076 2.04279
926 2 8.14221 5.69079 6.4613
927 2 3.60061 2.76405 9.36551
928 2 5.64057 1.59379 9.18505
929 2 2.44289 3.10828 5.07266
930 2 4.63198 2.49973 0.917063
931 2 2.62063 4.93686 2.36328
932 2 3.34027 2.82067 4.90412
933 2 6.27533 6.4319 9.28394
934 2 3.43839 6.5904 5.82924
935 2 0.43149 5.9547 7.88166
936 2 7.84789 5.44452 8.80919
937 2 0.693728 0.206269 6.47729
938 2 6.83792 7.25529 1.95445
939 2 0.402148 4.95322 8.72394
940 2 5.73132 8.11611 4.81303
941 2 7.04494 3.67449 6.39416
942 2 0.333972 6.69693 7.17752
943 2 5.86716 1.12699 7.31424
944 2 3.74577 5.60823 4.96145
945 2 8.39894 5.42533 1.64004
946 2 1.382 4.89956 0.8388
947 2 2.99732 2.4488 3.42917
948 2 4.49118 7.1155 1.18186
949 2 7.74216 2.54079 7.48659
950 2 2.57483 4.42643 6.96572
951 2 6.77602 8.06045 8.4585
952 2 3.75437 1.59377 1.64939
953 2 7.01898 0.880872 6.66828
954 2 5.80897 3.88133 2.07035
955 2 4.78728 7.11414 3.69279
956 2 4.76299 1.27886 8.51534
957 2 0.971264 2.81856 7.24007
958 2 6.97488 0.0727968 2.25015
959 2 5.77106 3.04735 5.54634
960 2 6.72013 1.79247 4.86654
961 2 5.83848 2.84628 4.65349
962 2 6.07201 3.93913 8.94843
963 2 7.66514 0.654473 8.47966
964 2 8.86319 1.66772 0.833852
965 2 2.86779 7.81943 4.34695
966 2 6.0437 4.88673 4.64136
967 2 6.58835 1.25482 4.04868
968 2 9.05698 7.02745 4.34782
969 2 4.28611 0.203227 1.47819
970 2 0.490681 0.123375 4.87302
971 2 1.61248 8.97135 4.89423
972 2 0.262345 2.30256 7.3854
973 2 4.86844 5.26825 0.190775
974 2 8.29512 6.98129 8.14912
975 2 0.698322 4.48122 1.59941
976 2 0.317785 7.41828 4.76589
977 2 5.85434 4.62755 1.40404
978 2 3.08522 1.21692 5.28758
979 2 4.23662 4.46457 8.99754
980 2 2.94555 1.3294 2.99299
981 2 8.49005 6.12895 2.32322
982 2 6.37177 3.55464 4.04834
983 2 7.29947 0.991329 2.5305
984 2 5.913 0.636482 0.428393
985 2 2.58343 5.63022 1.76897
986 2 0.287379 3.60725 1.46013
987 2 5.93626 1.10456 3.0187
988 2 2.43115 1.35498 4.26655
989 2 8.41921 3.42961 8.80881
990 2 3.03921 6.17013 1.00636
991 2 0.970423 3.55401 4.31486
992 2 9.25895 3.97634 3.85906
993 2 0.132139 6.68369 2.4204
994 2 3.91679 5.82686 2.94895
995 2 7.4153 7.65126 5.41822
996 2 0.013182 0.345042 2.05727
997 2 0.379851 3.48724 8.93114
998 2 5.6336 7.55674 5.6118
999 2 7.55852 9.11683 6.7973