#bin. KALJ data file T=0.5

1000 atoms
2 atom types

0 9.4 xlo xhi
0 9.4 ylo yhi
0 9.4 zlo zhi

Masses

1 1.0
2 1.0

Atoms

1 1 5.54195 9.10563 5.10307
2 1 2.79596 0.637774 2.34532
3 1 4.22359 0.686801 2.70837
4 1 2.977 9.14864 0.814092
5 1 8.44284 0.715777 6.01097
6 1 6.76471 5.16057 4.20529
7 1 8.45995 6.69355 1.78299
8 1 6.45887 2.10887 5.68391
9 1 8.25354 2.00983 3.68424
10 1 3.13675 3.01635 4.9991
11 1 4.21289 5.10925 8.22374
12 1 7.66313 3.85074 8.97113
13 1 2.30004 4.92153 4.11271
14 1 2.54058 0.746055 1.26088
15 1 4.46717 1.60929 6.66785
16 1 3.18391 5.97014 9.23728
17 1 9.30054 0.570003 5.71472
18 1 0.406729 0.765602 8.92256
19 1 6.39099 1.32486 9.13135
20 1 1.12961 6.38384 5.16412
21 1 8.87757 1.26435 2.877
22 1 0.844121 5.73551 1.62477
23 1 5.23342 2.19139 3.47343
24 1 4.14833 9.24799 7.76151
25 1 5.61956 3.47445 5.61377
26 1 7.09205 8.48776 6.36386
27 1 6.25018 5.17449 3.39346
28 1 8.23112 2.66486 5.71044
29 1 8.31352 0.585119 2.42593
30 1 2.49692 5.12204 1.91345
31 1 0.950416 5.56129 8.27567
32 1 1.92745 6.21782 5.58699
33 1 3.37035 7.04195 7.87295
34 1 8.65338 9.28122 6.13675
35 1 8.38413 9.11331 8.47378
36 1 9.31213 8.14924 3.74676
37 1 8.8901 7.13863 0.573209
38 1 8.16367 7.51558 0.302799
39 1 3.20025 5.03965 4.34693
40 1 0.780861 7.47001 3.2172
41 1 1.63543 1.05819 3.87254
42 1 0.440301 0.584012 7.98016
43 1 7.46023 3.81245 0.551054
44 1 5.95393 8.75922 8.49634
45 1 7.20876 2.34468 4.03296
46 1 4.21645 7.11694 8.23978
47 1 5.73664 2.64672 5.50085
48 1 5.0523 6.87829 5.04048
49 1 8.62614 7.5818 1.82232
50 1 3.60866 7.63037 2.48316
51 1 6.45367 2.36906 1.94087
52 1 3.59804 2.41503 1.49054
53 1 6.90883 5.97449 9.37409
54 1 0.734422 7.5804 1.33938
55 1 1.52612 5.04196 0.674142
56 1 2.22882 1.4038 1.97977
57 1 0.530379 3.90986 0.945263
58 1 3.95215 3.50762 4.40299
59 1 8.62904 5.21593 2.83913
60 1 2.46754 7.2578 9.09005
61 1 0.313195 2.56802 7.28055
62 1 5.31641 8.23359 1.11259
63 1 1.78705 8.44338 6.52857
64 1 0.103762 4.78964 5.31873
65 1 3.58202 0.812925 1.83772
66 1 4.07784 5.98095 0.0792776
67 1 3.01456 0.616812 5.31356
68 1 4.07871 4.36367 7.66287
69 1 3.55545 7.71803 5.65481
70 1 0.836014 8.04847 8.36564
71 1 0.861266 4.20005 0.0637214
72 1 0.083391 0.672397 3.29963
73 1 4.35909 7.85128 1.89514
74 1 6.35467 7.8378 0.112896
75 1 7.56874 0.117083 8.11982
76 1 6.89305 1.26176 5.65437
77 1 5.40027 2.2151 1.38154
78 1 0.972679 1.41733 0.356649
79 1 2.71125 9.35584 3.11809
80 1 7.24316 2.03665 8.17905
81 1 7.22497 3.61329 2.9056
82 1 0.629505 4.10567 3.53909
83 1 3.07684 7.98655 3.33411
84 1 2.51954 5.69868 1.12479
85 1 8.82824 4.97864 4.62039
86 1 0.759467 3.13201 4.1903
87 1 4.17955 9.21287 8.862
88 1 5.12971 1.15717 5.13049
89 1 4.48929 2.66509 0.629502
90 1 2.15921 8.64949 4.66368
91 1 7.26686 7.43208 3.7205
92 1 0.0627059 5.32941 2.50676
93 1 8.4385 6.02531 7.04354
94 1 3.64838 9.07199 6.22518
95 1 1.76972 1.56762 7.89652
96 1 7.29265 5.98448 5.35145
97 1 1.11952 3.15769 0.927422
98 1 3.09096 3.84976 4.55961
99 1 6.5799 3.08571 7.22951
100 1 3.72071 5.54823 3.6513
101 1 8.62067 1.43173 0.377896
102 1 6.24444 6.19097 1.55912
103 1 4.30042 2.11687 9.10307
104 1 5.62552 4.75683 6.84136
105 1 2.06317 4.5313 9.22202
106 1 3.94333 5.19409 5.00116
107 1 1.69308 2.53894 8.56755
108 1 4.20596 7.28631 3.74675
109 1 5.33177 6.24103 3.10947
110 1 7.74271 4.26736 1.3172
111 1 1.13442 3.97849 4.27201
112 1 2.57302 7.61643 1.75046
113 1 4.07269 3.35 1.38014
114 1 1.02811 3.54505 7.05588
115 1 2.17925 7.00057 2.37457
116 1 0.830699 7.06294 6.32569
117 1 8.12436 2.36281 4.58664
118 1 1.74358 8.59221 1.53747
119 1 0.432904 3.21171 7.86009
120 1 7.34055 8.52114 2.89655
121 1 3.73722 7.98687 0.290959
122 1 1.51528 0.918745 2.05295
123 1 6.23895 1.85278 8.28188
124 1 6.32384 6.95885 3.39326
125 1 1.12636 3.16935 8.87251
126 1 1.8162 7.39065 4.69055
127 1 1.63784 2.70175 5.48861
128 1 9.02107 2.74135 6.33148
129 1 8.64449 8.3144 0.130094
130 1 9.38151 6.63338 7.2784
131 1 7.62144 3.50036 5.34708
132 1 6.86584 6.33717 2.39749
133 1 3.24257 1.45742 2.61449
134 1 8.22629 0.369164 1.57283
135 1 7.54276 0.065814 6.11522
136 1 0.650218 8.71799 5.91363
137 1 6.45481 4.36662 0.391567
138 1 7.06352 4.60588 2.66767
139 1 4.95986 0.341435 5.43698
140 1 4.88259 2.40683 2.44091
141 1 5.92406 4.88701 2.10687
142 1 4.16916 8.33309 6.41985
143 1 6.20818 5.49908 8.52179
144 1 3.85421 6.51926 7.08291
145 1 7.20826 9.22557 0.135903
146 1 1.096 6.61869 7.07056
147 1 7.08817 1.06786 8.42633
148 1 5.34818 7.06399 3.34016
149 1 1.70308 9.10911 7.34009
150 1 4.48535 2.13388 1.32827
151 1 0.770715 8.41012 3.3807
152 1 4.34492 9.17439 6.81302
153 1 1.30629 5.78035 2.66299
154 1 6.37443 4.56013 6.06264
155 1 0.107273 2.99306 8.68687
156 1 2.26065 3.56348 1.21691
157 1 8.88852 6.73675 5.64101
158 1 6.89328 7.59021 8.24837
159 1 2.19548 3.0138 4.74501
160 1 2.0784 7.71262 0.831427
161 1 6.51354 8.70858 4.72292
162 1 5.32101 4.72361 1.48854
163 1 6.62333 9.18421 3.07035
164 1 0.00505039 1.74529 3.33546
165 1 8.53285 0.411234 4.35857
166 1 0.157906 8.19362 7.59612
167 1 7.12713 2.32997 7.36513
168 1 6.44902 8.51325 2.4091
169 1 7.9039 1.69204 0.897235
170 1 6.67316 0.321848 5.45053
171 1 3.16619 3.83564 5.54775
172 1 9.0745 7.56523 4.73019
173 1 4.4926 4.61466 6.83123
174 1 3.48 2.72106 3.12462
175 1 3.28514 3.47827 3.62055
176 1 2.00199 7.77356 7.46394
177 1 8.17408 5.86683 3.28043
178 1 5.07212 3.84729 9.26446
179 1 7.39792 2.07916 2.39808
180 1 5.08278 0.0447158 2.51861
181 1 3.93461 9.05423 0.539401
182 1 4.70154 8.62678 1.67157
183 1 7.93301 8.66396 3.63729
184 1 3.53571 8.49455 8.97614
185 1 3.17774 5.75464 1.77886
186 1 8.13312 4.48275 2.50478
187 1 8.18433 6.95539 2.53759
188 1 4.7716 9.40347 0.142796
189 1 3.73441 2.1153 0.552302
190 1 3.4073 7.14436 4.87083
191 1 1.0187 4.44714 6.78665
192 1 6.37949 8.05315 5.26955
193 1 1.72987 7.46844 6.61764
194 1 3.89917 0.123163 1.39865
195 1 8.78669 1.52581 5.84288
196 1 1.02032 4.0477 2.67189
197 1 8.55252 2.10055 2.59819
198 1 6.39683 4.47785 4.70422
199 1 8.98606 2.32685 9.00232
200 1 2.80978 6.63894 6.82194
201 1 5.59363 8.89284 7.64056
202 1 3.28345 6.73282 1.4119
203 1 5.67266 2.90493 0.91651
204 1 5.37504 1.8923 7.75332
205 1 0.715866 2.51294 5.01493
206 1 2.39714 0.165921 7.00803
207 1 3.00787 1.34622 9.11715
208 1 4.32744 5.03714 4.16853
209 1 2.86744 7.36737 0.864658
210 1 8.32208 4.43071 0.084934
211 1 0.232384 1.82243 5.48599
212 1 4.88142 1.59102 2.84079
213 1 0.233751 3.31826 6.68527
214 1 6.47638 3.27319 2.30947
215 1 5.61086 3.82918 8.49166
216 1 5.78868 3.36358 0.0949965
217 1 4.33725 0.954944 7.86505
218 1 0.117427 4.72236 3.10982
219 1 6.53971 3.12268 5.54247
220 1 5.62841 2.96565 2.16461
221 1 0.547932 2.81005 6.00647
222 1 0.473708 7.02602 0.0501658
223 1 1.57758 3.44217 6.24669
224 1 2.77102 3.44767 8.19882
225 1 3.57155 4.60796 7.0151
226 1 9.01305 3.55274 5.7338
227 1 7.22691 5.82528 3.73966
228 1 7.89601 5.41213 0.0644946
229 1 4.13551 6.48049 4.40122
230 1 1.65869 3.74863 1.82517
231 1 2.33344 2.97684 2.10137
232 1 1.37945 1.71888 2.54481
233 1 2.95012 1.67982 0.677755
234 1 6.46494 6.63911 8.4774
235 1 5.61071 1.37943 0.238087
236 1 1.49942 3.55104 3.60046
237 1 6.43277 5.19371 5.34725
238 1 7.45918 5.41661 6.8355
239 1 7.53365 6.77766 8.70217
240 1 8.96965 0.629166 0.171453
241 1 0.751968 0.0552617 3.24115
242 1 0.452334 8.39093 1.00193
243 1 2.84252 4.98648 0.228316
244 1 7.2054 1.71649 4.83203
245 1 3.21764 1.60331 5.57463
246 1 4.5388 6.60555 0.615895
247 1 1.61936 5.85734 6.5732
248 1 7.32929 7.82305 9.23807
249 1 9.23389 9.11553 3.55542
250 1 7.81425 4.98487 3.15073
251 1 6.99328 9.23244 4.14716
252 1 5.70792 8.89215 0.336793
253 1 4.99389 5.42555 6.636
254 1 4.82598 9.01231 5.92688
255 1 0.802976 8.1738 6.57122
256 1 3.33637 2.38487 2.29753
257 1 5.34535 6.76439 8.53654
258 1 2.16329 3.75538 2.86533
259 1 0.996293 7.84717 9.15135
260 1 2.83341 8.1204 0.385776
261 1 9.402 7.80305 2.77515
262 1 7.31762 0.641821 0.623127
263 1 1.84596 4.3683 5.89683
264 1 6.5906 8.3613 8.8502
265 1 0.390564 8.10061 5.03917
266 1 9.23516 2.06165 8.06272
267 1 9.0731 5.15822 9.27995
268 1 8.77882 6.07172 2.47598
269 1 0.837574 2.9412 3.26412
270 1 0.773107 7.50531 2.23508
271 1 8.03935 0.851551 8.21454
272 1 8.91826 0.390102 8.27128
273 1 5.21863 3.85473 1.86268
274 1 6.49151 0.129023 0.825805
275 1 0.97114 8.53426 7.39094
276 1 3.94386 3.37065 5.41349
277 1 1.20258 1.11681 8.37706
278 1 2.08071 3.138 6.91667
279 1 2.66835 2.42261 4.19012
280 1 4.93432 5.42964 3.51305
281 1 2.61759 3.82038 6.6899
282 1 8.09805 9.15212 2.8842
283 1 7.36191 3.79864 7.25438
284 1 3.99879 0.164839 5.49752
285 1 3.04579 6.79237 2.2904
286 1 9.42744 1.39844 1.27959
287 1 5.46324 0.484934 3.22297
288 1 6.51103 3.51316 8.87954
289 1 3.31198 1.70217 4.61651
290 1 1.15776 4.94392 4.30494
291 1 5.04293 6.94193 7.72043
292 1 7.39505 4.04136 4.41755
293 1 1.04861 5.24294 5.26915
294 1 7.42477 0.24263 3.33481
295 1 7.00998 7.75722 5.89119
296 1 6.41476 0.727968 2.8911
297 1 1.95023 2.88696 0.690422
298 1 0.645233 0.849414 5.04086
299 1 5.57875 5.88838 2.13974
300 1 3.76729 3.76509 6.82027
301 1 2.70246 7.74156 5.15254
302 1 0.876852 1.52904 3.51921
303 1 1.99017 1.59147 8.73948
304 1 7.81392 1.42 8.98404
305 1 8.489 0.597928 3.41852
306 1 5.06396 1.07381 6.99164
307 1 6.7604 2.72784 2.98293
308 1 4.34634 3.9128 6.15217
309 1 7.60392 7.21504 1.74035
310 1 1.73323 9.36012 2.04361
311 1 9.16407 0.148426 2.53643
312 1 5.63409 8.01106 6.97486
313 1 5.47547 2.89774 8.46064
314 1 0.346234 8.66536 2.6157
315 1 2.72696 7.59202 6.87229
316 1 2.35609 0.725203 6.11416
317 1 6.4987 7.58823 6.90747
318 1 6.63912 5.78722 7.79186
319 1 8.37086 3.54348 1.00315
320 1 0.59663 3.84369 8.62879
321 1 4.96738 4.49168 8.14951
322 1 3.23789 3.4339 2.3735
323 1 6.46073 6.57958 7.23673
324 1 7.37252 1.45891 3.80818
325 1 8.06361 3.15659 0.212853
326 1 7.76178 2.94676 7.62084
327 1 5.62202 7.23241 0.823753
328 1 3.26062 4.70842 8.03842
329 1 5.23338 7.95237 7.74142
330 1 7.78037 5.41527 7.88269
331 1 1.65996 2.36634 6.39919
332 1 8.77943 4.92911 7.85791
333 1 4.2653 7.69692 4.65348
334 1 2.96957 3.14277 7.18399
335 1 5.60859 1.19798 8.42889
336 1 5.10322 7.45416 2.47383
337 1 8.9847 5.85557 6.19904
338 1 0.430026 6.58828 1.04372
339 1 0.395799 6.70553 4.75504
340 1 0.342853 5.55595 7.71372
341 1 3.11004 1.6289 1.59747
342 1 0.0756463 9.15637 0.551027
343 1 4.15707 5.20812 2.45705
344 1 1.75621 6.57588 8.73769
345 1 6.849 4.3029 1.59982
346 1 7.21231 7.24156 2.53748
347 1 2.07153 8.42947 3.28962
348 1 8.77352 8.39406 3.00065
349 1 1.82129 2.00568 4.5197
350 1 0.416922 4.6174 7.93422
351 1 7.08207 1.93716 1.50976
352 1 4.70439 1.46607 8.60168
353 1 0.715949 2.55811 0.0926759
354 1 4.68661 2.45235 8.27436
355 1 8.10646 7.53216 4.25858
356 1 5.48176 5.44173 5.32077
357 1 7.39713 6.70573 5.8322
358 1 6.06511 7.75833 1.86229
359 1 2.30257 5.95403 0.00194685
360 1 7.21874 5.59746 2.8428
361 1 5.0457 7.62743 0.352453
362 1 7.21075 3.17501 9.21839
363 1 1.05699 2.26278 4.05903
364 1 0.797051 6.15583 9.02845
365 1 6.92204 7.78496 1.77405
366 1 8.0396 1.10082 4.93998
367 1 1.91376 4.86674 2.65055
368 1 7.83066 1.10902 3.00734
369 1 7.2348 0.402892 2.29676
370 1 7.42417 8.44276 8.4675
371 1 5.82486 1.33412 3.40693
372 1 4.07829 4.43475 8.72928
373 1 1.43537 3.45659 4.97643
374 1 8.0274 8.75328 0.673875
375 1 7.04768 0.68823 9.24231
376 1 6.80711 4.93006 7.96549
377 1 7.08481 7.50433 0.862174
378 1 1.68264 7.48697 1.62084
379 1 1.93904 2.01347 0.139262
380 1 3.61107 2.71949 3.99369
381 1 6.17255 2.13804 0.738548
382 1 1.08632 1.47462 5.72443
383 1 6.68269 7.83982 3.09556
384 1 6.83277 6.84996 6.50086
385 1 6.26925 5.986 3.7478
386 1 6.54297 1.02378 0.668627
387 1 3.99793 8.73921 2.24721
388 1 6.33229 3.3918 3.74945
389 1 5.4879 3.71695 6.37012
390 1 4.14216 8.50692 5.39901
391 1 0.847588 7.38028 5.16223
392 1 0.329204 4.98461 1.57714
393 1 4.66632 4.15571 1.1097
394 1 1.5501 5.7161 8.92475
395 1 8.40491 2.34389 7.34862
396 1 6.35581 8.78567 7.04391
397 1 4.06684 0.740114 8.78936
398 1 3.48419 2.5762 5.66794
399 1 1.81092 6.3987 3.24806
400 1 5.41403 3.03313 3.81214
401 1 4.91259 6.53272 3.91588
402 1 5.99421 6.32376 0.63562
403 1 6.41088 1.59164 4.07343
404 1 2.49053 8.17931 8.41481
405 1 2.9976 1.31341 6.66283
406 1 4.61318 8.50082 9.34977
407 1 1.73203 0.626688 1.00955
408 1 5.29888 6.96341 6.07554
409 1 4.95105 3.19607 2.7568
410 1 8.77207 3.40482 9.05127
411 1 6.52926 2.96487 1.37568
412 1 3.64893 8.56781 7.17999
413 1 2.59556 8.39937 1.18951
414 1 0.184959 6.9601 2.77101
415 1 3.33377 5.34318 6.19713
416 1 4.81518 6.519 2.05336
417 1 2.62282 8.58801 6.87928
418 1 9.00559 5.18278 3.71421
419 1 5.50571 3.84494 7.44119
420 1 1.29877 8.02571 0.627721
421 1 9.28864 5.89684 3.09859
422 1 0.79762 2.49751 8.18769
423 1 8.12918 2.79609 2.27793
424 1 4.83475 5.77829 2.58209
425 1 8.17269 7.65466 3.33913
426 1 5.63622 0.712966 7.68115
427 1 5.09499 1.17472 6.05226
428 1 6.10072 2.28195 3.66941
429 1 1.4656 6.99577 0.055294
430 1 5.51987 0.982594 2.35637
431 1 0.116267 8.24328 0.0574813
432 1 8.18133 7.10822 6.08175
433 1 7.22606 2.51011 6.24097
434 1 4.65866 5.87923 5.83001
435 1 8.41481 8.28706 7.93321
436 1 7.07997 8.94237 5.50206
437 1 4.93326 2.04088 5.21877
438 1 2.56701 4.66199 5.12865
439 1 0.177061 1.43015 6.40631
440 1 5.51616 3.95311 3.01686
441 1 0.226211 5.7079 5.58191
442 1 6.87416 1.33313 2.3616
443 1 4.72384 6.41958 6.70896
444 1 0.489426 5.20354 6.23876
445 1 0.847004 6.37695 3.26467
446 1 0.480023 0.717148 0.753481
447 1 1.02962 5.37661 7.03656
448 1 6.69928 6.70328 0.893663
449 1 5.89642 7.13774 7.77867
450 1 2.23881 0.0592203 5.33955
451 1 3.54784 8.45391 1.15692
452 1 4.41176 1.76121 7.61788
453 1 1.38261 2.60471 7.34224
454 1 2.16848 8.38339 2.31859
455 1 2.25293 3.64474 5.45926
456 1 4.61204 4.54512 0.286352
457 1 3.46393 8.1572 4.71712
458 1 1.21285 8.48771 5.07827
459 1 3.1008 8.37346 2.50342
460 1 4.61887 2.89223 4.10957
461 1 7.84818 0.177069 9.01145
462 1 3.38288 6.99402 3.15937
463 1 5.66269 2.96396 7.48754
464 1 1.84407 1.62856 1.09649
465 1 7.6226 6.62904 3.16133
466 1 7.3665 6.9478 4.96747
467 1 4.10826 6.88431 1.58836
468 1 2.08751 0.843227 2.91607
469 1 1.59623 1.05352 4.76743
470 1 6.87897 8.91172 7.91035
471 1 8.85916 1.2618 7.6982
472 1 9.12903 3.71519 3.80985
473 1 3.84993 0.397063 3.63352
474 1 4.90851 4.08456 5.2687
475 1 8.02077 7.9721 1.22221
476 1 0.975252 7.05541 8.67137
477 1 7.95038 9.08202 4.50342
478 1 7.41 6.36893 7.05224
479 1 6.55673 6.97336 5.46752
480 1 1.59175 0.304816 6.4822
481 1 8.59972 8.70053 2.11415
482 1 5.66385 0.413656 6.55141
483 1 5.8178 4.35609 3.86319
484 1 0.841435 8.55406 1.8028
485 1 9.10782 3.9953 4.98759
486 1 1.74513 6.01895 8.07742
487 1 1.76766 6.02609 0.826647
488 1 9.40121 4.15189 0.0184441
489 1 9.29344 8.75476 6.96618
490 1 3.91504 6.07427 1.17302
491 1 8.61285 5.02153 6.53185
492 1 8.15184 4.81066 4.06768
493 1 6.14218 0.19244 4.27299
494 1 9.04838 0.371886 1.19371
495 1 6.68685 3.47753 0.716351
496 1 4.87867 2.94071 1.6316
497 1 7.77611 8.58364 9.19326
498 1 5.86296 4.83501 8.00988
499 1 9.17842 5.99706 1.61004
500 1 6.80188 1.78095 3.15266
501 1 3.5352 7.61977 1.55017
502 1 4.02275 8.05835 3.06801
503 1 1.52494 6.8591 1.06352
504 1 0.447905 3.77556 2.08367
505 1 6.85792 6.71821 4.23165
506 1 9.16929 3.75605 1.33522
507 1 4.58019 5.79058 1.65883
508 1 2.15863 1.14193 0.276664
509 1 7.21236 3.41274 6.30651
510 1 4.32145 7.04309 2.50648
511 1 3.89034 7.73816 7.57841
512 1 0.396852 7.22332 7.80803
513 1 8.54028 5.93243 8.61594
514 1 0.790941 0.270057 4.13681
515 1 8.94907 2.86527 1.9356
516 1 7.49121 0.21228 5.17946
517 1 4.7991 0.354703 8.22821
518 1 3.59074 0.0568859 2.39069
519 1 9.21326 1.10379 4.92794
520 1 7.40037 4.98105 4.82397
521 1 5.23058 0.366209 4.14648
522 1 1.13151 1.84139 9.03618
523 1 0.257473 2.15462 0.778833
524 1 9.37937 2.05549 4.29276
525 1 9.28899 5.8084 4.61021
526 1 4.2094 4.96798 3.26022
527 1 1.78404 1.47733 7.03501
528 1 7.74205 7.84151 5.0977
529 1 0.319889 4.83547 4.16594
530 1 5.71166 7.12602 6.90811
531 1 2.30325 7.96769 4.09521
532 1 4.03809 1.69178 2.15774
533 1 9.14806 8.54026 8.33461
534 1 1.8726 5.4692 7.37209
535 1 9.06289 4.40684 2.16818
536 1 0.199824 2.06702 1.83433
537 1 5.97842 9.37353 2.39143
538 1 5.16945 6.3137 1.12784
539 1 4.44919 5.27415 9.16655
540 1 3.87321 0.800588 6.92471
541 1 4.76989 5.59615 0.677625
542 1 4.6746 0.0539323 3.38974
543 1 7.92646 6.83453 0.98323
544 1 4.0275 3.39728 3.11282
545 1 0.184396 7.56697 6.77653
546 1 5.45494 8.8076 6.65025
547 1 8.2509 0.208485 0.577952
548 1 4.34349 2.2046 5.89846
549 1 2.48926 7.51952 2.9706
550 1 5.05583 2.48841 6.30814
551 1 1.72809 0.468278 8.78694
552 1 8.93209 1.16779 8.73342
553 1 3.79274 8.34016 3.90018
554 1 9.36352 3.18953 0.277691
555 1 2.34359 6.75122 1.38875
556 1 8.33781 5.94083 5.29187
557 1 9.31752 6.99376 1.92574
558 1 5.77233 8.99473 1.3686
559 1 1.93176 5.31881 5.84621
560 1 4.19876 7.0416 6.2583
561 1 1.51431 7.51173 3.73341
562 1 6.38508 2.52669 4.81546
563 1 4.99697 0.785333 9.16445
564 1 9.22328 6.38808 0.158211
565 1 5.22883 1.9561 9.13656
566 1 -0.00622684 6.54106 8.63374
567 1 8.89026 2.99999 7.26545
568 1 2.72383 4.28128 2.26816
569 1 6.5202 9.27772 6.2695
570 1 8.26911 3.91211 4.13631
571 1 6.19526 2.60825 9.165
572 1 2.78571 4.2661 3.6523
573 1 2.08416 1.59565 5.69133
574 1 6.42236 4.50842 8.77562
575 1 5.95797 0.500157 8.98767
576 1 2.44061 1.86669 2.92167
577 1 8.46974 3.27867 5.05058
578 1 8.54013 1.05772 6.91369
579 1 2.64499 6.38031 8.6
580 1 2.1294 7.99386 5.78421
581 1 9.2476 1.84897 7.09211
582 1 4.64685 0.532203 6.32325
583 1 8.90096 7.43335 7.60727
584 1 2.07037 6.51724 7.28949
585 1 8.53761 2.06776 1.60795
586 1 4.93191 3.11405 4.99619
587 1 6.53985 6.92775 0.0853457
588 1 2.58891 2.50703 9.08192
589 1 1.57315 3.73792 0.274026
590 1 3.57794 7.643 6.65737
591 1 6.43415 5.52319 6.74625
592 1 6.70291 0.937735 3.61918
593 1 6.16132 5.24411 0.170065
594 1 8.02889 8.42155 7.09583
595 1 2.20109 9.26722 3.96614
596 1 3.86531 8.99021 3.21775
597 1 0.896893 9.34774 8.42725
598 1 3.39711 4.93042 2.07954
599 1 4.55878 2.00162 4.39043
600 1 5.76485 6.75145 2.55734
601 1 2.65235 4.81563 7.37206
602 1 2.46374 5.19189 8.57785
603 1 8.10723 0.274895 6.77607
604 1 8.24035 7.0192 5.04652
605 1 1.5161 9.37957 4.78131
606 1 8.99691 7.24573 3.85059
607 1 7.39891 9.36967 1.24549
608 1 0.200547 0.669317 1.94782
609 1 2.61171 2.3835 5.39259
610 1 3.00877 8.22018 6.16882
611 1 2.32601 6.06227 4.21601
612 1 5.41789 4.88578 8.98271
613 1 6.18313 8.2595 6.25763
614 1 8.03456 3.96245 3.3282
615 1 5.73929 5.45692 7.40608
616 1 3.70818 4.19758 3.83184
617 1 1.13599 8.96007 0.756779
618 1 2.54527 5.95899 3.39381
619 1 2.32044 5.68738 2.57944
620 1 4.25858 3.00979 8.79747
621 1 8.61769 5.50479 0.751674
622 1 7.23892 2.89603 2.15237
623 1 6.19442 1.47688 1.75986
624 1 3.29586 0.605954 0.830373
625 1 7.12822 2.32934 9.04288
626 1 8.69585 4.47212 3.23433
627 1 8.26623 7.05565 7.07021
628 1 6.02027 3.61319 4.73261
629 1 8.64559 7.79382 6.70912
630 1 6.13397 5.94567 2.957
631 1 5.5609 6.06531 4.6138
632 1 0.850428 5.92419 0.65129
633 1 7.1876 3.22362 8.37416
634 1 3.37831 7.36906 4.01104
635 1 3.81983 1.77619 8.42887
636 1 3.29591 1.9079 3.66421
637 1 0.461786 2.9849 1.61614
638 1 8.95119 6.04524 7.84446
639 1 2.73913 3.99485 0.205325
640 1 5.01812 3.46011 0.74915
641 1 8.69313 4.50492 1.05706
642 1 5.87677 1.36556 6.79783
643 1 6.05778 1.83395 2.61673
644 1 8.72586 5.09825 5.5912
645 1 8.05371 4.31674 5.02392
646 1 7.12126 5.63515 8.50347
647 1 7.68153 6.26083 4.52943
648 1 1.87156 6.04171 1.76589
649 1 8.27142 1.84854 8.17915
650 1 8.58591 4.04658 7.6118
651 1 4.66818 0.69106 0.668756
652 1 2.30397 3.28762 9.28536
653 1 6.48462 8.77361 0.34812
654 1 9.34423 4.83528 7.03028
655 1 0.156248 1.52712 9.37204
656 1 4.14997 1.42614 5.01122
657 1 2.63655 5.87834 6.11458
658 1 1.11045 3.96159 7.9204
659 1 1.68238 8.44307 8.01318
660 1 1.86393 3.8838 7.34104
661 1 6.45018 0.785453 6.26702
662 1 9.25566 3.13165 4.49751
663 1 1.16215 8.7653 9.28639
664 1 6.44705 6.9606 1.85532
665 1 2.60713 6.89724 4.31151
666 1 7.05132 4.53932 3.59724
667 1 4.59116 7.07198 9.19015
668 1 8.18035 7.84797 8.83311
669 1 6.44307 3.76172 6.69064
670 1 0.319677 6.06376 6.69132
671 1 5.58282 6.81502 9.39761
672 1 6.7846 5.53515 0.839072
673 1 8.86784 6.16128 3.85833
674 1 0.417986 4.90036 0.579681
675 1 1.01052 5.92349 5.88951
676 1 3.27633 3.96093 1.21068
677 1 7.79849 1.32904 1.95619
678 1 4.09174 3.11503 7.55735
679 1 7.5955 8.81166 1.99488
680 1 4.24487 3.53773 0.161795
681 1 5.32157 5.545 8.24371
682 1 6.38823 6.09444 5.70475
683 1 5.65887 1.7747 6.07724
684 1 6.46542 2.77638 8.25105
685 1 1.41411 4.3763 5.16039
686 1 5.82009 5.32689 6.07596
687 1 6.30157 4.90586 1.27926
688 1 8.84119 6.69057 3.07697
689 1 3.64272 6.58926 8.7908
690 1 5.98102 1.6642 5.05091
691 1 2.66604 8.95262 9.27326
692 1 0.0498247 4.44292 6.2499
693 1 6.08433 7.43853 6.06513
694 1 6.74189 4.52975 7.10595
695 1 2.44676 5.61107 5.17608
696 1 0.245059 9.20213 5.37429
697 1 4.66227 3.49109 7.04704
698 1 7.87427 7.86722 2.35841
699 1 0.0390217 8.0336 1.8106
700 1 1.98874 8.93585 0.632832
701 1 1.58023 4.81134 7.81432
702 1 1.84399 3.8269 8.70268
703 1 1.65376 2.57179 2.91315
704 1 8.88118 8.11364 1.05918
705 1 5.75204 6.29385 7.69366
706 1 3.12684 6.20917 0.659703
707 1 4.77119 1.68797 0.451415
708 1 5.41516 1.29521 1.03367
709 1 4.10592 6.68095 5.32154
710 1 6.87775 0.939121 1.53581
711 1 2.28044 7.11553 8.12725
712 1 7.20564 6.24388 1.55999
713 1 3.38385 0.26716 7.47388
714 1 3.44762 2.47188 9.16159
715 1 4.88596 4.39681 2.44683
716 1 1.61968 2.45639 1.89333
717 1 0.981397 1.68529 4.84991
718 1 3.28787 0.532637 9.09128
719 1 8.62389 7.73887 5.59813
720 1 3.43501 2.61032 7.99337
721 1 4.84093 2.60556 7.32913
722 1 8.5719 2.74546 8.22808
723 1 8.92124 1.34222 4.03478
724 1 0.843461 1.71362 7.44737
725 1 4.66677 8.84067 4.34767
726 1 3.24856 0.469731 6.21302
727 1 5.15668 9.17081 8.73947
728 1 7.84122 1.90674 6.77721
729 1 3.12814 0.644248 3.24665
730 1 1.87734 0.605269 7.87373
731 1 9.23882 2.74991 5.37859
732 1 4.4992 7.61645 5.60201
733 1 5.07707 7.95529 6.23326
734 1 1.0009 0.582719 7.35518
735 1 3.83007 3.67664 8.29047
736 1 4.06108 5.45256 6.9808
737 1 2.59397 2.23629 1.35967
738 1 7.20063 4.2725 5.58274
739 1 1.16863 3.14862 2.15033
740 1 6.26245 8.57077 3.6148
741 1 2.55067 0.663021 8.6338
742 1 5.94154 0.601342 1.38355
743 1 8.63999 9.02687 1.28575
744 1 9.37014 8.97438 1.74582
745 1 8.1787 3.15724 6.56324
746 1 8.9971 6.91639 6.5843
747 1 7.86502 5.1574 1.16013
748 1 1.70199 0.00855624 3.08456
749 1 5.1194 2.91745 9.36034
750 1 8.09146 5.95043 1.48411
751 1 3.43982 6.27751 6.03898
752 1 1.78588 4.57686 3.52333
753 1 4.77542 8.19421 3.64738
754 1 8.04921 8.86678 5.51617
755 1 7.47904 0.57685 4.19472
756 1 8.01796 4.74284 7.32324
757 1 5.5497 4.90019 2.93352
758 1 8.17769 3.99595 5.91099
759 1 1.68668 5.41194 3.78976
760 1 5.70948 5.54063 0.931306
761 1 3.48876 7.07521 0.182437
762 1 7.92968 5.89379 6.03228
763 1 0.969152 7.84851 5.85477
764 1 4.77677 3.56022 8.10285
765 1 1.87767 2.68805 3.73541
766 1 7.22233 0.61788 7.51449
767 1 7.0366 8.26819 7.28328
768 1 5.82129 2.76091 3.00089
769 1 8.68493 8.45012 4.2596
770 1 6.12449 2.21708 7.42278
771 1 4.61173 6.15993 7.6315
772 1 4.42959 2.6552 3.28308
773 1 7.36259 3.4313 1.35791
774 1 6.60019 1.3776 7.57539
775 1 7.90965 2.11589 0.106338
776 1 7.35512 4.25846 8.07926
777 1 3.06836 8.84887 3.82649
778 1 4.09752 3.00839 2.28356
779 1 8.67586 2.93267 3.06459
780 1 4.73354 8.35412 2.6485
781 1 3.3454 0.862066 8.16998
782 1 4.0228 2.72448 4.82529
783 1 3.76315 8.99661 4.51203
784 1 4.23241 2.97164 6.26802
785 1 6.63819 8.82684 1.55491
786 1 8.72368 2.2728 0.560501
787 1 7.57532 3.89933 2.19612
788 1 7.51591 7.53053 6.71348
789 1 1.50834 9.07635 5.66332
790 1 3.52186 0.487427 4.45063
791 1 9.23611 0.264366 6.81526
792 1 3.98544 1.14852 5.95064
793 1 3.25932 9.36096 8.35254
794 1 4.88152 8.52842 7.18758
795 1 8.21696 3.60589 8.36076
796 1 3.50063 3.38219 0.539801
797 1 7.27275 9.17312 6.95178
798 1 9.17007 4.1648 8.48491
799 1 2.29959 0.322686 0.111903
800 1 8.49394 9.34901 7.53704
801 2 4.95952 7.37953 1.49512
802 2 0.62521 8.93662 4.67914
803 2 1.22318 6.62018 1.87954
804 2 7.68023 2.59694 3.16026
805 2 3.26684 6.23085 4.15109
806 2 7.13172 7.14323 7.42449
807 2 2.86912 6.50751 5.43745
808 2 0.86631 9.42756 2.4004
809 2 2.8161 2.77564 0.611554
810 2 0.0529126 5.69101 0.547135
811 2 5.43621 2.34125 4.48598
812 2 0.926309 4.94744 2.47625
813 2 7.42234 4.59484 6.56602
814 2 6.25409 8.14662 7.94744
815 2 2.24203 6.8184 0.440352
816 2 4.74792 5.18671 7.43621
817 2 0.385923 6.22451 2.34491
818 2 1.68763 1.83647 3.36104
819 2 7.0765 8.24879 4.21814
820 2 0.851102 0.0953027 1.44248
821 2 5.7655 3.90883 1.01817
822 2 7.89404 2.73172 1.39912
823 2 7.68964 3.24375 3.88342
824 2 4.68836 5.77168 4.904
825 2 1.48036 6.94468 7.9183
826 2 8.58127 0.137914 5.28927
827 2 4.60999 8.55911 8.22906
828 2 8.68603 1.77172 4.9969
829 2 2.95741 6.24429 7.6765
830 2 5.094 0.181019 7.28299
831 2 3.72815 4.33462 0.338634
832 2 5.86411 5.13366 4.5351
833 2 3.30519 7.76915 8.61614
834 2 8.72227 3.92161 6.54793
835 2 4.42217 0.276742 4.71057
836 2 7.54723 5.25648 2.05114
837 2 5.63671 4.54499 0.457828
838 2 0.0641523 2.62456 3.63794
839 2 2.21994 4.12442 4.41473
840 2 1.74916 5.38108 4.71925
841 2 5.51057 7.91651 3.07265
842 2 6.79238 0.144038 8.62953
843 2 7.50779 1.83109 5.75076
844 2 7.22452 8.4031 0.616803
845 2 2.53784 2.37196 6.36401
846 2 0.509787 1.2229 4.25671
847 2 4.57896 7.66099 6.92117
848 2 3.30743 5.86246 2.93406
849 2 1.28139 2.2855 0.715687
850 2 7.10809 1.58635 0.255682
851 2 2.69315 8.93518 7.70757
852 2 8.51259 3.65651 2.40094
853 2 4.42141 8.32969 0.735228
854 2 3.306 3.49189 8.99649
855 2 2.23291 4.33874 0.914069
856 2 5.08848 7.47066 4.24299
857 2 2.72334 9.38069 4.58987
858 2 4.14192 7.41001 0.883857
859 2 5.53679 8.51008 2.17586
860 2 2.88199 1.81344 8.29463
861 2 0.395099 1.42939 2.57552
862 2 0.69657 6.36334 7.85079
863 2 0.833075 5.19076 3.33941
864 2 5.75724 6.78494 4.04507
865 2 5.4744 8.24195 9.00684
866 2 6.72443 1.80786 6.64077
867 2 3.88432 2.27681 6.79071
868 2 2.42541 3.43875 3.8448
869 2 6.76881 0.982449 4.83145
870 2 8.98102 2.91823 1.05655
871 2 3.81799 4.56421 5.65627
872 2 4.62005 4.05098 3.43207
873 2 2.9033 8.61215 5.24977
874 2 0.922398 5.11216 9.31587
875 2 5.68547 7.42595 4.95646
876 2 8.59613 9.13304 9.36322
877 2 8.40489 6.80252 8.15405
878 2 2.7682 2.10656 7.13639
879 2 6.39266 0.466008 7.14399
880 2 7.47171 6.29184 7.93723
881 2 7.94338 2.72509 8.84709
882 2 8.75387 6.42334 0.9885
883 2 1.91427 7.14819 5.49467
884 2 8.12778 6.68789 -0.00456932
885 2 5.87663 0.705646 5.6326
886 2 5.78743 4.34145 5.36946
887 2 4.48088 6.05517 8.63653
888 2 2.81129 5.08079 3.20181
889 2 4.11762 4.33159 4.8088
890 2 3.26159 5.6739 8.33855
891 2 7.85229 5.01506 5.85132
892 2 0.0328993 0.45645 4.4427
893 2 5.62719 6.95325 1.65428
894 2 0.0732567 7.69461 5.87036
895 2 0.296052 6.626 3.93422
896 2 1.35193 8.39112 4.08986
897 2 5.45256 1.33008 4.30733
898 2 2.38138 1.63352 3.81453
899 2 3.20018 3.94431 7.4977
900 2 3.35886 5.47045 7.51206
901 2 0.243507 9.11625 7.81253
902 2 1.01344 7.55255 7.25782
903 2 7.94517 8.15433 6.00135
904 2 7.34875 4.8402 8.86289
905 2 0.70865 9.22197 6.92246
906 2 7.23163 2.52709 5.21236
907 2 3.84388 6.13034 2.26765
908 2 6.51219 5.88964 4.66335
909 2 6.68896 7.62315 4.59756
910 2 8.78548 1.15615 1.94373
911 2 3.62367 1.41613 7.53595
912 2 8.18503 6.77321 3.85412
913 2 1.34752 4.26734 1.22477
914 2 8.12657 4.5107 8.53321
915 2 2.20397 9.15287 8.50599
916 2 4.25007 1.33127 3.83232
917 2 7.51406 1.40896 7.42967
918 2 9.0978 8.5431 6.04153
919 2 0.469703 3.49449 5.03273
920 2 5.95355 7.71614 3.78729
921 2 6.19722 2.63312 6.50754
922 2 0.0573428 3.92265 7.56606
923 2 5.38083 8.88144 3.16955
924 2 1.42778 3.20405 8.01367
925 2 7.80463 6.06605 2.29392
926 2 5.70725 8.48373 4.32167
927 2 0.0497985 5.63424 8.70977
928 2 1.07035 1.60351 1.66219
929 2 0.781232 7.58543 4.21677
930 2 8.59277 5.21088 1.84452
931 2 4.96579 0.0839904 1.3376
932 2 1.63861 7.71081 2.83755
933 2 1.35327 8.69967 2.72488
934 2 1.98644 8.23924 9.26939
935 2 3.99439 1.87251 3.03829
936 2 5.19131 5.76712 9.15618
937 2 1.08223 0.998483 6.62335
938 2 3.60135 5.13954 8.9963
939 2 4.27909 4.92121 1.08461
940 2 7.49359 1.04544 6.56957
941 2 2.97973 4.44266 8.8705
942 2 0.841202 0.269527 5.9642
943 2 3.47251 5.95165 5.11291
944 2 7.89192 7.71708 7.52303
945 2 6.6029 5.51186 1.98486
946 2 2.39473 4.37113 8.24994
947 2 3.00905 7.7816 7.67824
948 2 6.23949 8.12198 0.995977
949 2 5.9791 7.42231 8.74948
950 2 4.19057 1.28978 1.088
951 2 1.96848 4.92282 6.67934
952 2 2.69465 5.7067 6.96327
953 2 8.23107 5.64234 4.3866
954 2 1.70339 7.56366 8.58208
955 2 6.20086 4.18377 2.55417
956 2 5.51464 8.33899 5.52207
957 2 1.32818 4.62622 8.71892
958 2 0.416243 1.43975 8.14861
959 2 2.95769 3.01373 1.5043
960 2 0.118765 3.53674 3.05061
961 2 7.00036 5.2733 6.11164
962 2 0.33248 6.58272 5.86301
963 2 0.834872 2.0612 6.44156
964 2 7.39618 4.60796 0.338834
965 2 6.99911 3.29519 4.65169
966 2 3.75066 1.35514 0.206353
967 2 7.55976 6.10926 0.748508
968 2 5.97708 6.40983 6.38499
969 2 2.98849 7.1496 6.05211
970 2 0.351487 2.3813 2.71638
971 2 4.74621 4.95994 5.30038
972 2 4.14689 7.8778 8.75041
973 2 1.54149 6.61726 4.27448
974 2 1.50409 5.10196 1.72129
975 2 3.73079 8.44628 8.03132
976 2 0.179239 1.01165 7.20741
977 2 1.06283 0.864166 2.85063
978 2 4.93392 4.18708 4.28252
979 2 0.219288 9.11491 9.10589
980 2 1.58454 0.594685 5.51952
981 2 6.30931 3.74103 7.81672
982 2 3.66549 5.26813 0.446613
983 2 2.6258 0.932215 7.44648
984 2 8.9753 8.56485 5.09142
985 2 4.10945 3.83378 2.29943
986 2 1.19774 0.372485 0.11335
987 2 2.49323 2.89638 3.03439
988 2 5.03599 4.60647 6.09575
989 2 3.28905 4.1173 2.9411
990 2 3.83133 6.34083 8.02284
991 2 0.990288 5.9157 4.21586
992 2 2.37591 2.4022 7.95511
993 2 5.6057 0.510296 0.449183
994 2 2.65309 9.1652 6.13883
995 2 7.23296 2.74886 0.716973
996 2 9.17073 7.40202 8.58238
997 2 2.77311 9.15886 1.77448