#bin. KALJ data file T=0.5

1000 atoms
2 atom types

0 9.4 xlo xhi
0 9.4 ylo yhi
0 9.4 zlo zhi

Masses

1 1.0
2 1.0

Atoms

1 1 3.04932 2.32279 8.45503
2 1 7.20298 1.07643 7.0701
3 1 1.00832 7.4664 5.69498
4 1 8.56847 1.69673 8.0447
5 1 4.3068 6.91618 8.59667
6 1 8.9515 0.988895 5.51762
7 1 8.16685 7.89841 0.493346
8 1 0.409633 0.456361 0.510811
9 1 4.2348 1.5019 7.1585
10 1 4.86019 7.39626 0.977317
11 1 7.90253 8.03214 5.16549
12 1 4.13353 6.66335 1.56766
13 1 5.97196 8.07171 8.84994
14 1 3.75307 5.69591 1.32615
15 1 7.10161 3.20698 0.139778
16 1 9.30883 8.68693 2.90183
17 1 5.20425 3.28842 2.75297
18 1 8.70832 8.71778 8.56485
19 1 7.77142 0.447835 3.47601
20 1 1.35804 8.92823 7.20817
21 1 2.13618 4.58173 1.03551
22 1 0.243359 7.87039 5.46698
23 1 4.97575 2.80441 5.74968
24 1 2.11328 3.68146 7.00695
25 1 6.01549 1.2281 7.46797
26 1 7.90553 0.948362 5.44133
27 1 6.65057 6.04756 6.70735
28 1 1.8795 0.63284 5.18366
29 1 6.41362 4.08178 5.31812
30 1 8.31358 2.99545 3.27741
31 1 1.79254 2.53408 9.24331
32 1 3.06422 5.34993 7.60651
33 1 6.08886 2.84311 9.35737
34 1 0.495393 1.22731 3.83172
35 1 8.23326 6.45069 9.28006
36 1 8.04336 1.59346 7.14583
37 1 6.70632 8.37393 6.82526
38 1 9.38788 8.20253 4.69539
39 1 1.80178 0.574193 4.16191
40 1 4.14723 9.18989 3.52077
41 1 4.89754 7.32414 5.76802
42 1 8.71064 1.73851 0.542678
43 1 2.90123 6.07436 5.39939
44 1 1.58916 3.05881 7.56108
45 1 3.44354 2.28507 5.02575
46 1 0.259078 6.95173 0.147606
47 1 8.0586 4.61252 0.0620762
48 1 4.89813 4.70948 7.65217
49 1 8.54351 6.2565 8.25847
50 1 6.33474 7.18504 9.19033
51 1 9.10319 5.37657 1.02883
52 1 0.915833 2.21461 0.103114
53 1 8.19293 1.60658 2.37093
54 1 1.15568 6.20739 4.30198
55 1 7.0707 2.3387 5.6644
56 1 0.205502 2.38664 1.06156
57 1 7.09156 2.87581 4.19346
58 1 9.26202 2.4358 4.41448
59 1 5.98963 4.34545 1.77328
60 1 3.64165 0.912785 9.09823
61 1 4.14867 5.15044 0.615588
62 1 7.05697 1.15209 3.89404
63 1 5.14848 3.02612 0.293616
64 1 2.61431 3.21445 2.59474
65 1 4.32909 7.68373 1.75621
66 1 7.44992 8.32726 4.42727
67 1 6.44659 8.30131 3.55538
68 1 7.36451 2.91972 1.06504
69 1 6.86379 4.80657 4.73858
70 1 9.01769 0.153294 5.82671
71 1 6.42392 4.05739 3.93724
72 1 7.58651 6.04461 6.11005
73 1 4.81282 6.33505 8.06177
74 1 7.756 7.27308 5.72635
75 1 8.68582 2.17899 1.70451
76 1 0.732876 1.0008 2.75734
77 1 0.643403 8.36154 7.59284
78 1 9.14297 5.88591 7.38257
79 1 3.41706 1.34437 8.44679
80 1 1.97197 5.95971 4.04249
81 1 8.83705 2.9508 5.0651
82 1 0.858278 6.89606 7.36146
83 1 5.58969 1.90402 8.08613
84 1 0.665625 5.29187 4.35835
85 1 4.85341 8.70795 8.79193
86 1 3.53519 9.35931 4.18901
87 1 4.26129 2.95197 8.45569
88 1 1.05032 4.77759 5.0915
89 1 0.489734 4.89844 2.20313
90 1 2.22669 4.23599 1.93227
91 1 2.02636 1.07426 8.02684
92 1 2.46476 6.76568 1.50527
93 1 2.08123 4.32881 5.07437
94 1 6.73614 8.89146 2.81086
95 1 5.09241 9.1888 4.58031
96 1 6.50565 0.782133 6.55891
97 1 5.55817 0.290124 3.63341
98 1 9.17367 2.30121 3.5124
99 1 6.20607 3.92294 6.68356
100 1 1.95038 0.716579 2.61835
101 1 8.29193 6.63633 2.58751
102 1 0.493597 4.25691 7.74343
103 1 8.81802 1.86203 6.768
104 1 6.16575 4.91523 8.93754
105 1 7.11203 5.26861 6.2558
106 1 1.06123 7.57515 0.478332
107 1 4.24135 1.22386 4.5037
108 1 8.0315 8.39257 2.8215
109 1 5.50765 1.61693 2.8631
110 1 0.596374 7.85092 3.61653
111 1 0.256465 7.59849 7.51882
112 1 7.96814 5.40838 4.23323
113 1 0.362679 3.78063 3.52252
114 1 2.41163 8.43409 3.16804
115 1 7.36951 9.03198 0.272499
116 1 8.3868 1.74111 5.78832
117 1 0.828045 7.43647 2.0882
118 1 5.09136 2.88288 4.87532
119 1 8.90108 9.40048 3.36535
120 1 5.39708 8.468 6.46912
121 1 3.76299 0.120645 1.45818
122 1 4.32178 3.75965 9.27213
123 1 4.92163 7.77136 8.73872
124 1 2.59863 0.22366 7.75836
125 1 3.01591 6.04614 6.34134
126 1 3.63032 8.14902 6.05642
127 1 2.74472 0.52252 4.14474
128 1 8.39613 3.29401 4.27058
129 1 6.32658 1.64783 2.36996
130 1 6.9733 5.63274 4.14835
131 1 2.76669 0.802876 2.15189
132 1 1.35984 7.65318 4.7518
133 1 5.69387 6.58305 7.89847
134 1 5.33854 0.258179 5.28422
135 1 3.40193 5.11733 4.76531
136 1 6.57386 5.73132 2.65262
137 1 7.03779 1.11362 0.453585
138 1 8.90452 3.02747 1.32145
139 1 0.0446542 9.35314 8.85434
140 1 8.33919 6.57543 0.843087
141 1 0.89299 5.60445 6.1111
142 1 2.39206 8.76876 7.98631
143 1 3.7773 7.54552 2.74957
144 1 4.98289 3.56517 8.55978
145 1 8.19084 3.78922 2.64023
146 1 6.46578 2.76537 0.868967
147 1 6.54033 2.8906 7.46609
148 1 4.81697 0.983158 8.8102
149 1 4.10091 8.77725 1.59876
150 1 2.57979 5.33019 4.04387
151 1 7.0689 8.87791 7.51634
152 1 2.21351 2.17269 6.59313
153 1 3.80149 4.23681 0.749842
154 1 6.5958 8.67823 9.2217
155 1 8.0036 5.76898 7.52623
156 1 3.42895 6.9981 3.8625
157 1 2.18657 7.03409 4.98322
158 1 8.08962 5.4954 0.82259
159 1 9.37957 8.09133 0.67396
160 1 9.01165 7.26491 2.50621
161 1 1.39631 5.23867 2.8642
162 1 0.153666 8.7888 5.70043
163 1 8.02808 0.100441 1.07886
164 1 7.78339 8.14044 8.43127
165 1 2.16458 0.370495 8.69983
166 1 1.77967 9.31285 0.54484
167 1 2.67453 7.99017 2.29614
168 1 0.373396 9.05029 7.05406
169 1 6.8687 5.33754 0.682841
170 1 1.20437 5.50778 0.533402
171 1 8.07116 7.20882 4.35623
172 1 7.66658 0.120747 7.91402
173 1 2.15183 9.06341 2.62102
174 1 9.15826 3.62759 2.46333
175 1 2.03839 1.48428 0.930007
176 1 6.05061 7.39777 2.11451
177 1 2.73372 0.527031 6.77222
178 1 3.56047 1.42002 5.21312
179 1 6.20444 0.604804 4.37418
180 1 6.50492 3.70519 2.2303
181 1 0.444663 7.14207 6.53854
182 1 1.97804 7.94194 0.840572
183 1 1.59301 6.94363 4.11681
184 1 8.39583 9.08736 0.316127
185 1 3.04717 2.49029 6.74681
186 1 2.57586 2.04173 4.91223
187 1 5.60448 1.68319 1.81744
188 1 7.34716 3.53297 3.58517
189 1 4.83155 8.50784 2.39759
190 1 6.30518 4.73604 3.20445
191 1 2.50135 3.53826 8.05116
192 1 8.83921 3.47818 5.92647
193 1 2.37474 5.12513 8.79628
194 1 1.52907 6.98427 1.32287
195 1 5.25704 5.62525 7.49526
196 1 2.68951 8.0476 3.89736
197 1 2.27275 0.236261 1.63841
198 1 4.44124 8.65091 4.20939
199 1 3.47999 3.33691 8.08477
200 1 8.38774 3.46472 0.512065
201 1 5.60154 0.572573 1.35173
202 1 2.98606 8.16535 5.36026
203 1 2.30067 3.08238 0.262212
204 1 5.16565 2.81138 8.89019
205 1 7.969 2.84764 5.77913
206 1 1.23276 5.0412 9.04868
207 1 3.97283 4.586 9.30454
208 1 1.64923 5.61108 6.8743
209 1 9.0408 4.37455 3.74429
210 1 5.76551 8.05012 7.10277
211 1 4.58367 1.99541 5.53511
212 1 1.64077 3.5816 2.53562
213 1 8.13416 0.546186 7.15348
214 1 5.58353 4.33197 2.81155
215 1 4.15408 7.02885 7.66636
216 1 2.76685 3.64732 5.28425
217 1 7.81886 2.8427 7.29315
218 1 5.94614 0.412891 2.82331
219 1 4.01092 5.00774 4.06202
220 1 1.24018 9.17428 4.96811
221 1 4.44824 7.6196 0.0676136
222 1 -0.00769003 5.39472 5.98863
223 1 6.19057 6.63653 5.89401
224 1 6.85027 1.49193 7.91305
225 1 9.3866 8.91387 0.184339
226 1 3.47768 9.21545 7.84577
227 1 7.44879 1.11645 2.93215
228 1 4.51598 1.9638 1.78774
229 1 2.46368 1.4585 2.66125
230 1 4.15805 8.56105 0.0361734
231 1 7.29482 2.03006 4.41761
232 1 4.04831 3.16699 5.68507
233 1 8.59611 7.08368 6.28181
234 1 8.3438 0.878096 2.89966
235 1 1.97298 1.52385 1.84077
236 1 2.36903 2.94879 4.6089
237 1 1.06915 7.6265 7.9708
238 1 2.90104 2.76133 1.86977
239 1 7.60445 0.613205 1.97333
240 1 6.69048 3.146 8.61114
241 1 7.7977 3.84364 7.45037
242 1 7.49665 6.21315 0.401223
243 1 9.13922 0.392618 2.5501
244 1 4.77769 3.4773 4.22241
245 1 7.97579 5.08123 5.89744
246 1 0.514434 1.8054 3.1036
247 1 9.12292 9.17169 4.8523
248 1 5.47428 6.6125 0.386712
249 1 8.10398 7.44418 9.09527
250 1 0.263654 3.68625 1.61208
251 1 8.98863 2.71369 6.34387
252 1 9.22077 4.56299 8.28062
253 1 0.958375 1.90727 5.4729
254 1 0.403413 5.12806 8.79796
255 1 0.963356 3.02483 1.55806
256 1 5.7318 5.4436 2.18492
257 1 4.39457 5.98536 5.46093
258 1 5.48639 6.48638 3.79736
259 1 6.64968 6.42477 4.94708
260 1 1.71757 7.72272 3.61788
261 1 5.08356 6.50682 5.93903
262 1 6.10913 6.13394 0.998251
263 1 2.69775 6.67918 2.94227
264 1 3.34669 6.85773 4.76596
265 1 4.33894 0.938072 0.4103
266 1 3.25873 5.98164 2.39031
267 1 8.73498 5.961 1.57567
268 1 1.66279 4.76403 6.61238
269 1 6.66183 4.37342 0.679642
270 1 4.52832 4.3182 4.00874
271 1 3.47911 1.8984 9.21902
272 1 8.51788 7.17847 3.42658
273 1 0.853267 3.78026 0.74032
274 1 7.24846 4.25847 8.23312
275 1 7.25307 7.45439 4.9755
276 1 2.26551 4.04752 6.01477
277 1 8.69301 5.2573 2.27771
278 1 0.569614 6.6182 1.53663
279 1 3.36329 1.69502 7.39575
280 1 9.07603 3.72325 8.1229
281 1 2.1818 4.57053 3.64449
282 1 1.3112 4.65633 2.13593
283 1 6.01452 5.40483 0.286884
284 1 3.54841 6.63289 5.63262
285 1 6.25156 3.46884 4.68734
286 1 3.00929 2.37379 2.88092
287 1 3.10846 2.4584 4.13811
288 1 0.253324 3.60687 7.04644
289 1 1.66398 6.55644 3.28953
290 1 7.22198 4.44225 5.48165
291 1 0.0676648 1.68701 7.89404
292 1 8.55151 0.53265 1.82981
293 1 7.84492 2.71032 4.76981
294 1 8.27416 7.16312 1.91164
295 1 7.98686 7.15191 6.87135
296 1 5.33107 5.73124 1.28072
297 1 5.49677 4.32659 6.02767
298 1 7.08294 1.60506 6.21712
299 1 2.14784 8.97354 4.50609
300 1 7.44849 2.06291 3.16803
301 1 3.23347 8.636 4.51623
302 1 8.54706 5.89822 3.36628
303 1 1.2628 8.51946 3.82708
304 1 8.51104 8.11409 7.11057
305 1 6.02918 6.86759 2.96441
306 1 2.29958 9.04078 9.24006
307 1 9.26688 6.80037 7.80076
308 1 1.44058 2.44469 6.03016
309 1 4.84893 3.65316 0.85952
310 1 1.91708 5.83159 5.96425
311 1 9.0995 6.40178 2.96079
312 1 7.52544 9.27628 2.7244
313 1 4.20742 1.67563 8.75435
314 1 7.28295 4.45059 3.69179
315 1 3.30438 8.72949 1.13217
316 1 0.345557 8.25393 6.5041
317 1 5.41928 3.79526 3.66195
318 1 6.1535 5.74277 7.37892
319 1 7.45263 5.6066 5.3012
320 1 7.49155 6.41829 6.99203
321 1 1.89164 4.48473 2.74402
322 1 6.19945 5.96478 8.29712
323 1 7.42821 7.23137 8.50238
324 1 1.40702 5.71006 2.21525
325 1 6.58281 4.9067 7.0449
326 1 1.73558 5.1113 4.24826
327 1 1.08492 3.68013 8.06098
328 1 7.05472 6.82766 4.30304
329 1 2.42853 0.612467 0.169414
330 1 2.61718 6.42265 7.54208
331 1 4.40965 2.55459 4.33365
332 1 7.54339 4.56929 0.930575
333 1 1.07597 3.19242 5.64084
334 1 8.63435 0.206006 4.17184
335 1 8.9457 0.0772454 1.01837
336 1 4.4075 5.75029 2.00459
337 1 1.34889 3.00302 0.721632
338 1 0.00916692 7.13143 3.36799
339 1 4.08571 8.13185 0.921381
340 1 2.57955 7.79564 8.07919
341 1 5.67785 7.3003 5.22534
342 1 9.04908 1.39521 3.15541
343 1 4.76168 1.42134 7.96501
344 1 3.59938 6.31445 7.88251
345 1 5.35247 1.25389 6.20356
346 1 1.36871 9.05917 8.86932
347 1 3.56748 9.06505 5.43874
348 1 6.90589 0.379031 3.23905
349 1 0.435823 2.24236 6.18568
350 1 2.99792 1.67092 5.94916
351 1 1.89311 7.01616 7.4925
352 1 5.91018 2.23982 7.30538
353 1 0.40631 7.40756 1.12979
354 1 1.07 0.738772 0.972808
355 1 8.04644 0.089218 8.76159
356 1 4.31842 0.502703 4.06151
357 1 0.0779516 3.47892 4.54478
358 1 5.00037 9.40183 0.0716601
359 1 8.00041 5.43609 6.73967
360 1 5.67211 0.513079 6.9153
361 1 0.920829 0.339068 7.15461
362 1 1.64216 3.44692 6.30906
363 1 4.69437 4.97996 2.80705
364 1 3.29984 3.19336 3.15305
365 1 0.187115 1.32471 6.91871
366 1 0.690956 5.53038 1.25057
367 1 7.77582 0.974445 7.84443
368 1 6.799 0.0181434 2.02203
369 1 2.30479 6.0853 2.40478
370 1 1.96576 6.5199 0.514563
371 1 1.25309 1.36493 4.63071
372 1 2.43131 5.14397 2.57808
373 1 5.43892 1.53368 9.01301
374 1 8.89353 7.33032 7.1624
375 1 3.64531 6.67426 2.97936
376 1 6.01931 3.53052 0.496858
377 1 5.52974 2.46627 2.48409
378 1 3.82523 2.47044 3.21817
379 1 2.09855 2.08397 3.92912
380 1 9.13824 6.39718 9.01469
381 1 4.58855 6.73504 3.92845
382 1 6.97792 1.29158 4.91441
383 1 7.87006 4.80997 7.68954
384 1 5.82493 4.56791 7.4858
385 1 1.02758 1.86494 2.2775
386 1 2.77579 5.70118 0.0727644
387 1 2.71939 5.25623 5.90367
388 1 8.82496 1.78594 9.09388
389 1 6.40758 7.89078 0.319075
390 1 1.36691 0.727883 3.3514
391 1 0.227323 5.19057 7.75473
392 1 4.76151 1.52554 3.82382
393 1 5.60082 6.42782 2.15766
394 1 5.82327 8.63095 2.9263
395 1 9.02224 7.98014 3.23787
396 1 5.29687 3.84866 9.34355
397 1 3.00316 5.04425 3.30516
398 1 1.02462 8.49568 5.44727
399 1 0.372082 0.124184 3.13844
400 1 0.0990158 5.7721 2.03615
401 1 3.70255 2.16435 6.25321
402 1 2.80912 0.857722 1.17
403 1 5.93648 2.94708 3.34694
404 1 1.0268 2.94679 6.86061
405 1 7.83617 6.0242 1.56516
406 1 0.147331 5.98917 3.71773
407 1 0.431692 4.33581 4.49187
408 1 2.96705 7.35354 5.62549
409 1 1.23763 8.39826 0.247364
410 1 7.28951 4.10309 2.85566
411 1 8.63131 0.199808 7.89645
412 1 8.01088 3.80817 4.91462
413 1 9.06258 6.80223 1.27343
414 1 4.67828 0.864526 1.80169
415 1 6.98777 6.24649 1.33049
416 1 2.34194 1.17314 6.18883
417 1 6.20746 5.77985 4.52752
418 1 2.43636 5.10306 5.08045
419 1 5.3827 8.29425 8.17613
420 1 5.45526 6.87691 8.80295
421 1 1.01962 1.64343 1.26982
422 1 0.588252 4.67714 5.94264
423 1 0.305818 1.61579 4.89404
424 1 1.46571 2.10492 7.56658
425 1 1.21755 3.5894 3.2887
426 1 0.606073 0.216924 2.09005
427 1 7.55826 8.53662 6.74505
428 1 8.4252 2.10788 3.10291
429 1 7.3547 7.83141 7.42004
430 1 8.87021 1.10057 7.40767
431 1 1.28862 0.00217158 2.67851
432 1 4.27131 9.09184 6.17881
433 1 8.62385 8.44469 5.52828
434 1 1.33082 4.18134 5.87999
435 1 0.682401 9.26379 7.90821
436 1 2.92789 9.09108 2.26477
437 1 5.88273 6.96355 1.29616
438 1 3.62463 7.94645 3.67841
439 1 3.69864 2.27977 1.65087
440 1 5.29844 5.00214 0.779416
441 1 6.43811 0.246937 7.28013
442 1 4.62027 5.43978 3.63024
443 1 3.92816 3.80498 1.49483
444 1 5.66104 5.83541 8.95559
445 1 0.369194 1.21632 0.0342939
446 1 9.38458 6.21028 6.49001
447 1 0.519233 2.8869 7.95558
448 1 5.6044 3.54239 1.35083
449 1 7.71276 1.50536 0.1216
450 1 3.34377 7.90069 0.00808498
451 1 4.04784 8.77452 8.58229
452 1 3.60983 6.72487 7.02668
453 1 7.61824 3.76314 8.88537
454 1 2.43859 1.89123 0.045726
455 1 4.95863 8.25832 1.25741
456 1 6.47677 6.90697 7.20299
457 1 1.74383 3.31329 8.70792
458 1 0.39786 0.327989 5.41826
459 1 5.09858 4.33726 1.36873
460 1 6.23429 1.05463 3.5232
461 1 1.28584 2.79597 2.38778
462 1 4.37525 6.74097 0.617527
463 1 4.76467 2.9603 7.69322
464 1 5.03084 2.15227 7.41619
465 1 8.2643 0.266086 6.25632
466 1 1.54378 8.41981 8.26978
467 1 1.2951 0.940768 1.92819
468 1 8.02642 8.74672 6.06028
469 1 0.0132097 0.492017 3.88313
470 1 5.41918 7.49775 0.227474
471 1 4.88042 9.38048 6.83816
472 1 1.7753 0.597861 6.48914
473 1 1.65621 2.17189 4.78344
474 1 3.71057 2.96376 2.26879
475 1 2.87345 8.40326 7.13671
476 1 3.38817 4.87428 2.38432
477 1 2.31072 2.42908 5.69055
478 1 8.76859 7.7174 1.39677
479 1 1.80468 7.42271 0.0311028
480 1 2.71511 3.07543 8.82914
481 1 1.3244 4.92599 1.20901
482 1 0.486126 0.40034 6.36287
483 1 3.06618 3.86726 1.92029
484 1 0.350599 8.55284 1.3857
485 1 2.11198 3.69568 3.44682
486 1 6.98282 2.61084 1.948
487 1 8.22309 6.97323 7.67021
488 1 2.14761 6.43285 8.66304
489 1 4.13576 7.08292 6.22806
490 1 0.207799 5.91406 8.40984
491 1 0.739101 8.65386 3.00958
492 1 7.66809 5.82888 2.6264
493 1 5.03408 6.55545 1.2998
494 1 1.89675 4.08788 4.28555
495 1 1.61193 1.64712 8.91424
496 1 8.40649 2.50471 8.50892
497 1 0.955562 0.0978063 3.9414
498 1 4.91122 8.42254 7.20025
499 1 1.08724 7.38526 2.91881
500 1 4.4211 3.50855 2.25093
501 1 1.07424 2.6119 8.71355
502 1 8.4563 3.75658 1.60668
503 1 6.98529 6.43712 7.82168
504 1 6.41074 2.10533 3.22917
505 1 9.14857 3.88455 0.838121
506 1 3.23907 4.653 1.46657
507 1 4.64379 0.833105 6.65259
508 1 3.78533 1.94756 0.680494
509 1 9.1673 4.18627 6.41217
510 1 3.36061 0.4465 0.61871
511 1 9.09173 3.0618 7.36115
512 1 5.33518 4.68555 3.70194
513 1 8.54155 7.81182 8.18058
514 1 6.07562 2.57868 1.79216
515 1 5.70941 4.3423 8.42813
516 1 3.49289 8.09991 1.91853
517 1 7.10692 5.40335 7.587
518 1 8.98179 7.98805 6.20647
519 1 8.49889 6.45615 4.21034
520 1 9.16633 4.42055 1.95025
521 1 7.62857 2.12389 7.74701
522 1 4.96181 3.81049 6.61524
523 1 0.686197 8.5505 8.60199
524 1 5.56936 2.84211 8.01164
525 1 9.24454 9.14108 1.89957
526 1 2.64075 1.83934 7.80042
527 1 2.16608 6.53084 6.71008
528 1 5.08026 5.08095 9.25645
529 1 7.23618 1.72936 2.17161
530 1 8.69081 6.02889 4.97588
531 1 5.65552 1.96556 3.84517
532 1 2.76286 0.393557 2.95933
533 1 6.67592 7.19766 3.60638
534 1 5.69933 1.04936 8.23286
535 1 1.86345 5.72303 9.26219
536 1 0.216702 0.951124 1.37761
537 1 0.395778 0.845112 7.73572
538 1 7.15774 0.921503 8.60263
539 1 7.86202 2.42748 2.40709
540 1 7.81019 1.71408 8.58089
541 1 7.07635 6.76445 5.62555
542 1 8.8351 5.14811 6.82929
543 1 4.05009 2.64606 9.27788
544 1 6.05957 0.0344117 9.13982
545 1 0.940005 4.09938 6.7602
546 1 5.58616 9.15094 1.22996
547 1 5.9368 7.63306 3.95223
548 1 0.426421 3.86747 5.35177
549 1 4.2869 7.04635 2.38326
550 1 8.82585 5.21284 4.15517
551 1 9.38388 8.06614 8.32369
552 1 4.23775 4.13752 5.91195
553 1 3.37172 1.36966 4.34638
554 1 1.14906 4.03731 9.36122
555 1 4.69609 7.94621 4.93257
556 1 6.87524 6.47928 8.82324
557 1 1.58198 2.17587 0.708185
558 1 7.76394 1.15083 4.55687
559 1 2.07247 1.43078 7.07509
560 1 6.68298 4.01259 9.28046
561 1 8.65085 0.927145 0.941841
562 1 3.65022 6.05596 4.67433
563 1 2.63723 4.55372 6.80476
564 1 6.62692 6.89337 0.669486
565 1 2.96301 4.19605 2.95361
566 1 5.60674 2.21645 5.48307
567 1 0.0300933 1.10732 8.59869
568 1 6.88394 0.454908 5.02441
569 1 6.84434 1.93333 1.26288
570 1 3.61516 5.61355 5.84135
571 1 0.892218 8.52886 2.12063
572 1 3.04077 2.59652 0.401262
573 1 2.80064 7.84856 1.23062
574 1 8.79613 1.61034 4.937
575 1 3.23801 5.95653 3.71051
576 1 3.64196 5.46617 0.0170662
577 1 3.02577 1.29912 0.398337
578 1 8.31252 8.71555 4.55727
579 1 6.99348 6.47623 3.09457
580 1 8.05904 8.99514 3.5018
581 1 5.4847 0.684042 0.500131
582 1 1.8048 8.56785 1.77417
583 1 8.09392 4.8232 3.26305
584 1 5.33626 3.91797 2.16835
585 1 2.80967 4.39166 4.58955
586 1 8.57875 3.63896 8.96886
587 1 3.20895 3.18682 1.11426
588 1 2.78267 6.33075 4.34616
589 1 1.61136 9.19889 5.73357
590 1 2.93552 4.93665 0.696159
591 1 1.14026 0.89045 5.92432
592 1 6.24507 1.10649 0.759183
593 1 0.870162 5.7824 5.06217
594 1 1.07211 5.80448 3.52461
595 1 6.27825 8.58064 8.24818
596 1 3.81395 3.91893 3.92224
597 1 2.40912 8.74198 5.78709
598 1 2.64779 3.99766 8.78572
599 1 0.629268 5.80111 9.33638
600 1 1.03818 4.72169 8.25561
601 1 6.22355 2.68285 6.18568
602 1 3.65271 6.26353 0.527001
603 1 4.44534 6.23773 2.88482
604 1 4.28289 0.545788 5.47991
605 1 6.34765 7.34313 8.16151
606 1 4.24356 6.8652 4.75797
607 1 1.00598 1.57722 6.56614
608 1 6.59388 7.55655 5.50944
609 1 7.18006 7.2164 9.36339
610 1 8.13862 1.48378 3.67661
611 1 5.40916 5.59982 3.18631
612 1 8.32087 3.33519 8.01422
613 1 3.56076 7.48443 1.14592
614 1 6.68934 0.847731 2.48552
615 1 5.96972 1.30143 4.92422
616 1 1.82604 5.79984 5.08124
617 1 6.30051 1.0408 9.09764
618 1 3.79751 2.20636 8.02486
619 1 9.17011 6.66173 5.67028
620 1 3.74156 3.84214 2.57379
621 1 0.0296576 3.84829 9.35894
622 1 2.0789 2.8265 3.21877
623 1 1.00029 7.82194 7.0105
624 1 5.2659 5.50641 4.28026
625 1 8.85746 8.04632 9.30218
626 1 5.02026 1.85297 4.77016
627 1 2.99977 1.81063 2.05593
628 1 8.57557 5.79855 5.98704
629 1 1.77049 8.49826 6.47088
630 1 4.72502 4.39984 0.373295
631 1 4.10991 1.20273 3.3573
632 1 1.75689 5.00371 5.71285
633 1 5.03308 2.73634 1.83575
634 1 5.29246 2.57976 1.0219
635 1 2.97005 7.00629 8.23859
636 1 6.58064 1.20592 1.60195
637 1 8.33018 4.21628 8.23364
638 1 4.40589 4.45905 2.1004
639 1 0.346953 1.30245 5.78847
640 1 1.71658 7.39982 6.62756
641 1 4.19333 7.66019 4.29654
642 1 5.30516 0.261688 8.61472
643 1 7.6399 8.85038 1.91343
644 1 1.93421 8.22118 7.42131
645 1 5.25129 2.13363 6.46186
646 1 7.40834 4.89136 2.52996
647 1 3.61431 7.02666 0.0912789
648 1 9.07524 1.48887 4.12052
649 1 5.02755 1.08371 5.25609
650 1 7.00383 3.68741 7.15101
651 1 3.76249 4.38199 7.80876
652 1 6.39927 1.71376 5.56577
653 1 6.29344 0.623461 5.68891
654 1 3.41195 3.51155 4.69518
655 1 2.69692 5.88849 8.22062
656 1 3.3138 8.34841 2.92909
657 1 1.51491 6.66365 2.22156
658 1 4.19335 7.25552 3.40833
659 1 0.703599 9.22674 0.927999
660 1 2.62261 1.16132 8.76968
661 1 0.218963 2.8368 2.96517
662 1 8.64753 7.57291 5.39273
663 1 5.76508 0.0593254 7.77321
664 1 2.76422 5.81996 1.71399
665 1 5.0686 6.96809 3.10325
666 1 2.0642 2.26768 2.43309
667 1 4.27736 5.92096 7.38601
668 1 2.64606 3.11009 6.27316
669 1 7.57828 1.24738 1.27299
670 1 0.169044 4.71109 0.342317
671 1 5.76088 8.41549 1.9724
672 1 6.50312 0.350699 8.22877
673 1 2.70114 7.97834 6.33923
674 1 2.94435 7.07934 0.750051
675 1 7.47497 3.9285 1.83507
676 1 1.54885 5.3887 8.32477
677 1 0.562702 6.54818 2.56186
678 1 3.68312 0.544091 6.85315
679 1 4.05265 1.33952 5.96879
680 1 1.54454 1.60292 3.08274
681 1 3.95434 4.50434 3.24123
682 1 5.23758 9.22313 2.68261
683 1 2.56389 0.230796 5.96993
684 1 2.33136 9.12573 6.98885
685 1 5.83023 5.37859 6.25763
686 1 7.18389 4.84077 0.055534
687 1 7.30525 7.85171 0.866141
688 1 3.0501 7.0975 2.13022
689 1 4.39719 7.96678 8.06117
690 1 4.09871 5.09301 5.34806
691 1 6.26107 3.69011 3.09055
692 1 2.30846 6.72461 5.8458
693 1 1.29778 4.95096 7.4686
694 1 7.62746 6.16928 8.65951
695 1 9.10232 8.84282 7.68755
696 1 1.28797 1.23049 7.37535
697 1 2.67601 2.21395 1.1309
698 1 0.0526326 2.19 0.170606
699 1 6.83791 2.87342 3.2603
700 1 8.03931 3.11907 1.86454
701 1 4.53745 3.81459 7.85056
702 1 7.81735 5.08326 1.59593
703 1 2.61415 5.48778 6.75708
704 1 4.67701 3.95435 3.01731
705 1 6.20507 1.85483 0.003015
706 1 0.0195062 5.33515 5.00056
707 1 3.86847 1.91137 2.51777
708 1 7.24353 8.19323 5.90568
709 1 3.37794 7.80458 4.59011
710 1 7.21924 2.08062 6.98032
711 1 2.15049 5.58827 3.19099
712 1 4.15838 9.37509 4.81286
713 1 0.143234 3.05639 5.70735
714 1 3.07475 0.355136 8.81423
715 1 6.59834 7.71854 2.85159
716 1 6.09572 5.04179 4.00392
717 1 7.41226 7.43087 2.81343
718 1 0.697743 7.66815 9.06011
719 1 5.9636 3.62344 8.85051
720 1 5.44153 4.26289 4.45695
721 1 6.74534 7.30594 6.39399
722 1 3.74731 4.32537 6.77934
723 1 5.80209 8.93699 4.08259
724 1 6.89825 4.71192 1.47928
725 1 6.35038 8.46731 5.31116
726 1 8.64243 5.21636 8.07661
727 1 2.3078 1.32382 4.39479
728 1 1.22214 6.71314 9.12844
729 1 5.84352 3.39606 5.52005
730 1 4.58151 1.35288 2.55366
731 1 5.8583 8.83176 0.394757
732 1 4.92396 1.61823 0.968788
733 1 8.4388 2.40017 3.99699
734 1 2.2766 5.02479 7.961
735 1 7.56078 6.30508 3.74173
736 1 3.56444 5.25346 6.9537
737 1 9.37913 5.2015 3.44588
738 1 6.80466 7.47637 1.50309
739 1 4.9141 4.57699 5.10787
740 1 7.99522 2.22889 6.40483
741 1 5.84103 7.56403 6.12602
742 1 4.20806 2.92826 1.5916
743 1 9.13311 3.23807 3.73644
744 1 3.94381 1.13199 1.3645
745 1 7.42744 3.13981 8.19671
746 1 8.44364 6.31441 6.79293
747 1 7.06149 5.53266 1.87362
748 1 2.00224 7.66194 1.81224
749 1 4.82974 0.388393 0.971868
750 1 7.49422 3.75197 0.811747
751 1 3.64676 7.50043 8.51247
752 1 8.21158 6.49593 5.55601
753 1 8.90299 4.34754 7.37201
754 1 4.76461 2.24885 8.3095
755 1 5.62668 3.70634 7.39645
756 1 7.22357 5.49893 3.29667
757 1 4.49039 5.54491 4.60625
758 1 8.21919 4.27319 5.70019
759 1 7.34261 6.66809 2.12896
760 1 5.27254 9.17842 6.02346
761 1 3.01458 4.52533 9.35429
762 1 0.619908 5.96743 7.42336
763 1 5.64874 8.26249 4.76003
764 1 0.666895 2.88166 3.8205
765 1 2.68416 7.49678 7.22816
766 1 0.626592 4.50696 3.06827
767 1 8.51486 4.66373 1.10804
768 1 6.91789 5.57185 8.83086
769 1 2.67719 0.989818 5.22102
770 1 8.19334 -0.00193369 5.26784
771 1 3.45405 6.40329 8.92995
772 1 4.53562 0.017665 2.08131
773 1 0.866473 3.26481 9.22045
774 1 3.0272 9.08224 3.57483
775 1 6.67954 3.58812 1.29363
776 1 3.6316 3.01 6.42709
777 1 3.3626 6.4549 1.37953
778 1 3.99915 0.800162 7.71811
779 1 7.93051 0.465784 0.22309
780 1 1.99275 5.46814 0.893693
781 1 3.11243 4.76109 8.5346
782 1 1.58298 7.02595 8.3859
783 1 6.45407 4.89552 2.28034
784 1 1.75648 8.07241 5.68263
785 1 6.4288 4.75254 5.93582
786 1 6.24328 7.13261 4.60699
787 1 8.72778 8.57903 1.14209
788 1 1.22822 1.39346 0.405906
789 1 0.566677 7.18466 4.79808
790 1 1.42303 3.93465 1.48051
791 1 4.51325 1.91346 0.117678
792 1 0.404434 7.84543 2.71311
793 1 6.93142 8.2694 2.14033
794 1 9.06724 8.90568 6.56059
795 1 0.862996 1.63465 8.34369
796 1 9.06534 5.64007 0.179924
797 1 2.17348 2.39877 8.48561
798 1 8.8035 7.23587 0.400932
799 1 5.17992 0.939267 4.35553
800 1 2.74652 9.35934 5.17257
801 2 3.2067 9.03967 6.37393
802 2 7.71908 7.91433 1.80057
803 2 0.774048 3.85272 2.47733
804 2 4.12426 3.26679 0.648419
805 2 2.0456 5.24725 1.6591
806 2 1.48181 6.02646 1.42378
807 2 0.699548 6.72208 3.70238
808 2 6.3998 3.98257 8.10375
809 2 5.83 4.40068 0.253215
810 2 1.49004 9.37332 1.53395
811 2 1.95666 7.26198 2.68671
812 2 4.05953 7.75845 7.18621
813 2 2.36932 8.74279 1.12295
814 2 8.43768 0.843819 8.60243
815 2 5.18843 1.40265 7.10302
816 2 8.00479 8.59216 7.72995
817 2 7.7446 6.42612 4.79365
818 2 9.38724 2.88715 8.73877
819 2 2.42738 7.21987 3.84764
820 2 3.25106 3.5091 0.0466988
821 2 4.46499 5.85814 8.74974
822 2 6.9199 8.02942 8.62168
823 2 3.95377 5.18619 8.29626
824 2 8.40792 9.15776 2.524
825 2 6.91209 2.34912 8.24472
826 2 6.09932 5.12254 1.11783
827 2 3.35752 3.69941 5.94846
828 2 4.42157 2.68465 2.60929
829 2 3.67702 1.00898 2.29625
830 2 3.67247 3.9664 8.66702
831 2 6.93317 1.61573 8.97326
832 2 8.86551 4.86581 9.00476
833 2 7.58284 0.189491 4.47701
834 2 0.363221 4.70473 6.89712
835 2 4.13548 0.428602 2.71456
836 2 1.82109 1.58494 5.53449
837 2 8.78515 8.07711 2.2624
838 2 0.0322843 6.27608 4.59651
839 2 8.20987 3.92229 3.50699
840 2 5.49062 7.73753 2.7943
841 2 3.86714 4.22451 5.07134
842 2 4.48527 9.0881 7.62541
843 2 1.19289 7.98986 1.34092
844 2 6.13939 9.37322 5.04541
845 2 7.44206 8.12599 9.38089
846 2 3.01338 3.47524 7.19471
847 2 8.86354 0.455063 0.195476
848 2 7.0709 0.52091 1.19137
849 2 0.139404 6.19468 0.870762
850 2 3.89523 8.69606 6.95678
851 2 8.40501 4.93592 4.98342
852 2 7.78102 2.12282 1.50767
853 2 2.00344 4.87724 0.186003
854 2 7.90717 7.83761 6.37872
855 2 3.7373 2.81201 7.37183
856 2 3.98535 8.37786 5.01616
857 2 2.2552 3.52479 1.31368
858 2 5.03378 5.18068 8.38175
859 2 7.2509 9.02845 5.28151
860 2 3.49685 0.622793 3.38251
861 2 5.74618 6.143 5.28654
862 2 6.5844 8.78287 4.50343
863 2 6.38227 8.78002 1.3568
864 2 1.75873 2.37964 1.56498
865 2 0.64042 6.57576 5.70096
866 2 1.02347 0.811154 8.52487
867 2 7.7374 2.73521 9.06563
868 2 1.87213 3.50048 5.13749
869 2 3.37655 0.726204 5.9828
870 2 1.16278 6.24714 8.24925
871 2 2.41828 2.7398 7.43448
872 2 5.21301 4.76306 6.81894
873 2 5.04572 2.52056 3.29968
874 2 4.07122 0.0373032 9.37346
875 2 5.35282 0.867298 2.38129
876 2 1.56704 3.02982 4.19957
877 2 0.564002 6.92021 8.30645
878 2 4.48731 7.99422 6.35169
879 2 4.14365 3.13897 3.682
880 2 0.0303088 8.68358 3.76598
881 2 6.65999 9.02163 6.18237
882 2 3.17142 8.87121 8.62431
883 2 3.9879 8.88543 2.52945
884 2 5.76621 8.01187 1.14817
885 2 7.38513 3.24107 2.56201
886 2 4.65141 8.88949 5.40118
887 2 1.18271 4.45899 3.82435
888 2 5.24479 5.29621 5.42658
889 2 5.12384 7.35741 4.28764
890 2 4.56247 4.44442 8.52842
891 2 6.24777 5.82074 3.57455
892 2 9.1683 4.52568 5.51229
893 2 1.94551 9.07683 3.51855
894 2 5.9521 9.00676 6.82553
895 2 5.96153 4.94479 5.12597
896 2 5.507 8.15175 5.58998
897 2 3.1045 8.99647 0.250314
898 2 4.76516 7.97058 3.61674
899 2 2.4328 1.29706 3.50985
900 2 8.06359 4.47629 6.81375
901 2 7.46345 7.55806 3.84743
902 2 7.27762 2.95247 6.52893
903 2 6.41569 1.83223 4.34626
904 2 6.47368 6.14846 0.0881632
905 2 9.15581 0.348713 7.09629
906 2 1.96016 3.86017 0.175341
907 2 4.09514 6.01394 6.41127
908 2 9.04772 4.47271 2.87096
909 2 1.43278 0.595083 0.0366635
910 2 6.49578 6.54191 2.2649
911 2 4.27246 0.366172 8.45963
912 2 7.66522 8.62784 1.10707
913 2 4.97751 0.83732 3.22117
914 2 7.02716 9.1387 3.82535
915 2 3.07682 0.891394 7.61582
916 2 5.00679 0.526344 7.61655
917 2 4.18716 3.53905 7.00959
918 2 1.74007 4.15009 7.7195
919 2 2.64146 6.11034 0.849396
920 2 9.03741 7.20192 4.49884
921 2 8.17883 3.36216 6.72374
922 2 8.05684 4.48226 4.23724
923 2 4.24467 5.11033 6.29778
924 2 9.15079 1.44077 2.26933
925 2 5.86264 9.38552 2.0086
926 2 7.81272 1.03589 6.42359
927 2 2.82587 3.95435 0.705732
928 2 7.6866 5.24598 8.49467
929 2 0.403319 2.50484 2.04906
930 2 8.94053 0.784438 6.44637
931 2 1.70579 4.27196 8.55274
932 2 0.973067 3.5333 4.63491
933 2 7.11482 3.29224 5.25023
934 2 4.4298 2.46561 0.836267
935 2 0.18219 3.09747 0.483209
936 2 8.12924 2.51124 0.755919
937 2 3.43876 8.2018 7.8068
938 2 2.97226 6.98805 6.42746
939 2 7.33795 0.332428 5.90441
940 2 8.71244 2.84568 2.42514
941 2 1.58239 8.20246 2.77493
942 2 5.48417 6.3274 6.70134
943 2 6.13143 1.86017 6.41032
944 2 3.58056 0.614865 4.80398
945 2 8.26496 8.14748 3.83224
946 2 5.116 7.32566 1.97037
947 2 0.781276 2.51601 4.62351
948 2 8.762 2.79661 0.183783
949 2 7.55578 7.06385 1.03454
950 2 4.62492 5.05934 1.48521
951 2 0.377987 4.57334 1.25178
952 2 2.50519 8.04573 0.00149658
953 2 5.35272 2.15634 0.257469
954 2 1.18983 2.06816 3.80731
955 2 1.45097 6.64063 5.18123
956 2 6.43314 4.97998 7.91693
957 2 6.44647 5.72816 5.53573
958 2 5.20245 6.53974 4.65714
959 2 3.42866 4.62072 5.79497
960 2 7.08654 2.15926 0.285786
961 2 4.83111 5.91372 0.419224
962 2 3.97335 7.38237 5.38342
963 2 5.73731 2.85349 4.27396
964 2 7.14477 8.88348 8.39721
965 2 4.43308 2.74801 6.46043
966 2 7.21061 3.93813 4.52166
967 2 0.08569 2.23264 7.20746
968 2 7.03414 3.78789 6.12742
969 2 9.02133 7.2582 8.85429
970 2 0.68153 8.70992 4.53879
971 2 5.0932 8.95179 3.50603
972 2 0.911809 8.84889 6.27547
973 2 2.57955 7.07579 9.1626
974 2 7.32101 8.36595 3.37451
975 2 4.97005 8.31363 0.31646
976 2 2.94454 7.5009 3.19137
977 2 4.69004 6.65276 7.06881
978 2 1.52486 0.109762 8.09033
979 2 8.94225 4.28817 4.75666
980 2 1.80151 5.96048 7.6419
981 2 8.34246 9.07808 7.02037
982 2 8.53865 2.38762 7.36646
983 2 4.30759 9.06378 0.775323
984 2 4.91608 7.5066 7.27278
985 2 6.48915 2.45886 4.93676
986 2 1.15507 6.50502 6.43029
987 2 3.26595 1.52438 3.28273
988 2 2.80867 4.30458 7.67524
989 2 7.42391 0.188554 6.77982
990 2 0.663525 0.689375 4.60281
991 2 5.01397 3.73556 5.44216
992 2 4.85763 5.66639 6.73326
993 2 5.58704 3.00283 6.80399
994 2 3.82045 5.52345 3.1369
995 2 5.89402 1.91207 1.03588
996 2 1.01071 6.43047 0.548895
997 2 6.82296 0.372345 0.0507564