#bin. KALJ data file T=0.5

1000 atoms
2 atom types

0 9.4 xlo xhi
0 9.4 ylo yhi
0 9.4 zlo zhi

Masses

1 1.0
2 1.0

Atoms

1 1 0.662555 8.20693 4.69412
2 1 0.89499 9.31276 2.73967
3 1 5.40034 6.77854 8.10769
4 1 5.61195 3.93646 4.19216
5 1 6.50921 4.95323 9.19677
6 1 7.94549 4.32547 7.74563
7 1 1.5097 2.34977 9.35295
8 1 8.1617 3.08274 3.98183
9 1 3.9819 4.94876 6.66137
10 1 2.95342 4.42684 5.42304
11 1 3.88593 0.647289 6.31776
12 1 2.39122 7.00522 4.64111
13 1 6.90112 1.63949 2.40453
14 1 1.76755 2.66334 5.35342
15 1 5.72269 7.47247 4.71892
16 1 4.21293 8.1514 3.61918
17 1 8.03593 1.69455 8.23828
18 1 8.45282 8.57826 7.24187
19 1 5.97349 1.65432 1.16098
20 1 1.71549 7.15545 3.48338
21 1 8.01979 2.79991 1.14163
22 1 1.90867 6.4646 1.52582
23 1 1.24078 8.90871 6.01223
24 1 6.50984 1.44119 4.14801
25 1 4.90767 4.73257 7.83006
26 1 1.18224 2.3507 2.53713
27 1 5.02273 4.66548 0.175441
28 1 7.42172 5.3338 5.27811
29 1 4.91639 4.41506 2.52971
30 1 4.81155 4.42321 1.50258
31 1 3.4246 3.42288 1.20418
32 1 3.08795 5.33463 5.14722
33 1 0.853867 5.618 4.25869
34 1 4.98594 3.97055 3.53681
35 1 5.61136 6.34279 4.72649
36 1 2.83039 6.76726 1.60525
37 1 8.89539 5.65623 2.56672
38 1 9.03539 9.16591 3.80389
39 1 5.00781 9.27438 7.66564
40 1 4.33851 0.977685 1.33272
41 1 7.11517 2.57857 4.86077
42 1 5.02895 6.73671 3.58718
43 1 0.580092 2.337 8.87595
44 1 3.14853 3.24701 6.43622
45 1 7.26918 8.47854 1.87586
46 1 5.84495 5.593 4.20325
47 1 4.06795 8.82639 5.35169
48 1 1.00386 9.17298 4.18015
49 1 4.03864 3.20904 3.64428
50 1 0.504108 8.28438 5.9096
51 1 7.54837 8.34406 6.4989
52 1 6.69267 4.8883 7.32073
53 1 1.60272 5.80839 3.74146
54 1 1.39919 0.190996 9.17736
55 1 6.23404 3.61044 1.53161
56 1 3.41607 1.95488 5.35576
57 1 1.92825 1.77277 2.75335
58 1 8.8376 2.47088 6.18004
59 1 2.71351 4.85716 0.306608
60 1 8.31515 7.54156 4.30212
61 1 5.41113 2.28574 8.53581
62 1 7.01149 4.13903 1.48257
63 1 6.89214 1.52798 0.241476
64 1 4.201 2.27883 2.80553
65 1 1.7708 1.38756 7.82498
66 1 9.04923 3.40962 3.67382
67 1 3.39105 0.413409 3.01708
68 1 1.23734 4.57479 2.83697
69 1 6.99918 6.38785 3.85832
70 1 3.20394 3.89573 4.77159
71 1 3.72107 1.79089 1.84972
72 1 3.47704 7.92588 5.79145
73 1 5.91062 9.10475 6.24389
74 1 7.13943 4.57599 0.264298
75 1 3.02273 6.19239 2.45763
76 1 2.99926 5.61892 7.71491
77 1 2.55382 1.54171 1.28964
78 1 0.040109 4.05335 5.90508
79 1 1.0176 3.44754 6.02149
80 1 7.64931 9.3218 2.45291
81 1 0.626312 6.07021 2.72703
82 1 3.4262 6.95569 8.80945
83 1 9.32438 4.93459 6.89261
84 1 6.46168 5.49522 5.40133
85 1 7.13278 2.20517 7.88374
86 1 0.0624152 7.81023 5.29331
87 1 2.40314 2.26213 0.0413473
88 1 4.96196 0.202631 1.55682
89 1 3.42015 8.27269 2.99679
90 1 3.46756 1.09417 1.00274
91 1 7.69436 7.476 1.73589
92 1 9.12138 4.95949 7.71591
93 1 2.43099 1.19152 0.392318
94 1 1.79531 5.1633 7.55339
95 1 8.03402 5.21762 6.06861
96 1 1.06135 6.67165 8.86722
97 1 2.50852 5.65026 5.9236
98 1 6.30298 8.62468 0.799637
99 1 8.96507 2.91655 0.840663
100 1 5.04049 9.0192 6.62456
101 1 0.943112 7.5145 5.71082
102 1 8.90733 8.45389 3.11098
103 1 2.02247 7.94628 6.32849
104 1 2.86136 1.20595 5.15007
105 1 2.65841 8.94269 6.95677
106 1 2.5074 5.03698 1.45157
107 1 2.99632 2.70508 4.97095
108 1 3.10192 6.22127 3.57442
109 1 9.17762 2.84728 8.52242
110 1 6.93833 4.66619 4.91321
111 1 2.58901 1.26826 8.32098
112 1 2.73701 1.4687 7.39332
113 1 3.06335 2.58095 8.86075
114 1 0.0639352 7.98383 0.146238
115 1 3.91622 2.60712 5.87062
116 1 8.4058 7.25582 7.86464
117 1 4.03478 6.13991 8.96815
118 1 9.04754 6.51373 9.27672
119 1 1.9387 6.02835 7.71797
120 1 8.66429 7.31134 0.967162
121 1 7.90241 2.95646 5.69585
122 1 7.99594 4.87844 9.31997
123 1 3.89525 0.806188 7.36624
124 1 8.20669 0.270001 1.80158
125 1 3.96434 2.79145 1.01317
126 1 5.42002 3.83233 7.09157
127 1 6.48308 7.95566 4.22809
128 1 8.59349 4.31064 3.60382
129 1 8.2428 0.92657 6.40432
130 1 5.70312 5.47852 0.125794
131 1 3.75645 2.2226 0.217131
132 1 6.99643 3.65113 2.71442
133 1 4.78401 4.74469 6.83856
134 1 0.777687 7.14927 1.15328
135 1 3.95993 8.90998 1.6548
136 1 1.39351 8.2851 5.28003
137 1 3.12501 9.13001 1.35465
138 1 5.34092 6.36937 6.5201
139 1 7.09999 0.586945 7.23015
140 1 7.5979 6.64221 2.00982
141 1 6.65357 0.349633 8.03538
142 1 1.49626 1.14817 5.00857
143 1 4.1146 7.09171 3.70115
144 1 0.568644 6.81432 7.94388
145 1 4.1731 3.61113 5.5138
146 1 0.101588 3.14972 5.69198
147 1 1.19531 5.99785 7.21788
148 1 6.52088 3.58295 4.69759
149 1 6.98928 0.654674 2.57507
150 1 8.81095 0.628975 3.54243
151 1 9.03258 6.15271 5.5948
152 1 0.128201 7.70198 7.58538
153 1 8.00622 9.21824 0.633581
154 1 3.07984 5.28013 2.35931
155 1 9.07121 6.06789 3.54018
156 1 3.32747 0.755806 4.63376
157 1 0.0928356 1.63157 6.75616
158 1 1.27073 5.48679 2.76178
159 1 5.61939 4.16788 1.01109
160 1 0.250259 4.92444 0.64562
161 1 3.54057 8.5465 9.16574
162 1 1.15884 7.66807 7.51488
163 1 1.80707 1.98079 4.76538
164 1 8.75543 2.24441 7.94216
165 1 2.31003 4.62723 2.50348
166 1 0.443291 8.58298 3.53002
167 1 7.06843 3.11056 1.20597
168 1 5.5133 5.54311 5.98214
169 1 3.13637 0.492805 7.8985
170 1 5.29468 8.3687 3.49596
171 1 6.49247 0.264862 0.602725
172 1 7.93161 0.441757 4.82426
173 1 5.89433 0.675443 5.06869
174 1 6.37863 5.56552 8.57093
175 1 0.666366 0.56098 8.25314
176 1 4.20001 6.11759 0.645
177 1 4.15485 8.5443 7.07129
178 1 8.39925 6.01408 1.69054
179 1 0.712367 8.47709 7.77569
180 1 7.68243 3.78882 5.83131
181 1 6.65144 4.01591 9.07352
182 1 6.15471 2.95603 5.49001
183 1 6.69899 1.65998 5.27026
184 1 3.88562 1.59797 9.04582
185 1 3.3526 8.23778 7.48272
186 1 6.4642 6.74114 7.51586
187 1 7.25522 0.614385 0.374976
188 1 3.11039 7.37963 4.97886
189 1 4.81434 3.41634 1.31875
190 1 8.75423 5.84033 0.651266
191 1 4.81151 7.73262 0.513207
192 1 0.439385 9.06394 8.36451
193 1 6.70548 5.34345 1.70429
194 1 2.4047 0.3696 4.40485
195 1 0.249586 5.82123 0.395281
196 1 2.04624 7.26372 2.68006
197 1 8.63748 2.16529 1.54549
198 1 4.38977 5.10191 1.18927
199 1 8.30638 6.90881 7.04801
200 1 5.11993 6.94219 1.20264
201 1 4.74679 2.81097 2.26458
202 1 5.65773 8.67867 7.22191
203 1 3.61304 5.54397 3.10692
204 1 0.220848 7.18348 9.09333
205 1 1.02826 7.99816 6.59106
206 1 0.259288 5.27374 2.30238
207 1 8.26857 6.56713 2.53049
208 1 2.1393 8.95905 7.7071
209 1 5.06823 3.745 0.392796
210 1 5.27174 2.86202 6.62658
211 1 1.21973 3.18379 9.19827
212 1 1.50022 6.76979 7.82392
213 1 7.8881 4.47678 4.21412
214 1 5.91853 3.01734 9.27209
215 1 1.68004 3.79818 4.63761
216 1 6.35674 6.66113 2.98152
217 1 2.89817 4.40995 8.92397
218 1 9.16604 8.61437 7.67173
219 1 2.26356 3.26584 8.86373
220 1 4.28574 0.451902 8.17789
221 1 2.25234 4.49396 3.52401
222 1 0.820375 3.40259 7.09977
223 1 0.259614 0.17228 7.41053
224 1 2.73282 6.72341 0.28594
225 1 7.10809 4.38852 3.61857
226 1 5.21748 7.75742 8.9428
227 1 7.8559 2.06043 5.49669
228 1 5.92782 7.66815 8.45375
229 1 2.90299 1.77691 9.00061
230 1 7.36463 8.14329 4.12797
231 1 9.0846 0.885055 6.12538
232 1 2.4808 5.73083 6.84555
233 1 0.836586 4.19247 8.84884
234 1 7.93359 8.77748 1.47923
235 1 5.82625 7.72222 7.45547
236 1 2.64566 6.54543 7.2591
237 1 8.55992 3.83056 4.4639
238 1 9.1416 8.0492 4.1658
239 1 7.92933 4.09752 6.76791
240 1 4.43038 3.96391 7.51338
241 1 6.15909 3.34753 7.32939
242 1 9.00471 4.33255 2.23433
243 1 5.74617 1.4755 5.46854
244 1 6.11287 4.72946 4.66245
245 1 5.15726 5.737 2.00212
246 1 1.79967 1.4581 9.04518
247 1 7.50447 1.07997 1.86445
248 1 8.59623 1.91733 2.53317
249 1 8.3046 0.563195 2.6913
250 1 0.544962 6.12343 1.194
251 1 0.969063 7.78478 3.78065
252 1 3.95593 9.38719 3.51566
253 1 7.64332 5.35701 8.39328
254 1 1.61869 5.43039 4.91269
255 1 5.66617 7.44865 3.74005
256 1 0.236143 4.91017 6.02037
257 1 2.19503 9.1713 6.08826
258 1 8.09513 8.37233 8.89853
259 1 1.98541 2.05937 1.86423
260 1 1.52155 7.48423 4.85386
261 1 3.98079 4.75572 7.80628
262 1 0.174189 6.75192 0.654361
263 1 4.01882 7.41887 6.3505
264 1 0.417244 0.0439861 6.03872
265 1 8.20507 5.86933 9.12383
266 1 4.40183 8.10675 7.77635
267 1 7.19534 6.08752 5.80311
268 1 3.48774 9.26023 7.2966
269 1 5.92858 4.5986 8.03058
270 1 3.49917 5.0088 9.14103
271 1 7.96969 6.72806 1.1256
272 1 4.18776 2.43685 6.71691
273 1 1.40537 2.58366 0.891212
274 1 0.809019 8.96742 6.82439
275 1 2.84282 7.30191 6.99559
276 1 4.64788 9.04528 0.329399
277 1 2.18255 7.3807 1.73085
278 1 6.53841 6.13532 1.37225
279 1 7.80783 2.55197 1.95276
280 1 0.911573 1.31964 0.103736
281 1 7.13829 1.76876 8.71697
282 1 7.78142 1.25434 2.65561
283 1 3.19824 7.66992 9.32188
284 1 4.49152 6.6873 6.33157
285 1 7.79705 2.73347 8.59646
286 1 9.0129 1.90242 0.201844
287 1 2.77338 3.65797 8.16382
288 1 4.19861 0.775764 0.134799
289 1 8.82113 5.07012 5.56259
290 1 7.50947 2.42767 6.66224
291 1 9.33604 1.22854 5.03744
292 1 6.20441 9.38789 4.43334
293 1 7.67396 3.12086 7.38177
294 1 3.44423 5.53115 1.64264
295 1 4.69648 1.69757 4.27375
296 1 3.3222 4.11787 7.55794
297 1 1.64454 1.15508 1.47752
298 1 6.00319 7.17422 1.50471
299 1 6.08191 5.54401 7.57939
300 1 3.60227 1.39279 8.0329
301 1 2.65927 5.40598 8.56713
302 1 5.98883 2.50356 1.76848
303 1 6.29781 2.5745 0.82321
304 1 5.30247 5.24256 8.58919
305 1 1.66806 8.52953 6.7891
306 1 1.41501 1.26401 5.97339
307 1 0.73284 2.19846 3.30998
308 1 7.11878 8.21082 9.16121
309 1 4.04541 5.80974 2.29219
310 1 4.17638 5.87106 6.63616
311 1 5.83328 6.39378 0.693906
312 1 7.36377 1.04128 5.51033
313 1 8.29493 9.00838 3.1969
314 1 5.63304 8.63187 4.40862
315 1 5.53438 5.2496 2.83639
316 1 7.99118 1.24592 3.66293
317 1 8.77741 8.83271 0.330665
318 1 3.10808 1.26773 6.15924
319 1 8.36602 2.92693 6.91463
320 1 3.88847 5.39925 8.45425
321 1 3.0264 2.0237 4.4852
322 1 7.19817 9.32871 1.66764
323 1 5.84749 3.68902 6.23772
324 1 5.63395 6.38752 1.62461
325 1 3.06775 2.85129 0.347989
326 1 8.93302 5.89458 8.12443
327 1 7.79935 5.56871 0.632033
328 1 0.35432 8.0988 8.53459
329 1 8.7909 2.74278 2.10973
330 1 3.17232 8.80744 3.63933
331 1 6.36374 6.91675 5.14117
332 1 3.0229 4.6279 3.21652
333 1 2.02104 4.23865 7.36329
334 1 5.44891 8.40722 0.518852
335 1 2.27356 2.67821 2.58454
336 1 7.07413 7.3084 5.99033
337 1 8.5453 3.98808 5.40623
338 1 2.74967 7.43773 0.875845
339 1 2.26497 0.880635 6.55516
340 1 6.69776 2.45272 2.86365
341 1 3.71928 7.80714 8.53999
342 1 8.76375 4.5893 6.29636
343 1 8.00578 6.06678 5.4373
344 1 5.15537 0.00786229 4.47321
345 1 0.261549 6.27351 6.70741
346 1 0.463845 4.32928 3.22871
347 1 0.281435 5.07722 5.08992
348 1 5.82037 0.795943 4.00859
349 1 2.1149 3.30206 5.80416
350 1 0.864871 1.8606 5.01676
351 1 2.36534 8.0608 4.93921
352 1 8.59436 5.06291 8.38255
353 1 0.280966 7.32984 2.383
354 1 0.832119 3.97619 4.12507
355 1 7.57209 3.79514 4.91553
356 1 2.22375 7.97828 7.24977
357 1 1.27343 4.89653 3.78617
358 1 7.33876 5.86601 1.37812
359 1 0.684404 6.83547 4.28063
360 1 9.18457 0.19529 8.82109
361 1 6.55265 3.888 5.61399
362 1 2.02064 6.40469 8.75633
363 1 7.89564 7.99879 5.55919
364 1 3.68935 3.40531 8.12751
365 1 2.00044 2.30553 3.72163
366 1 4.28605 1.75602 0.890696
367 1 2.77378 4.02472 6.60508
368 1 4.24412 4.27728 0.747899
369 1 3.65021 8.80189 4.39883
370 1 0.35451 4.70228 3.97287
371 1 4.80876 2.97265 5.74708
372 1 4.76368 2.13466 7.45147
373 1 5.59089 0.287616 6.92861
374 1 6.9241 2.47331 5.93364
375 1 6.18145 1.57705 8.7112
376 1 5.76025 2.99997 3.50713
377 1 2.11864 8.11732 8.86935
378 1 7.77409 8.89044 4.6992
379 1 0.80237 4.22257 5.45322
380 1 7.77735 8.38388 0.524516
381 1 2.80367 4.71675 7.95353
382 1 6.39623 6.26895 9.29491
383 1 9.09395 5.67427 9.026
384 1 5.14659 4.57279 5.80028
385 1 2.91153 2.87701 7.49691
386 1 1.26742 4.63867 7.08308
387 1 6.96214 7.86908 5.27944
388 1 7.1465 8.05425 0.96072
389 1 6.48568 8.88207 5.08333
390 1 5.56103 7.41437 5.66935
391 1 2.51084 0.479345 9.29384
392 1 8.97112 4.70804 0.0188792
393 1 9.08093 0.979565 2.60392
394 1 7.23386 3.23723 4.21252
395 1 8.67078 9.01895 4.61756
396 1 0.0512077 3.13656 6.6507
397 1 5.71686 6.43473 7.31228
398 1 0.559464 0.49243 9.11527
399 1 8.37282 2.20953 0.637577
400 1 6.83744 6.55774 6.73362
401 1 1.22823 0.383586 6.12258
402 1 7.48964 7.24588 7.97703
403 1 1.47873 0.813151 8.52852
404 1 1.85565 7.1092 6.97082
405 1 5.59995 5.47845 5.09625
406 1 6.40972 2.48343 8.43659
407 1 3.28032 8.93677 6.15934
408 1 8.63907 8.09605 5.02034
409 1 1.73091 0.191527 3.75774
410 1 6.25255 0.928626 7.34982
411 1 6.15605 8.1929 5.63649
412 1 4.72959 7.54901 1.61101
413 1 8.20496 2.94863 2.93617
414 1 6.06913 1.09004 0.273473
415 1 6.76307 0.795358 4.74836
416 1 3.26823 0.0602897 2.21914
417 1 2.68754 8.791 8.8743
418 1 5.31408 4.26692 8.79562
419 1 3.08775 1.7847 0.604667
420 1 1.75456 5.51229 1.22711
421 1 4.45168 6.13056 1.4984
422 1 5.67264 0.816718 1.30442
423 1 0.684046 0.675093 5.47313
424 1 4.47355 2.2229 1.68479
425 1 6.26447 8.9362 9.38732
426 1 2.95441 8.53595 0.578807
427 1 2.35919 0.261011 2.10646
428 1 3.62106 6.69991 2.97058
429 1 3.78799 6.3381 7.28681
430 1 7.17736 2.36216 0.641836
431 1 1.23027 4.92211 5.99114
432 1 4.53699 7.99628 5.84806
433 1 -0.00700382 5.46923 4.24911
434 1 0.134268 3.2045 4.55326
435 1 0.622801 4.25893 6.51839
436 1 1.5286 7.9777 1.25815
437 1 9.24119 1.17746 8.01642
438 1 0.34984 6.09056 8.63205
439 1 0.403515 4.12851 7.7698
440 1 5.21964 5.55468 7.22213
441 1 2.56843 7.22546 8.80033
442 1 3.87777 4.83636 5.43165
443 1 7.43908 8.85088 7.37922
444 1 0.36543 6.0524 4.98863
445 1 1.23629 5.91239 1.84577
446 1 7.74251 1.00887 8.60656
447 1 3.26911 6.27071 5.37445
448 1 8.63334 5.91843 7.13428
449 1 1.25238 0.864584 2.97895
450 1 6.98406 7.04615 1.35359
451 1 7.62087 4.19769 2.60496
452 1 5.68671 9.15933 1.0721
453 1 4.97236 1.11375 0.651069
454 1 0.917235 7.48682 0.181212
455 1 7.6452 4.45548 8.52539
456 1 7.74058 3.78677 3.49173
457 1 3.05773 7.4351 2.53575
458 1 8.53904 7.08303 1.75899
459 1 3.70896 0.964802 2.1733
460 1 5.59257 0.550179 5.9727
461 1 0.500404 0.276758 0.542259
462 1 0.892616 4.97484 7.91598
463 1 0.201769 6.76658 3.40389
464 1 7.61531 1.34335 4.51381
465 1 6.68928 2.55042 4.07646
466 1 4.70057 1.64615 2.41564
467 1 1.26681 6.0199 8.22463
468 1 4.22329 6.88872 8.3205
469 1 8.92063 0.848798 6.96657
470 1 3.97972 7.95215 2.10409
471 1 6.83742 3.24286 9.33653
472 1 9.14306 1.85327 3.5162
473 1 3.51973 1.73692 2.86782
474 1 6.72473 7.26918 8.87887
475 1 0.0227854 3.57644 2.3542
476 1 7.66263 7.77168 3.43058
477 1 8.82815 0.292173 0.542166
478 1 7.62672 2.18583 2.73004
479 1 0.0489484 3.78533 8.92007
480 1 5.35354 1.29558 6.5414
481 1 8.51235 3.87793 9.01535
482 1 5.43889 8.61064 9.08975
483 1 7.75881 5.91348 6.57112
484 1 2.78619 6.38333 8.11016
485 1 1.83377 7.26016 0.827784
486 1 0.950271 7.197 2.97753
487 1 7.41982 8.83926 3.55116
488 1 7.19956 9.06997 0.154762
489 1 2.76264 3.77852 3.98577
490 1 1.44269 0.928746 6.98344
491 1 9.39607 4.19271 4.78337
492 1 7.84479 7.83862 7.2967
493 1 2.32893 0.231469 0.846498
494 1 0.215469 1.92856 7.72176
495 1 8.3814 0.446209 8.39854
496 1 2.15987 3.78792 2.74048
497 1 1.8894 3.04831 1.88456
498 1 3.01501 0.396934 6.11089
499 1 6.59464 6.56282 2.13079
500 1 6.33445 4.32514 6.70463
501 1 0.742108 3.06949 2.3111
502 1 1.13945 3.68679 1.65967
503 1 3.83739 1.86055 7.30554
504 1 1.59288 8.4455 4.33612
505 1 4.65465 8.39977 1.25917
506 1 7.69752 0.114237 5.69271
507 1 6.76894 3.06134 2.05456
508 1 5.60479 3.11019 0.918881
509 1 6.08871 4.21796 3.44978
510 1 0.051989 4.58079 8.65186
511 1 8.97551 8.15988 6.04022
512 1 6.37304 0.616396 6.39654
513 1 2.05517 4.54292 6.13876
514 1 1.97142 4.08236 5.36669
515 1 4.34732 7.50916 2.85145
516 1 5.61262 1.90689 7.11905
517 1 9.02612 1.75361 8.69624
518 1 4.33414 9.31176 8.98065
519 1 7.11643 5.51922 3.57867
520 1 0.49314 1.4893 6.00331
521 1 2.87024 7.00095 5.77928
522 1 3.17659 3.48049 2.9829
523 1 4.30771 0.741943 3.21375
524 1 4.15299 5.67431 3.89007
525 1 6.00207 4.06328 2.616
526 1 6.67986 2.25896 9.27075
527 1 8.12746 5.65685 3.41846
528 1 1.78341 5.27306 6.65831
529 1 3.57788 4.11922 6.22875
530 1 8.04352 0.698698 0.988498
531 1 8.07986 8.99527 8.269
532 1 0.347216 3.72505 1.42468
533 1 8.51989 6.80757 8.62072
534 1 6.80684 2.22121 1.67587
535 1 2.12796 3.19751 7.23443
536 1 8.34013 8.72978 6.38704
537 1 4.66362 8.71628 4.24949
538 1 8.48539 7.89215 0.277776
539 1 7.21679 5.4827 9.2343
540 1 0.16901 8.54926 1.71025
541 1 3.18492 4.20927 0.818728
542 1 4.66663 5.46031 9.22614
543 1 9.19957 6.69742 7.50494
544 1 2.24118 8.80198 3.58604
545 1 2.32543 8.25854 2.78991
546 1 8.58903 7.43488 3.24555
547 1 7.94721 3.71225 0.75895
548 1 3.79957 5.52805 4.78468
549 1 0.538381 5.50234 3.34512
550 1 1.82121 6.90725 0.0405689
551 1 0.639412 2.78521 1.39451
552 1 4.94722 9.37304 2.84838
553 1 8.15102 2.09804 3.40192
554 1 3.13607 8.69963 5.20191
555 1 1.15747 4.57343 4.72286
556 1 2.00577 3.65261 1.11462
557 1 1.02137 1.68513 6.7732
558 1 1.30995 3.62619 2.61232
559 1 1.44408 9.21889 8.32619
560 1 3.37255 7.97579 4.08272
561 1 2.94789 2.13114 8.08083
562 1 9.2472 0.229829 5.26318
563 1 7.23405 1.5122 6.24634
564 1 1.80751 3.63059 6.59574
565 1 1.8309 6.18698 0.537371
566 1 7.57639 4.8934 6.99916
567 1 2.13424 5.7811 2.12599
568 1 0.501657 0.775058 2.6376
569 1 5.80699 4.61934 1.83142
570 1 0.014924 6.87375 5.20104
571 1 9.19725 0.0239601 6.60296
572 1 9.27752 8.67813 5.37198
573 1 3.88502 1.7529 6.1655
574 1 6.65372 8.49133 6.54467
575 1 7.27116 9.28736 8.61967
576 1 7.95708 2.26667 7.5481
577 1 4.27841 7.53711 9.1286
578 1 3.21106 5.00195 6.17084
579 1 4.59171 6.29301 5.56906
580 1 3.7478 2.84559 1.93052
581 1 6.94466 3.64856 6.78556
582 1 2.58357 6.8584 3.20351
583 1 8.9482 5.62323 6.37402
584 1 4.83082 8.12241 6.73995
585 1 4.5439 3.75068 6.29374
586 1 2.23874 0.68854 3.08696
587 1 8.71298 6.77739 6.24189
588 1 5.55843 8.2479 1.49204
589 1 3.72963 4.1248 3.72835
590 1 7.45679 4.7832 1.02086
591 1 1.57771 5.89535 5.86752
592 1 1.4412 0.240011 4.88167
593 1 4.95895 6.58553 2.16446
594 1 0.776378 3.36504 8.32172
595 1 8.07627 5.51957 7.61657
596 1 2.83394 0.647685 1.3945
597 1 5.34343 2.41308 5.2335
598 1 0.202111 1.73421 2.43981
599 1 3.37845 5.67319 6.82247
600 1 6.67539 0.258513 5.65953
601 1 2.69591 4.85746 7.02958
602 1 5.07009 3.22204 9.12176
603 1 1.83 7.12084 5.77586
604 1 8.319 6.84353 0.244612
605 1 5.21515 0.376083 0.31224
606 1 4.42775 4.00612 9.2599
607 1 3.87491 7.98088 4.93439
608 1 1.4398 0.956752 4.15986
609 1 5.95078 1.96355 0.222171
610 1 2.22198 7.7919 0.265809
611 1 5.42284 2.45676 2.7053
612 1 5.93097 3.00555 4.40493
613 1 2.41159 5.25797 4.48131
614 1 8.90038 7.94897 2.03797
615 1 4.2255 3.69324 1.9366
616 1 8.77567 3.50156 6.28545
617 1 4.49961 6.24829 2.92708
618 1 1.84891 3.24694 0.344955
619 1 4.26227 3.83126 4.37783
620 1 3.97065 2.22055 3.71551
621 1 4.79019 2.13831 6.07009
622 1 6.87437 4.84908 8.2873
623 1 8.48919 0.210024 6.07175
624 1 3.56837 7.43051 1.42591
625 1 5.13942 7.24171 6.45405
626 1 5.30999 8.44862 5.9655
627 1 0.775878 8.97868 9.22429
628 1 6.93669 8.7836 2.75977
629 1 8.20059 1.8569 9.10916
630 1 3.68472 4.59398 4.55399
631 1 7.07794 3.24692 5.38541
632 1 3.00631 0.762012 6.98763
633 1 5.70736 2.60394 7.69774
634 1 7.36415 6.66567 7.31051
635 1 9.30515 2.0773 1.00114
636 1 6.81939 7.41021 2.45353
637 1 0.873477 3.22558 5.08441
638 1 8.209 8.25905 2.68786
639 1 6.21369 2.90111 6.51966
640 1 6.34571 9.32205 6.9955
641 1 6.73886 7.73228 3.36799
642 1 4.38354 0.0102789 6.84748
643 1 6.10654 0.127243 2.75772
644 1 1.83682 9.37047 6.94574
645 1 7.86611 1.81083 1.30928
646 1 2.17568 6.28366 5.26988
647 1 7.81807 6.29892 4.64519
648 1 9.3537 8.49963 6.80427
649 1 3.20761 1.01352 0.0261721
650 1 8.5211 1.83908 4.80171
651 1 9.0687 8.08782 1.05094
652 1 5.11296 1.78607 3.24239
653 1 7.99298 6.69572 3.67241
654 1 5.92957 5.36796 1.05122
655 1 8.53913 4.78363 7.13272
656 1 4.75864 2.67722 4.16216
657 1 3.94469 3.23613 0.255222
658 1 3.55087 6.5214 6.37766
659 1 8.69013 2.88661 0.0343121
660 1 8.77844 0.638553 4.48871
661 1 9.33327 6.341 1.85814
662 1 1.56717 0.0809868 1.53609
663 1 1.08029 5.56794 0.60842
664 1 2.89589 2.56612 5.83945
665 1 6.48346 8.45629 7.40158
666 1 3.79362 5.70583 5.81076
667 1 8.94343 8.7688 8.65242
668 1 9.40231 2.40878 5.11362
669 1 5.47184 1.6037 8.04155
670 1 8.24086 8.38677 4.01233
671 1 6.09613 8.29382 2.73726
672 1 2.11939 0.59846 7.47541
673 1 8.19554 4.27029 1.49051
674 1 2.75599 7.86544 7.99991
675 1 8.67478 3.55182 1.6087
676 1 2.20402 6.4509 6.29983
677 1 1.48192 8.5705 1.94505
678 1 1.32347 2.86114 3.29079
679 1 8.07892 0.880099 7.34192
680 1 7.48239 6.38176 0.329663
681 1 3.20768 5.96972 9.19557
682 1 0.621566 4.09737 0.332491
683 1 4.01803 1.23485 4.91648
684 1 8.0136 0.0814583 6.96226
685 1 9.08794 9.23276 1.2183
686 1 4.59238 5.28181 5.92485
687 1 1.74221 4.45368 1.53023
688 1 3.70858 3.11687 4.51973
689 1 4.08892 3.37636 2.7884
690 1 7.76788 2.20648 4.24418
691 1 5.06749 5.70998 3.63078
692 1 1.57398 2.82923 4.48706
693 1 5.58874 1.47365 4.60381
694 1 1.50621 0.603128 0.682229
695 1 5.89654 9.28733 7.81429
696 1 0.813728 1.30869 7.55542
697 1 5.58029 9.25847 3.66502
698 1 2.59481 5.85114 0.947367
699 1 2.31337 3.17343 3.5398
700 1 7.72938 6.77726 6.25228
701 1 6.31203 6.63588 8.44021
702 1 7.17436 6.94713 3.09384
703 1 6.92417 5.40721 6.39764
704 1 5.02677 0.87491 2.1105
705 1 6.63149 6.93209 0.510363
706 1 5.10574 5.71518 0.986365
707 1 4.77144 6.46329 7.24601
708 1 9.36224 1.30319 1.61013
709 1 0.595612 8.37197 0.979548
710 1 7.84431 3.57902 8.29015
711 1 3.8692 0.311324 5.51748
712 1 4.57211 1.42511 8.35076
713 1 2.36414 2.71689 1.00716
714 1 1.0408 6.69735 5.29829
715 1 7.15287 4.55227 6.13034
716 1 3.29768 3.52057 8.9073
717 1 1.63404 4.02689 0.207573
718 1 2.28751 1.75283 5.52255
719 1 2.99408 2.80059 4.1045
720 1 5.78762 3.9521 5.09331
721 1 3.00324 5.29996 3.77149
722 1 3.07863 3.43682 5.61974
723 1 4.71325 2.06368 9.30986
724 1 2.8336 0.180943 5.1617
725 1 7.18623 9.18346 6.4564
726 1 1.51699 4.9047 0.00942182
727 1 3.33285 8.71528 8.25544
728 1 1.08597 1.44658 2.33769
729 1 7.27112 6.14534 8.27577
730 1 9.11183 6.53249 2.66907
731 1 0.53848 4.36219 2.26302
732 1 1.76161 9.24841 2.79978
733 1 4.59416 3.12396 7.181
734 1 0.779535 2.65279 4.16734
735 1 3.33143 8.5691 2.17122
736 1 7.39443 6.82042 5.28638
737 1 4.48248 1.44569 6.78208
738 1 8.2049 7.97452 1.21645
739 1 8.92303 8.99392 2.15788
740 1 2.38267 3.30502 4.63647
741 1 1.41596 7.45139 8.59874
742 1 2.23149 6.48664 3.9451
743 1 4.45494 4.80959 3.96778
744 1 0.706434 9.38268 1.38142
745 1 7.5336 6.75696 8.9377
746 1 6.76248 2.71334 7.35058
747 1 3.36765 3.80803 2.16467
748 1 7.58979 3.82876 9.27498
749 1 3.11065 2.04856 6.86262
750 1 6.89924 1.42886 1.16123
751 1 3.50142 6.34687 1.0755
752 1 3.28598 0.329026 8.78173
753 1 3.17374 0.184701 0.519355
754 1 8.37683 5.19267 1.28784
755 1 2.56494 8.44138 5.78635
756 1 1.81971 5.0393 8.49107
757 1 0.68582 7.80681 1.76007
758 1 4.16935 0.143553 2.37441
759 1 0.178853 7.78245 3.25165
760 1 7.59275 0.429927 3.21547
761 1 3.59768 4.18758 0.035815
762 1 8.91808 1.7075 5.78662
763 1 4.77248 4.69314 4.87797
764 1 2.2558 7.10493 7.85634
765 1 8.76673 4.87072 4.65333
766 1 2.41934 7.62922 3.96592
767 1 0.625031 2.19813 0.440667
768 1 1.47988 4.11287 8.12433
769 1 5.26847 2.34135 1.16957
770 1 4.01012 2.66225 7.77212
771 1 2.6535 4.09075 1.67796
772 1 0.218033 7.31035 6.1543
773 1 8.32331 4.83573 2.51893
774 1 1.95183 4.77535 0.711441
775 1 6.17062 7.98891 9.41512
776 1 2.35317 8.659 1.94845
777 1 6.80494 6.25659 4.82065
778 1 0.406593 0.663952 4.42654
779 1 8.81499 7.68767 6.97274
780 1 0.764017 5.45886 6.5444
781 1 4.82078 7.71862 4.15307
782 1 7.69577 3.47336 1.85755
783 1 3.0767 0.42433 3.86718
784 1 5.55267 6.0961 8.78575
785 1 9.26397 3.99242 6.95692
786 1 8.45583 3.85732 2.77087
787 1 0.829987 9.02953 5.20176
788 1 5.4128 7.79416 2.38678
789 1 4.74824 5.57398 4.79812
790 1 2.94523 8.0845 1.499
791 1 4.23007 2.42087 4.94572
792 1 0.00312143 9.3849 2.78456
793 1 9.37217 1.11149 0.187216
794 1 1.1899 8.32747 8.52642
795 1 4.9279 6.84232 8.81598
796 1 6.40792 1.12863 1.80038
797 1 0.482391 8.24225 2.5206
798 1 3.13569 2.65506 3.12746
799 1 6.20921 6.9221 6.1651
800 1 2.86012 2.98345 1.98012
801 2 7.3682 4.83103 2.01894
802 2 0.50971 0.628561 6.68029
803 2 7.87238 4.6129 5.23108
804 2 5.6447 4.78782 6.91368
805 2 8.35089 6.97174 5.06975
806 2 5.65219 6.97302 2.55085
807 2 8.52905 3.152 5.04927
808 2 5.02019 3.61475 4.91202
809 2 5.48133 0.891219 2.99745
810 2 4.42478 5.15787 3.06759
811 2 8.4585 8.07161 8.20493
812 2 9.00994 7.58534 8.61813
813 2 6.28566 7.04092 4.13522
814 2 6.69458 7.66779 8.00445
815 2 5.71182 3.56745 8.06781
816 2 0.316452 5.82267 7.63831
817 2 3.84883 4.34236 2.84189
818 2 7.19243 1.92737 3.51419
819 2 5.06573 7.57645 8.07148
820 2 3.75286 4.14455 8.48985
821 2 6.30296 1.87474 7.79323
822 2 0.549476 7.15018 6.99826
823 2 1.97472 2.32409 8.63822
824 2 1.22381 1.94855 1.57923
825 2 0.471112 3.38948 3.10892
826 2 6.82093 5.51517 4.41095
827 2 6.36882 4.60987 0.743948
828 2 8.05534 6.38552 7.79258
829 2 6.67115 0.848607 9.05606
830 2 7.14791 9.34961 4.22658
831 2 6.07399 5.82824 6.6668
832 2 4.81785 9.30917 5.61133
833 2 5.43632 0.749205 8.32472
834 2 4.61971 5.96574 8.14694
835 2 5.45276 8.96735 2.121
836 2 5.57595 2.20661 4.15283
837 2 4.79525 0.642177 5.04519
838 2 0.71884 2.3384 5.84037
839 2 7.82036 4.73501 3.30265
840 2 6.09632 5.76146 2.39226
841 2 8.34853 1.83982 6.63176
842 2 8.33467 8.93325 5.47429
843 2 6.17737 2.19848 4.91647
844 2 2.11928 8.77494 1.01199
845 2 0.536691 5.97219 5.83314
846 2 2.54307 8.92376 4.46458
847 2 5.46495 6.54098 5.57892
848 2 6.46475 0.307404 3.54189
849 2 2.76251 9.03088 2.85617
850 2 2.97377 1.22556 3.51479
851 2 2.05057 8.87344 0.151203
852 2 0.448702 0.36432 3.43574
853 2 5.65589 9.11215 5.36473
854 2 8.18755 7.60229 6.31291
855 2 7.64503 2.93713 0.214363
856 2 3.65677 5.313 0.67974
857 2 3.58056 6.23354 8.20567
858 2 6.30279 1.14953 3.1084
859 2 6.59415 3.50875 3.64557
860 2 6.43225 3.46791 0.669676
861 2 5.8592 4.15966 0.110642
862 2 7.33616 2.85967 3.3753
863 2 6.73659 4.01333 7.86689
864 2 4.22195 8.80715 6.16099
865 2 5.89175 7.35358 0.629067
866 2 7.78776 7.46304 2.64721
867 2 4.75946 2.86651 0.563108
868 2 8.62104 1.43626 0.933711
869 2 9.37273 5.41072 1.46745
870 2 4.06804 6.85204 2.04535
871 2 1.3577 7.67966 2.26115
872 2 6.96398 1.15338 7.97132
873 2 1.74151 3.22098 8.06388
874 2 4.16214 0.459835 4.47921
875 2 4.606 8.74568 2.28268
876 2 5.3061 3.80594 1.97626
877 2 7.34305 1.48723 7.10847
878 2 3.06964 2.32719 1.35936
879 2 2.2335 1.51177 3.99049
880 2 8.7014 9.37402 7.68461
881 2 4.84622 0.835988 7.26902
882 2 0.543998 1.2922 3.6126
883 2 3.2765 6.99883 4.14534
884 2 4.75143 2.88311 3.25995
885 2 7.0292 6.03619 2.83531
886 2 8.0441 0.104299 3.97866
887 2 5.47387 1.67314 1.89876
888 2 7.48216 7.32691 0.243492
889 2 5.44872 8.40905 8.04378
890 2 2.36601 1.96462 6.42722
891 2 7.89077 5.39247 4.46921
892 2 2.06874 2.35141 7.68391
893 2 7.08762 1.03042 3.62348
894 2 6.076 7.75327 6.56494
895 2 3.85706 7.11328 5.41801
896 2 0.984049 4.74877 1.28308
897 2 6.67596 7.81576 1.69954
898 2 0.133193 9.17763 4.56833
899 2 1.62253 1.6485 0.630365
900 2 2.98241 8.08127 6.50653
901 2 4.84478 1.50246 5.27973
902 2 4.16145 4.87656 2.11006
903 2 5.00826 8.28586 5.03355
904 2 0.943923 3.34233 0.660099
905 2 6.3742 0.300035 1.78842
906 2 1.05108 6.61063 0.43408
907 2 7.49721 7.29383 4.47314
908 2 1.45116 7.93634 3.09898
909 2 1.25222 5.00924 2.0354
910 2 6.5044 8.64757 3.58752
911 2 7.93634 5.62048 2.44108
912 2 3.68136 4.38928 1.50647
913 2 0.605565 5.20428 9.2001
914 2 7.56431 8.28539 8.1687
915 2 3.49362 7.34113 7.72587
916 2 0.86351 1.53119 8.52671
917 2 2.34938 5.86743 3.06054
918 2 1.19532 6.53357 6.55383
919 2 0.25005 2.87419 7.64551
920 2 4.68431 0.995185 5.94703
921 2 4.011 6.40169 4.88664
922 2 0.270661 3.005 0.162044
923 2 6.89356 5.9302 7.37936
924 2 2.3174 0.362799 8.33196
925 2 9.36166 7.2255 1.47256
926 2 2.89726 5.99893 4.57229
927 2 5.95344 2.01502 6.26036
928 2 1.08902 2.35881 8.03974
929 2 4.46424 7.40861 7.13392
930 2 0.648006 2.46955 6.83053
931 2 8.21814 9.31512 9.15488
932 2 5.05435 6.28964 0.159583
933 2 0.267409 1.69548 4.29536
934 2 2.25335 5.76863 9.33626
935 2 4.14353 7.18965 0.735334
936 2 2.62519 3.93091 0.202021
937 2 8.89629 2.54 4.03117
938 2 9.13115 7.11508 4.14771
939 2 2.0083 4.24123 8.89305
940 2 2.48862 1.10789 2.21853
941 2 1.15 1.86752 4.06971
942 2 7.38297 0.70893 6.42614
943 2 1.64809 6.3915 4.62892
944 2 2.207 0.642731 5.68049
945 2 6.76883 5.02571 2.81475
946 2 1.9853 8.9085 5.11953
947 2 4.58354 4.73579 8.6523
948 2 5.23096 1.10027 9.15471
949 2 8.46709 4.40296 0.634998
950 2 0.0811886 0.263114 1.96635
951 2 4.08925 2.72366 8.8128
952 2 6.30611 8.76236 1.93322
953 2 4.85681 6.87986 4.77493
954 2 3.98866 8.26417 0.516357
955 2 9.14666 3.81816 0.597749
956 2 1.63585 3.86336 3.68612
957 2 7.82218 1.47468 0.451678
958 2 6.40242 5.04713 3.74257
959 2 3.86221 1.24709 3.91204
960 2 1.41108 6.46786 2.82277
961 2 5.95508 6.3712 3.65835
962 2 8.84679 4.09433 8.15575
963 2 5.75913 7.09948 9.20776
964 2 8.50945 1.24184 1.94283
965 2 5.87723 3.16924 2.44467
966 2 4.19029 9.03438 7.91679
967 2 7.62056 0.376687 7.93379
968 2 0.92475 6.93096 2.0077
969 2 7.96924 7.51962 8.78571
970 2 1.62447 2.35764 6.68479
971 2 6.63169 1.9181 6.79693
972 2 6.90735 3.18953 8.41347
973 2 5.23379 3.47082 2.83401
974 2 1.25283 9.00129 0.748743
975 2 9.12876 4.47014 1.31389
976 2 8.4483 1.04424 0.0496997
977 2 4.5101 8.56571 8.6604
978 2 6.17586 4.6736 5.83272
979 2 4.79881 0.813512 3.95738
980 2 5.93032 1.99136 3.23916
981 2 3.70702 3.42194 7.09185
982 2 7.38706 8.67079 5.59462
983 2 8.96827 2.43135 7.08436
984 2 6.92408 7.42677 7.12889
985 2 1.43901 0.611104 2.16816
986 2 1.30285 8.33182 0.035014
987 2 0.771102 0.888661 1.27903
988 2 5.85158 0.285114 8.97588
989 2 4.31793 5.50339 7.43394
990 2 1.22856 0.323741 7.61144
991 2 6.54827 8.64092 8.32083
992 2 8.93181 5.17251 3.452
993 2 6.65609 5.85349 0.611488
994 2 4.07871 0.237402 0.813582
995 2 8.26421 1.19805 5.36194
996 2 8.5651 3.2368 8.01623
997 2 8.67976 6.36519 4.40372
998 2 4.51362 3.63543 8.49969
999 2 5.3957 4.80781 3.83621