#bin. KALJ data file T=0.5

1000 atoms
2 atom types

0 9.4 xlo xhi
0 9.4 ylo yhi
0 9.4 zlo zhi

Masses

1 1.0
2 1.0

Atoms

1 1 4.26716 9.41432 0.280265
2 1 3.69692 1.49541 0.158494
3 1 1.74259 5.0498 1.9916
4 1 5.4593 0.816495 4.1172
5 1 7.23383 7.92408 7.92938
6 1 8.20239 3.54199 2.32062
7 1 1.30836 0.964681 8.93113
8 1 1.96342 1.72685 0.798038
9 1 3.13328 8.1025 8.47267
10 1 6.09247 2.48718 4.5063
11 1 5.62271 4.89021 7.34483
12 1 4.24132 6.32715 3.56296
13 1 3.82022 3.67639 9.02876
14 1 0.852809 3.13801 9.01508
15 1 3.23647 4.08808 5.37863
16 1 8.57426 2.48235 2.60823
17 1 9.11132 7.23489 6.99817
18 1 8.73849 0.815599 3.04592
19 1 6.7368 8.97399 6.31917
20 1 1.52173 5.57458 6.75033
21 1 2.32735 6.35179 3.76325
22 1 2.33503 7.76791 7.37677
23 1 9.19861 5.04557 3.31316
24 1 5.14985 2.82708 8.45915
25 1 0.869922 3.06707 2.54328
26 1 1.29291 3.50144 5.97029
27 1 4.02237 3.71545 0.5699
28 1 4.14674 7.19807 5.57817
29 1 2.58101 7.69714 2.67931
30 1 5.57436 2.77327 1.09104
31 1 6.29308 7.45145 7.88081
32 1 1.48955 0.818415 0.385585
33 1 8.99338 8.27732 0.0842407
34 1 5.85772 8.67754 4.51308
35 1 2.15664 2.27407 3.89504
36 1 5.65702 4.8287 8.5713
37 1 7.94743 1.89005 7.7714
38 1 2.26057 6.95713 5.00191
39 1 7.53697 1.74116 5.00725
40 1 4.98617 8.55408 5.28911
41 1 3.70129 6.54778 0.23636
42 1 8.39706 6.48354 9.03711
43 1 2.23187 0.200731 5.38875
44 1 7.3685 0.132154 2.1126
45 1 0.57999 2.17197 2.54663
46 1 2.57181 8.49211 2.00723
47 1 8.97279 4.44969 1.58893
48 1 5.1291 0.939892 8.85228
49 1 8.17107 6.43376 2.89175
50 1 3.17237 0.939332 0.884797
51 1 9.32066 2.21053 3.46801
52 1 0.147343 8.67831 3.56396
53 1 6.99591 8.87775 3.09463
54 1 6.91585 1.89906 7.96886
55 1 7.28282 1.18146 7.25783
56 1 7.01217 0.33957 6.87883
57 1 5.63076 8.23036 2.19993
58 1 8.47948 7.31901 4.44454
59 1 5.98168 2.20661 8.32932
60 1 3.40403 4.89162 3.80453
61 1 4.58353 0.85443 0.254066
62 1 0.690304 5.08942 0.418591
63 1 4.07915 0.664851 4.79572
64 1 8.70635 2.98599 4.20428
65 1 1.86513 9.2721 6.72778
66 1 4.59614 7.67949 7.32628
67 1 4.98382 0.1699 7.02219
68 1 8.84884 9.14771 3.43827
69 1 7.57224 9.19422 0.253109
70 1 6.19821 5.76187 0.911768
71 1 9.28172 4.20978 6.09665
72 1 6.45634 1.60618 4.1186
73 1 3.45894 2.28868 8.18734
74 1 5.2375 7.62573 2.92064
75 1 3.83936 9.14421 8.13159
76 1 3.57309 0.808919 6.96017
77 1 6.57322 3.58645 7.89981
78 1 5.23718 8.45399 3.47063
79 1 0.449238 4.79395 5.74583
80 1 0.74498 2.5055 8.10442
81 1 4.9327 7.56195 0.116515
82 1 8.60803 3.48628 1.47302
83 1 1.06595 5.40717 1.21104
84 1 6.60723 5.10352 2.48026
85 1 0.323366 8.07526 7.43955
86 1 1.47436 4.40453 4.33524
87 1 1.85049 5.42185 4.82604
88 1 7.30535 1.42504 1.99318
89 1 0.727182 2.99598 4.85907
90 1 0.501981 5.20308 7.38247
91 1 8.06396 8.77728 5.67363
92 1 0.712734 7.12715 6.50657
93 1 8.61027 2.03993 8.87598
94 1 5.80255 6.7592 2.38967
95 1 6.13956 7.62228 2.81723
96 1 4.8525 1.17762 8.02065
97 1 8.35071 2.63132 7.39792
98 1 0.935949 9.21654 7.72476
99 1 1.3099 4.85328 3.29807
100 1 5.85194 7.21168 6.98278
101 1 3.34571 5.06524 1.22684
102 1 1.16442 7.23281 2.50481
103 1 6.06186 4.9144 5.02696
104 1 8.1995 4.22956 1.04458
105 1 9.10561 4.00485 2.3494
106 1 0.445568 7.74383 1.19376
107 1 2.81096 5.24524 5.05479
108 1 0.713831 1.60849 4.96548
109 1 6.51575 7.03645 9.3271
110 1 7.04393 4.67515 1.64857
111 1 8.97963 6.67469 0.295235
112 1 2.35053 2.50212 1.5539
113 1 6.78365 4.17734 3.82174
114 1 4.33585 0.578471 8.67244
115 1 6.44586 4.2859 8.77839
116 1 3.30009 5.22497 6.6495
117 1 6.34254 3.13946 3.16859
118 1 2.34854 2.24591 6.97067
119 1 5.35214 4.88273 5.6067
120 1 9.32697 6.8329 6.15951
121 1 8.28967 9.23704 4.2556
122 1 6.47918 2.31473 2.71736
123 1 6.73017 3.85995 6.55101
124 1 2.75446 9.29634 6.73302
125 1 2.28209 4.93611 4.10977
126 1 7.39486 9.16881 1.18844
127 1 3.92594 5.76913 2.53237
128 1 2.58452 0.612328 7.43338
129 1 1.97442 5.47511 0.857492
130 1 8.39171 2.25439 3.41171
131 1 5.98931 8.68674 5.68697
132 1 1.03647 8.2389 7.9431
133 1 4.45351 5.67415 8.78173
134 1 2.49931 4.32011 6.77557
135 1 4.02813 2.74651 8.80246
136 1 1.0758 6.98583 1.32707
137 1 3.237 0.621902 9.10189
138 1 3.18522 5.26985 7.61703
139 1 6.21214 0.209359 5.8518
140 1 0.0425766 2.14249 5.61599
141 1 4.95427 3.1203 3.46715
142 1 4.81594 0.106161 4.33804
143 1 1.89403 7.19507 1.24788
144 1 0.239633 3.16516 6.57674
145 1 3.18613 2.34146 2.59863
146 1 2.65692 2.82888 4.3307
147 1 8.54971 4.1525 7.92603
148 1 5.86958 5.80361 6.98425
149 1 4.2627 9.2692 5.37588
150 1 3.3249 7.43424 5.30993
151 1 6.74133 7.90305 1.76621
152 1 4.66653 4.47054 7.25647
153 1 5.27776 5.38504 0.840128
154 1 3.69922 3.54925 3.17917
155 1 5.94573 4.1601 5.62839
156 1 6.06548 4.78309 1.20812
157 1 6.59835 5.40282 8.91554
158 1 0.0561042 5.59225 9.25133
159 1 3.11827 3.59176 4.02432
160 1 5.20538 0.355232 8.09279
161 1 5.58983 7.10059 0.708196
162 1 6.32419 1.51693 2.26761
163 1 7.59036 7.33518 1.01528
164 1 2.78874 4.12592 1.47804
165 1 0.392505 2.3494 7.19054
166 1 4.52195 7.15691 1.00496
167 1 8.16719 2.43112 4.74291
168 1 6.26022 9.24384 3.96483
169 1 0.9108 4.13032 7.50281
170 1 2.7345 2.73894 8.01774
171 1 2.3326 6.01176 5.37268
172 1 8.9055 8.70984 5.49183
173 1 5.13097 5.3148 2.53706
174 1 4.83504 4.29491 8.15944
175 1 4.69213 6.15214 0.691656
176 1 8.4518 7.16467 6.21404
177 1 5.69409 3.66576 2.69327
178 1 9.24183 8.03843 5.12274
179 1 4.7263 1.41508 4.44838
180 1 0.507458 8.28278 2.01762
181 1 2.18698 5.88745 7.52493
182 1 7.78825 6.88572 8.57086
183 1 2.77318 4.65133 8.804
184 1 2.39652 0.386617 0.811902
185 1 7.32484 5.58362 8.2953
186 1 2.86638 0.513846 4.09542
187 1 8.37846 7.30674 1.60077
188 1 0.721956 0.18346 0.819808
189 1 3.76493 0.74084 2.46989
190 1 8.25108 5.78332 7.21606
191 1 6.02008 7.35688 1.67945
192 1 3.98622 6.48552 8.77001
193 1 1.03021 2.38782 4.31284
194 1 1.28265 7.70363 7.22803
195 1 3.04098 0.855242 1.7935
196 1 4.13516 2.45032 6.44657
197 1 6.25589 2.48068 7.56587
198 1 0.216058 4.33511 8.87145
199 1 4.28415 7.91652 6.52603
200 1 8.66376 1.87778 7.04014
201 1 3.7214 2.69478 7.41355
202 1 1.65981 1.69817 9.25858
203 1 5.07821 1.87293 8.49778
204 1 1.68446 2.68934 0.751547
205 1 8.09658 1.11853 4.61598
206 1 4.54904 3.4858 8.43719
207 1 4.86559 8.38583 0.617055
208 1 4.98092 4.17926 5.93371
209 1 1.30103 7.39277 5.5092
210 1 0.890343 9.19371 3.76375
211 1 8.14905 6.11507 8.12257
212 1 3.7311 1.64517 2.00461
213 1 7.40464 1.54176 9.16215
214 1 7.69831 3.49568 6.7144
215 1 2.88623 5.89674 0.884549
216 1 2.7999 3.39634 2.74978
217 1 0.529018 7.10883 7.44355
218 1 9.07795 6.10075 5.33549
219 1 1.89574 8.06879 6.25225
220 1 7.32703 4.52435 6.71752
221 1 7.96917 1.4031 8.46554
222 1 2.78043 1.77349 3.38346
223 1 8.3166 8.72329 2.14455
224 1 0.177996 7.2433 2.04045
225 1 1.71791 2.39726 2.82274
226 1 3.22759 7.50612 7.59825
227 1 6.99966 5.41036 5.37541
228 1 8.59439 2.94205 9.11652
229 1 0.562406 5.53238 8.17712
230 1 9.37512 3.41968 1.05575
231 1 4.18612 3.7915 7.58552
232 1 2.17539 6.11971 2.79922
233 1 5.35686 5.23975 4.43339
234 1 6.67179 3.79966 0.473149
235 1 1.95226 7.74568 0.324453
236 1 2.65195 3.53277 4.89764
237 1 8.71115 6.4113 6.67268
238 1 4.80436 8.9486 9.26184
239 1 5.5577 1.4508 6.23304
240 1 8.05806 1.43657 3.21247
241 1 3.01478 4.44759 4.54464
242 1 3.87946 7.12955 6.82108
243 1 1.28266 8.19421 3.7589
244 1 8.16033 1.33138 0.128169
245 1 3.71847 5.5502 0.0747719
246 1 3.19425 4.09695 6.31226
247 1 0.661963 0.580646 4.76126
248 1 3.90638 8.10301 3.14318
249 1 1.18642 6.35829 6.20754
250 1 4.34646 3.21944 5.85711
251 1 2.07489 5.22922 2.91134
252 1 2.87019 6.77997 3.10584
253 1 7.81978 0.696259 3.70612
254 1 7.30539 1.6222 6.00283
255 1 0.21591 6.14533 7.06899
256 1 8.26559 8.23675 0.715166
257 1 0.785177 0.811921 1.75694
258 1 5.85244 0.95795 5.48169
259 1 3.40851 5.5139 5.7503
260 1 7.40466 6.72495 3.70591
261 1 2.33288 6.44435 8.84
262 1 2.0993 4.33551 3.31302
263 1 8.61851 8.94561 6.47226
264 1 8.39498 4.53017 2.47948
265 1 5.70118 5.8743 5.05425
266 1 4.08793 8.25722 8.93594
267 1 6.8609 0.947178 5.75979
268 1 5.09419 4.92316 6.53313
269 1 7.22542 4.79879 3.16819
270 1 6.28726 2.86953 6.10484
271 1 6.18037 8.1622 6.93667
272 1 7.32967 0.0787297 5.71401
273 1 7.34121 8.55641 2.01756
274 1 3.74539 0.047584 3.95713
275 1 2.56441 8.27099 3.6751
276 1 3.69739 5.58 3.43545
277 1 4.19147 1.70055 8.67317
278 1 3.01728 7.56309 0.625983
279 1 1.85245 3.1174 7.03346
280 1 4.91106 5.98577 4.09438
281 1 3.72931 1.65097 2.9521
282 1 0.349886 6.45746 9.26649
283 1 2.94355 6.99216 8.33669
284 1 8.13967 6.726 0.805625
285 1 8.95575 0.0106586 0.697286
286 1 8.48883 6.18755 1.45525
287 1 8.4246 5.10033 0.978516
288 1 6.29977 0.83437 3.75221
289 1 3.15691 1.30141 5.3765
290 1 6.57608 9.18498 0.872415
291 1 8.03551 6.38114 6.04903
292 1 1.47713 6.58043 5.32351
293 1 6.51603 1.73803 5.04039
294 1 3.99121 8.01427 5.0896
295 1 8.73837 5.57213 6.07585
296 1 4.89021 1.90392 6.46247
297 1 3.71513 4.65925 0.48013
298 1 7.11109 3.36857 3.43589
299 1 5.59469 8.05649 1.04798
300 1 9.10698 5.79713 0.679985
301 1 9.0805 7.54835 2.85793
302 1 8.15721 2.72511 1.06773
303 1 7.73842 0.901087 1.3353
304 1 6.6243 6.51403 0.627186
305 1 0.373915 7.75684 4.35101
306 1 3.99958 8.49074 5.95029
307 1 5.08779 6.5094 6.97625
308 1 4.1677 6.16794 4.72958
309 1 6.84912 6.26057 2.15818
310 1 8.7194 1.73722 1.17933
311 1 2.78627 1.46862 9.33756
312 1 3.64703 7.13796 2.79376
313 1 5.06414 4.51812 0.397597
314 1 8.66426 8.1846 3.59025
315 1 3.50957 1.34375 6.31042
316 1 7.73323 2.75274 6.05482
317 1 3.24693 8.85323 2.78246
318 1 3.25779 7.26948 6.23482
319 1 3.24046 8.36178 7.57919
320 1 6.57651 5.20111 7.09417
321 1 2.78598 8.93377 4.57184
322 1 2.71768 5.60567 3.57111
323 1 4.27704 4.19428 2.25547
324 1 8.91521 2.68458 0.497093
325 1 6.7056 4.96147 4.30322
326 1 0.219519 1.12355 0.980286
327 1 3.15892 2.70657 3.61947
328 1 4.35069 9.01202 1.28007
329 1 5.12078 6.63391 1.6341
330 1 3.72214 4.14297 1.31183
331 1 1.54848 3.62501 0.346637
332 1 8.11538 5.3993 2.81138
333 1 8.15225 9.33189 7.16924
334 1 8.36511 7.35257 9.36524
335 1 8.08646 0.40496 0.69288
336 1 7.08395 6.89536 7.66749
337 1 1.34593 3.242 4.1951
338 1 4.58061 3.51943 6.74799
339 1 8.1792 4.68778 0.204743
340 1 9.05468 6.61763 3.13711
341 1 0.54968 3.84727 2.878
342 1 5.4182 3.6979 1.72011
343 1 5.31545 8.16855 6.21793
344 1 5.08476 1.74797 5.37886
345 1 3.41756 9.07501 8.97649
346 1 0.443367 5.35252 2.0681
347 1 2.32066 1.24084 4.06189
348 1 3.32207 5.93582 1.72292
349 1 6.63983 9.20608 5.07572
350 1 8.04162 5.97929 0.379247
351 1 1.71448 4.64447 7.50098
352 1 0.675541 4.15118 6.45927
353 1 5.77686 7.40729 8.70586
354 1 2.67277 5.27407 2.16039
355 1 4.00451 6.20404 5.61632
356 1 6.8551 7.62655 7.10791
357 1 2.51547 5.75124 6.28225
358 1 3.89795 9.29863 2.60976
359 1 9.11498 8.42934 2.70501
360 1 1.44487 4.2101 1.48299
361 1 4.06138 4.39702 6.48518
362 1 4.33322 3.98301 5.28087
363 1 5.93032 2.14146 1.70073
364 1 9.29355 7.51237 9.34297
365 1 4.34203 4.7465 1.19371
366 1 4.1903 5.01198 2.97034
367 1 4.87715 8.42168 8.46274
368 1 6.82885 3.46597 5.34451
369 1 4.58439 1.78031 0.248834
370 1 0.376257 4.43068 2.0642
371 1 3.13801 7.63989 3.499
372 1 5.92568 7.81997 5.42341
373 1 4.54339 1.90352 1.88712
374 1 2.97601 1.2213 8.0092
375 1 1.1969 6.38853 7.52767
376 1 6.3305 0.965243 6.52181
377 1 5.06139 8.17395 4.47611
378 1 1.71376 8.71802 4.35825
379 1 3.57269 1.04898 4.23177
380 1 4.94855 6.88756 3.98564
381 1 3.45863 4.44277 7.15169
382 1 1.29595 2.53744 1.70131
383 1 8.81967 0.8351 0.509208
384 1 1.3102 7.91551 0.889628
385 1 9.13754 0.393346 4.08164
386 1 7.47866 4.25729 5.04221
387 1 4.88933 1.0083 5.77545
388 1 1.83156 8.81182 7.43708
389 1 1.58 2.70884 8.52277
390 1 3.07431 0.487384 4.98086
391 1 4.45126 2.19227 7.82097
392 1 7.24103 7.76857 4.3086
393 1 0.342884 2.79658 0.279816
394 1 5.27753 0.855056 3.10199
395 1 6.6302 1.11446 0.605104
396 1 2.84912 1.94587 4.54985
397 1 6.35625 1.82734 6.00543
398 1 5.36859 7.06222 6.14833
399 1 3.51422 0.786725 3.33711
400 1 2.71731 5.73458 8.28313
401 1 3.05707 4.83077 2.95642
402 1 2.29025 8.90629 2.83128
403 1 7.54618 5.69003 3.67635
404 1 6.04643 2.91692 2.15989
405 1 6.58921 3.906 1.90123
406 1 5.80276 2.18692 6.6962
407 1 8.42929 7.79718 5.61366
408 1 7.25041 2.99851 0.173467
409 1 7.72288 8.0708 5.2073
410 1 7.31098 5.7903 4.48533
411 1 3.24274 3.22493 5.88426
412 1 0.119576 8.03904 6.42466
413 1 2.0116 0.150773 4.28472
414 1 8.85351 4.93939 5.47892
415 1 4.62682 1.04715 6.88514
416 1 6.19049 3.16623 9.30414
417 1 2.8679 5.09163 0.245392
418 1 2.37755 8.40927 8.97546
419 1 6.67052 3.35471 4.19575
420 1 0.532651 6.21851 0.980352
421 1 1.86717 2.62955 6.23806
422 1 2.85298 6.94451 1.31606
423 1 4.81517 6.36815 6.04434
424 1 0.261805 0.43618 0.0496338
425 1 7.92004 7.89058 2.63978
426 1 1.73422 4.90946 0.228243
427 1 2.09768 6.54273 5.97437
428 1 4.19203 5.79927 6.42901
429 1 5.41635 1.50394 2.17536
430 1 1.08117 2.73718 3.45075
431 1 0.600877 3.95595 4.51347
432 1 1.0566 2.38495 6.55153
433 1 0.0323199 6.16429 1.76119
434 1 7.66421 1.88019 4.09177
435 1 3.53089 7.38546 8.96746
436 1 1.61446 7.68049 4.63458
437 1 5.34195 3.43162 0.547565
438 1 0.121247 1.56829 8.66384
439 1 2.9698 4.04197 3.29684
440 1 9.13693 5.53667 4.34648
441 1 0.144908 4.5169 7.91874
442 1 7.27865 4.25603 8.05131
443 1 1.41491 0.120382 5.83453
444 1 2.36534 3.97851 5.99051
445 1 4.89848 4.80303 8.97806
446 1 1.9693 0.0566588 2.23276
447 1 8.17795 1.75267 6.3562
448 1 2.80557 4.86277 5.94626
449 1 6.67882 3.11783 1.56402
450 1 1.94561 7.60397 3.84268
451 1 0.364177 0.342626 6.84433
452 1 8.45245 5.03926 4.12772
453 1 3.49679 6.13521 8.01642
454 1 9.27378 6.36632 3.97495
455 1 7.68437 8.09569 6.21828
456 1 2.36623 5.91401 0.16931
457 1 6.47296 9.18787 2.21298
458 1 1.39149 5.40875 7.60126
459 1 8.36639 6.39934 4.25038
460 1 8.23901 9.06261 8.57928
461 1 9.19879 7.33775 3.80462
462 1 8.85205 2.50703 1.71753
463 1 7.83306 2.83312 2.08621
464 1 5.78211 4.1328 7.96196
465 1 9.04466 8.62753 4.43829
466 1 2.45404 1.9557 6.10018
467 1 4.20514 7.75736 0.451777
468 1 1.12664 4.77595 5.15031
469 1 5.6937 2.32899 5.42554
470 1 6.33231 8.42653 7.78692
471 1 0.0250316 0.63212 2.35997
472 1 2.96568 2.81451 8.93004
473 1 2.32824 8.10683 1.019
474 1 9.07056 9.17861 7.91569
475 1 8.94184 0.828265 5.74598
476 1 0.788322 0.942829 8.18993
477 1 6.70394 2.12046 9.26013
478 1 0.250666 3.11966 3.86433
479 1 7.65275 2.72848 7.79092
480 1 3.5541 2.12566 5.66905
481 1 7.55683 8.92964 6.56838
482 1 8.06199 4.38399 7.26389
483 1 2.12577 3.82565 0.982601
484 1 9.21224 7.04098 5.03846
485 1 1.28535 0.441861 7.32791
486 1 1.70765 3.39697 1.59171
487 1 1.24168 1.79338 8.3575
488 1 2.50473 9.18789 1.42716
489 1 6.79408 0.51555 1.45235
490 1 3.58681 3.04864 2.23358
491 1 7.93383 8.3865 4.14766
492 1 1.78753 2.23778 7.76371
493 1 6.4129 8.0463 9.12587
494 1 8.37672 8.98602 0.0965119
495 1 8.41507 6.72992 5.31388
496 1 0.839189 6.20257 4.43681
497 1 0.446215 0.615551 5.71177
498 1 6.96897 6.11639 3.09663
499 1 8.65629 8.06786 7.30906
500 1 8.23183 3.15558 5.32796
501 1 4.97777 0.879281 1.52965
502 1 0.582836 7.19106 3.14328
503 1 3.59919 3.17867 1.20284
504 1 1.45902 3.5309 7.93801
505 1 1.98307 0.230716 9.36494
506 1 7.04418 3.1806 7.24254
507 1 8.89604 6.50436 7.74542
508 1 1.67278 5.60661 5.71117
509 1 7.92807 3.34606 8.47344
510 1 6.31353 1.5872 7.26459
511 1 6.10841 3.34279 7.18727
512 1 1.6569 1.5414 6.10908
513 1 9.19036 8.25074 8.28711
514 1 2.71542 0.704097 5.93902
515 1 4.74562 8.73069 2.48958
516 1 9.26255 3.03421 2.30342
517 1 6.81889 2.41536 6.7557
518 1 5.8123 0.755545 2.16007
519 1 7.65366 2.77122 3.99376
520 1 1.82133 1.54415 3.14542
521 1 7.25714 8.97319 4.48764
522 1 7.53651 4.79065 3.96532
523 1 5.31712 4.0529 4.89793
524 1 8.703 5.80932 3.52343
525 1 4.71358 3.44084 2.41994
526 1 8.43834 3.64466 0.3999
527 1 2.42589 8.54222 8.02031
528 1 4.09372 9.14781 6.98006
529 1 3.44211 5.29093 8.53524
530 1 5.0393 8.49605 6.9655
531 1 4.97057 2.6566 6.0551
532 1 6.61888 6.40371 7.02821
533 1 5.71282 1.89721 9.17784
534 1 0.526299 6.53645 5.45755
535 1 0.66955 4.08062 0.888708
536 1 6.34498 5.07444 8.1574
537 1 7.9529 3.08861 3.07434
538 1 3.1213 6.02288 8.96146
539 1 7.42596 4.24333 0.442524
540 1 2.70974 6.79868 7.15741
541 1 5.90555 6.64361 8.25294
542 1 1.33275 9.28356 4.95797
543 1 7.17047 3.74157 8.75473
544 1 2.42868 8.51498 6.94326
545 1 6.94898 4.51187 5.67339
546 1 6.89427 6.85929 1.40391
547 1 3.0815 2.46164 6.49927
548 1 5.82077 9.31934 1.63281
549 1 1.13031 8.92429 2.65455
550 1 2.24706 4.53107 5.09379
551 1 8.66098 2.78488 8.21549
552 1 1.71334 6.80147 0.367109
553 1 5.15744 4.44466 2.30962
554 1 8.98889 9.37887 9.00999
555 1 1.05169 7.94041 6.13246
556 1 5.37842 0.214372 9.29613
557 1 4.19996 0.435518 1.6177
558 1 6.54697 0.800437 4.87295
559 1 6.00615 2.35129 3.60407
560 1 8.52303 2.30663 5.79893
561 1 6.94994 7.04849 6.4049
562 1 7.77304 5.08099 4.81252
563 1 3.31691 4.20332 8.07642
564 1 2.22077 1.23935 5.32687
565 1 5.33637 2.04343 7.52667
566 1 2.84606 3.70629 8.92517
567 1 7.53144 5.54879 2.22097
568 1 3.77154 3.59919 4.64926
569 1 1.31991 0.586174 3.8663
570 1 7.92818 1.91467 1.4413
571 1 0.967831 3.25115 0.816463
572 1 6.35188 0.331627 8.56251
573 1 4.15709 8.47606 7.5402
574 1 5.45354 1.21697 7.22749
575 1 1.43829 6.12671 8.59624
576 1 0.416007 8.61788 8.79317
577 1 8.4379 3.98928 9.01882
578 1 1.34431 3.65544 3.3777
579 1 6.84757 7.12838 5.08604
580 1 4.98943 0.265977 0.858516
581 1 3.01323 6.10114 6.7935
582 1 0.089988 7.40044 8.18342
583 1 9.3723 1.34768 6.63464
584 1 9.08454 2.06446 7.90549
585 1 6.97815 7.33773 8.57443
586 1 7.58444 3.73041 1.68623
587 1 0.686864 8.0603 2.97906
588 1 2.11709 2.54207 9.28261
589 1 4.06366 2.00452 4.66126
590 1 1.091 1.75391 1.51595
591 1 5.96987 0.407081 7.05492
592 1 1.74141 2.83281 4.82383
593 1 6.24651 8.57971 1.48588
594 1 9.33176 3.37889 4.81998
595 1 7.718 0.876354 6.45111
596 1 3.468 6.63917 3.73259
597 1 8.64456 7.04881 8.44281
598 1 8.69838 4.06092 4.44093
599 1 6.62602 1.27904 8.7767
600 1 5.15549 3.47168 7.63925
601 1 5.78922 3.30803 4.58782
602 1 1.23364 8.97846 0.0677053
603 1 8.876 8.48696 1.28883
604 1 4.41478 0.678675 3.62327
605 1 4.91733 3.77842 9.26188
606 1 7.47099 4.37146 2.39741
607 1 2.22776 6.2218 1.4076
608 1 4.70634 4.8445 5.01841
609 1 4.32891 8.95791 3.50477
610 1 6.71021 6.37428 8.68968
611 1 0.971416 1.29659 2.48376
612 1 5.65584 6.42275 4.30321
613 1 6.37077 8.329 0.540402
614 1 1.38458 8.00796 1.83868
615 1 1.22193 1.44041 7.18835
616 1 7.12575 8.62408 5.59282
617 1 6.04823 4.46314 2.25081
618 1 5.8779 3.71714 3.78156
619 1 1.63512 0.901044 1.39996
620 1 4.09045 5.53192 0.99009
621 1 8.02747 0.494992 8.87649
622 1 6.30223 5.79019 5.97323
623 1 7.31587 5.00964 7.52998
624 1 8.99697 5.47855 7.63955
625 1 1.01723 5.29297 8.95296
626 1 5.9285 6.76042 3.39837
627 1 3.66701 8.3758 1.44721
628 1 4.85952 5.66607 5.31887
629 1 5.11762 7.13811 7.80099
630 1 5.18551 4.54731 1.41161
631 1 3.60843 3.2262 6.68351
632 1 6.68966 7.89612 5.88381
633 1 6.5935 4.35694 7.48711
634 1 8.6175 0.182804 2.47267
635 1 7.26823 8.32776 0.659658
636 1 2.54578 7.4487 9.11062
637 1 5.76644 8.89816 6.90646
638 1 7.62826 0.397957 4.82102
639 1 1.8073 6.60344 6.93797
640 1 4.39721 6.04053 7.72682
641 1 6.64971 7.15399 2.23349
642 1 0.385223 8.57543 5.60196
643 1 5.19376 5.98931 9.16569
644 1 7.28708 5.57878 6.46015
645 1 1.09174 0.470958 2.92613
646 1 1.28388 8.10008 9.07835
647 1 3.71122 6.5319 1.15349
648 1 3.13133 6.40369 5.94995
649 1 5.95994 9.25061 7.81494
650 1 2.01566 6.89185 7.91316
651 1 2.65379 3.29136 1.5703
652 1 3.09261 7.90142 4.46999
653 1 0.333618 9.14933 4.87239
654 1 2.54384 0.0448165 8.61341
655 1 6.38056 8.8904 9.2517
656 1 8.71961 4.95285 6.91365
657 1 2.94771 1.24857 2.65519
658 1 6.09857 1.52381 3.17753
659 1 5.65964 5.54419 1.81669
660 1 7.33358 6.68496 0.0281624
661 1 0.0647129 0.261703 1.34305
662 1 1.45462 6.02196 1.81885
663 1 0.714087 6.54472 2.10169
664 1 4.77629 3.07455 4.82662
665 1 5.56667 4.59217 3.93888
666 1 3.87446 1.32739 7.77001
667 1 7.76246 0.974315 5.48106
668 1 0.171604 1.34067 7.46091
669 1 4.06869 7.33153 4.32737
670 1 2.40816 4.13456 2.49295
671 1 7.57475 2.18076 2.70057
672 1 7.77942 4.07969 3.14952
673 1 3.29659 0.0109184 1.79741
674 1 -0.000731252 4.3448 7.05289
675 1 4.9999 5.35492 8.06598
676 1 4.43331 2.22506 3.65421
677 1 0.427831 6.12906 2.95244
678 1 4.02095 4.58455 8.90688
679 1 7.99877 8.51583 7.72352
680 1 9.36297 3.14962 7.57888
681 1 5.7541 8.62041 8.53801
682 1 9.28023 1.03759 4.87694
683 1 0.0514706 1.5861 1.86087
684 1 4.59884 5.29206 0.195661
685 1 8.12924 0.881098 2.13079
686 1 1.15572 5.53205 2.78101
687 1 3.93638 6.90034 7.72439
688 1 2.10917 5.31934 8.95254
689 1 7.80064 7.69365 7.13875
690 1 2.82213 5.95488 4.53473
691 1 5.68334 1.48736 4.72039
692 1 4.83065 7.44988 8.63038
693 1 1.57745 7.24265 6.43635
694 1 4.76628 4.21716 3.20404
695 1 1.92638 1.22914 7.80495
696 1 3.10846 3.8954 0.496728
697 1 2.72054 9.09422 0.070964
698 1 6.77216 0.35936 0.115348
699 1 0.00674298 2.12325 4.42321
700 1 7.76068 2.3194 0.231277
701 1 0.195354 9.01556 0.221731
702 1 0.191434 4.99335 1.06516
703 1 6.62145 4.82552 0.171966
704 1 7.61614 7.19525 1.93716
705 1 7.59734 0.394891 2.93404
706 1 8.48735 3.99128 5.44686
707 1 3.47992 8.66019 3.82264
708 1 0.254607 9.36817 2.84201
709 1 3.26299 6.61757 4.66973
710 1 0.630465 3.44214 1.73769
711 1 4.50667 2.82778 0.594605
712 1 1.7108 9.24022 3.495
713 1 7.72847 5.7584 9.0219
714 1 0.451728 0.136821 8.42218
715 1 9.29958 3.9491 3.52961
716 1 3.13986 1.95848 7.45565
717 1 1.94323 8.66613 0.477893
718 1 7.09681 2.3602 4.69611
719 1 5.01253 6.23742 2.65063
720 1 5.62197 4.62277 3.11987
721 1 1.97176 0.758732 6.65178
722 1 7.10109 8.62307 7.20814
723 1 4.35881 6.76357 2.19074
724 1 5.96454 0.860654 9.2427
725 1 3.5046 9.29448 6.26755
726 1 4.05053 1.85285 7.04644
727 1 8.98293 2.55044 5.02426
728 1 8.22676 4.19324 6.48368
729 1 7.26566 5.9836 7.51975
730 1 2.75884 9.13238 3.58262
731 1 6.76847 7.62638 0.906374
732 1 8.10251 3.64525 3.91199
733 1 9.37288 4.33085 4.99916
734 1 5.84124 5.81027 3.59032
735 1 6.54585 0.7235 7.75357
736 1 6.98704 2.44832 5.70754
737 1 0.658187 3.93317 5.49296
738 1 9.26785 9.10993 2.0617
739 1 8.25791 1.03593 7.28362
740 1 6.62245 6.19816 3.94552
741 1 7.1689 0.102344 3.76065
742 1 7.15187 5.71152 0.316028
743 1 4.02913 4.8089 7.79924
744 1 0.584854 7.25095 0.534808
745 1 3.16297 9.22851 7.64895
746 1 7.52382 6.14098 1.28032
747 1 7.14216 1.37085 3.47135
748 1 5.4244 9.40256 3.62275
749 1 6.56674 4.20374 4.85043
750 1 4.39053 5.15214 5.93824
751 1 6.8204 0.772537 2.47603
752 1 2.30768 3.16563 3.48877
753 1 4.75367 6.70498 0.0787031
754 1 0.443453 4.81799 2.81326
755 1 5.09682 2.57648 2.76433
756 1 3.02942 9.03491 5.42944
757 1 0.637022 8.23462 0.326648
758 1 8.3179 1.75147 2.2031
759 1 9.38258 5.10651 6.48558
760 1 1.81381 0.184192 8.0834
761 1 8.70593 0.813406 1.40176
762 1 4.01542 2.93638 4.15423
763 1 7.53926 3.70004 5.85091
764 1 2.26288 3.74519 7.56772
765 1 6.93964 3.24457 2.4363
766 1 3.3245 8.35124 6.722
767 1 6.78796 7.34701 3.35772
768 1 8.13467 6.81151 7.32508
769 1 7.55273 8.10284 3.4185
770 1 2.22511 3.82183 4.17304
771 1 4.46674 3.64878 1.50954
772 1 7.00299 8.07335 2.73299
773 1 3.53965 8.02901 2.3369
774 1 6.80117 2.7216 8.45153
775 1 2.50922 4.75836 7.89982
776 1 3.40573 1.45708 8.69612
777 1 4.97174 9.01985 7.71923
778 1 5.80308 5.76854 8.52188
779 1 8.96573 7.68041 0.968265
780 1 8.81691 1.59438 4.01933
781 1 8.43423 3.32412 6.27526
782 1 0.466104 5.87413 6.10504
783 1 2.27047 3.0878 5.59024
784 1 4.3855 0.398785 6.24977
785 1 4.03541 1.20694 1.15085
786 1 5.56085 7.65512 3.82132
787 1 8.57172 0.487448 6.55953
788 1 1.06712 5.14616 4.20525
789 1 7.69887 5.90088 5.42937
790 1 4.45109 7.25694 3.24513
791 1 4.87191 6.54008 8.42984
792 1 5.00072 7.63768 5.37415
793 1 7.43747 3.40278 0.888423
794 1 6.07447 1.89083 0.735175
795 1 2.35584 8.1812 5.06942
796 1 1.54006 9.35211 0.948835
797 1 6.55677 6.12668 4.95321
798 1 5.59165 9.00056 0.705822
799 1 3.8479 5.12178 5.00244
800 1 8.1711 7.74126 8.11232
801 2 5.31829 1.23313 0.741507
802 2 5.67128 5.22141 0.0324016
803 2 9.15002 6.177 8.5017
804 2 5.97374 3.91265 1.04239
805 2 5.00592 2.71556 9.3205
806 2 6.62591 8.16968 4.99434
807 2 6.07426 6.19057 9.38731
808 2 0.823621 2.65539 5.70187
809 2 2.86892 6.5737 2.21088
810 2 6.924 2.41039 3.57451
811 2 1.14323 4.68401 8.29528
812 2 6.04019 4.97364 6.32561
813 2 2.24761 7.43781 5.82462
814 2 1.22079 1.02588 5.39519
815 2 2.84664 2.35777 5.2677
816 2 0.393746 5.64507 3.64166
817 2 7.78516 3.59433 7.62595
818 2 5.10269 2.02293 1.11062
819 2 7.95213 8.15747 1.51449
820 2 4.61992 4.89156 4.00339
821 2 6.06821 6.43836 1.51314
822 2 0.661654 9.13324 6.19933
823 2 9.19946 3.32607 5.77995
824 2 1.68429 8.09677 2.98091
825 2 8.10578 4.92374 7.96598
826 2 1.99851 3.13093 2.34756
827 2 0.309902 7.50271 5.74547
828 2 0.866444 1.87237 3.35517
829 2 4.63971 1.8781 2.81348
830 2 4.99321 0.0940937 2.11299
831 2 1.03837 0.800797 6.49947
832 2 9.10306 5.26439 8.48313
833 2 4.96619 5.56589 7.22418
834 2 6.34363 5.87983 7.74389
835 2 5.68875 9.17081 2.62246
836 2 9.07652 1.70223 2.81439
837 2 3.23467 2.50809 1.70115
838 2 6.56634 8.23357 3.88772
839 2 6.48317 7.12826 4.32067
840 2 6.77813 5.50712 1.6407
841 2 8.81601 0.936309 8.53411
842 2 0.927137 7.12213 4.65793
843 2 8.54537 4.49625 3.45574
844 2 1.10555 4.17249 9.19394
845 2 7.42691 5.22864 0.956425
846 2 3.97532 4.27126 3.66222
847 2 3.04327 8.21745 5.9653
848 2 8.9316 7.75556 2.02172
849 2 2.98361 0.348186 2.5959
850 2 5.57292 7.29892 4.65359
851 2 7.55731 6.79284 4.67419
852 2 2.0704 1.01429 2.2519
853 2 8.02207 8.93481 3.00014
854 2 6.91754 2.30094 1.95722
855 2 3.17544 8.27641 9.37502
856 2 7.67714 2.35411 8.63421
857 2 5.68854 3.61006 8.62564
858 2 6.66954 4.04688 2.86896
859 2 8.58992 0.352493 4.8536
860 2 0.11894 4.65609 4.12488
861 2 7.55728 3.34622 4.78901
862 2 3.6769 0.636004 5.67998
863 2 4.47884 7.82851 2.47867
864 2 5.92659 0.444482 0.766171
865 2 0.299539 0.808915 3.22687
866 2 1.59125 4.66962 6.10257
867 2 2.86361 7.72157 1.78579
868 2 0.618447 1.55203 6.02781
869 2 2.75036 3.43568 6.74225
870 2 8.24433 9.20074 1.32124
871 2 4.89864 2.7103 7.07765
872 2 0.418114 2.46856 1.55602
873 2 1.74969 0.838079 4.71222
874 2 6.07075 6.5894 5.55851
875 2 9.05603 5.65183 2.61906
876 2 1.26843 6.83972 3.9437
877 2 8.3413 0.229217 5.71678
878 2 7.46558 0.952245 0.559786
879 2 2.45628 4.94209 1.32445
880 2 0.916503 8.35138 4.82963
881 2 7.34014 4.68824 8.88013
882 2 3.44357 3.89577 2.33331
883 2 1.69058 6.24609 4.46334
884 2 7.40474 6.88012 2.7779
885 2 7.23846 2.52863 1.04102
886 2 5.87761 1.28981 8.30492
887 2 0.620903 3.45007 8.1678
888 2 4.84025 7.69217 1.63404
889 2 7.57199 0.574151 8.10088
890 2 5.15415 0.179485 5.32455
891 2 0.0721645 3.72337 0.179555
892 2 4.31455 2.4771 5.41707
893 2 5.05292 2.61836 1.82327
894 2 7.50978 7.66617 0.0324681
895 2 5.5514 8.38729 0.0932815
896 2 9.00383 3.54458 8.54023
897 2 0.450368 1.25238 4.03608
898 2 1.97888 4.22674 8.47935
899 2 3.49198 2.7459 4.85666
900 2 0.643747 8.73698 1.21294
901 2 7.56136 7.22741 5.68726
902 2 5.78897 0.184175 4.65621
903 2 1.33476 5.95008 0.179804
904 2 5.59473 3.28856 5.55183
905 2 2.67859 6.75736 0.443008
906 2 2.26591 0.949425 8.66973
907 2 3.12058 5.88621 2.81157
908 2 4.09341 7.80857 8.07971
909 2 3.62558 4.76153 2.14727
910 2 1.86825 1.83431 4.70658
911 2 4.29906 6.00176 1.71521
912 2 8.68724 1.64487 5.33435
913 2 7.26576 9.37542 8.76508
914 2 2.4467 5.15992 7.03977
915 2 0.874399 2.24156 9.15134
916 2 2.86559 1.69278 1.60707
917 2 9.03595 2.53514 6.59299
918 2 3.656 1.87571 3.92662
919 2 4.60536 0.964898 2.43246
920 2 4.52668 3.71862 4.13878
921 2 5.22808 9.20855 6.14474
922 2 1.45544 1.65083 3.89677
923 2 6.08373 1.10696 1.35111
924 2 9.19729 0.0691678 6.09717
925 2 2.26232 4.19424 9.35488
926 2 3.90552 7.5364 1.50788
927 2 2.18494 0.664955 3.39509
928 2 2.727 2.66562 0.703518
929 2 9.1113 6.84865 1.29121
930 2 5.37275 6.16455 7.71252
931 2 2.53422 1.95957 8.44729
932 2 7.02104 9.14665 7.9886
933 2 0.871797 5.11758 6.47042
934 2 4.19466 5.19596 7.02986
935 2 1.96722 6.9084 2.13733
936 2 7.99337 4.85083 1.69699
937 2 5.3902 8.02603 7.62864
938 2 0.64354 7.60966 8.92835
939 2 3.36908 1.91972 0.910545
940 2 5.09242 6.58642 5.08991
941 2 3.16433 8.53553 0.796351
942 2 4.1303 1.50515 5.50663
943 2 5.59485 4.11251 6.96194
944 2 6.77496 1.74223 1.26815
945 2 1.27878 4.38949 2.5329
946 2 2.03945 7.08554 3.07185
947 2 5.12877 2.29414 4.42915
948 2 8.79626 6.65571 2.21831
949 2 8.33563 5.75075 4.8302
950 2 7.80358 4.85207 5.79014
951 2 1.35541 6.27552 3.15273
952 2 6.31388 2.87978 0.709206
953 2 1.47153 8.86917 1.6462
954 2 1.17627 9.00513 8.61373
955 2 8.34115 7.10742 3.52328
956 2 2.66522 7.09999 4.14856
957 2 6.14383 8.63705 3.19715
958 2 5.50905 3.32427 6.45503
959 2 4.2667 8.24926 4.25402
960 2 4.84216 5.47547 3.34557
961 2 8.58027 3.52586 7.22113
962 2 9.30142 8.90071 6.96781
963 2 0.524065 5.49043 5.09264
964 2 5.38928 5.64031 6.16477
965 2 1.52886 2.17484 5.40421
966 2 8.63297 5.45356 1.86125
967 2 3.53036 0.089539 0.883732
968 2 3.50189 3.23016 8.14729
969 2 6.59901 5.40185 3.39189
970 2 1.61383 3.97873 6.83648
971 2 8.58345 5.51455 9.07188
972 2 2.57629 1.3923 6.90796
973 2 6.12464 5.9635 2.58951
974 2 0.894274 2.14438 0.680823
975 2 3.73034 2.43565 0.189062
976 2 5.12956 8.62526 1.54689
977 2 0.777427 9.37017 1.88551
978 2 0.0631304 2.51044 8.68757
979 2 1.65084 7.15441 8.84274
980 2 1.68469 5.60524 3.63338
981 2 5.82162 4.06886 0.000894633
982 2 0.96244 3.30779 7.12043
983 2 9.06514 4.53095 0.14197
984 2 7.02944 6.46894 5.62993
985 2 3.95689 8.59483 0.452175
986 2 4.31151 0.365804 7.76147
987 2 8.94719 0.590951 7.52111
988 2 2.27385 8.86321 6.01658
989 2 8.91819 3.04274 3.28828
990 2 5.26599 1.7625 3.41618
991 2 0.748316 1.37231 0.214502
992 2 1.5024 3.76195 5.16696
993 2 2.02925 3.4241 8.87752
994 2 7.37126 8.38816 8.96978
995 2 7.19521 1.09683 4.37941
996 2 9.21596 1.64946 0.347397
997 2 7.72953 2.17181 6.89655
998 2 1.00901 6.90231 8.26151