#bin. KALJ data file T=0.5

1000 atoms
2 atom types

0 9.4 xlo xhi
0 9.4 ylo yhi
0 9.4 zlo zhi

Masses

1 1.0
2 1.0

Atoms

1 1 6.67471 3.0315 3.16826
2 1 3.7488 2.46581 9.01537
3 1 0.0553086 9.21426 4.86291
4 1 5.01382 2.76222 1.06324
5 1 1.56903 8.52823 4.70177
6 1 4.74177 4.61656 8.38749
7 1 4.60718 0.576721 0.105099
8 1 5.29296 7.25341 3.81451
9 1 2.13312 6.70034 2.73399
10 1 8.28357 1.35446 -0.0260983
11 1 1.99828 4.7169 6.23722
12 1 6.87584 8.76903 2.01944
13 1 8.99741 1.69649 5.44894
14 1 5.62457 4.84742 8.79879
15 1 7.63915 8.36557 8.40625
16 1 5.24247 7.29146 6.8591
17 1 1.66458 3.16117 6.91039
18 1 6.38102 8.64881 6.6823
19 1 3.97135 0.339714 1.77023
20 1 3.60332 2.42735 2.67587
21 1 4.04825 4.97462 6.41972
22 1 6.30347 3.67756 6.46536
23 1 3.43959 5.30545 8.19703
24 1 1.83577 3.46941 1.03827
25 1 1.96759 3.95592 2.37462
26 1 8.2559 4.75317 4.90202
27 1 1.41595 6.12536 6.44082
28 1 9.10629 4.48185 5.90117
29 1 6.51429 9.2421 5.78921
30 1 2.10983 2.21184 6.85452
31 1 4.96126 3.56567 0.425256
32 1 2.43174 7.43607 9.07357
33 1 8.92651 8.64703 4.35713
34 1 7.23379 3.13739 1.14782
35 1 5.371 0.122596 4.86686
36 1 0.27344 3.70229 8.33514
37 1 3.75209 2.04627 7.59812
38 1 3.08968 6.10778 1.48869
39 1 0.1116 2.47189 0.306651
40 1 6.22839 4.60075 0.957162
41 1 6.46616 6.03665 7.27402
42 1 5.07036 9.06965 3.32501
43 1 0.645042 9.13679 8.03144
44 1 2.30098 2.1401 7.90833
45 1 5.5684 3.30486 9.25936
46 1 3.74036 6.31793 4.10556
47 1 6.00161 1.60806 7.16953
48 1 6.0025 2.40129 9.01447
49 1 7.41838 5.15742 4.32031
50 1 4.86355 4.25978 2.11388
51 1 7.93138 5.48456 3.19516
52 1 1.3665 3.29745 3.18777
53 1 1.54666 1.88358 0.141249
54 1 1.35321 1.92569 2.12911
55 1 2.06417 5.95729 8.3522
56 1 2.77271 5.98529 4.61934
57 1 7.83216 6.98102 6.95296
58 1 1.90773 5.98675 5.68676
59 1 3.92414 0.316885 0.778888
60 1 3.89986 6.65078 7.25989
61 1 3.63551 1.59054 5.91955
62 1 8.00056 3.99042 1.23303
63 1 8.21658 2.02284 3.5567
64 1 7.13954 3.66388 5.8531
65 1 7.5627 4.09698 5.14322
66 1 5.52807 3.912 5.86923
67 1 8.44447 5.45867 6.8051
68 1 5.81912 0.688895 6.33586
69 1 1.25391 0.953668 9.10108
70 1 1.47388 0.0609185 8.42279
71 1 4.95297 5.00745 6.69171
72 1 2.86183 2.24997 3.15475
73 1 7.99966 4.9642 1.56295
74 1 5.40163 8.062 6.25517
75 1 6.27356 0.148155 4.92344
76 1 7.34913 4.15098 3.28924
77 1 5.07966 6.93831 4.69163
78 1 8.14715 7.48713 0.0558637
79 1 1.9434 8.83933 2.04485
80 1 7.22611 3.5715 6.69348
81 1 6.53598 7.94594 2.44184
82 1 5.35208 3.01108 7.43512
83 1 0.61407 8.26813 7.61158
84 1 3.51396 5.28032 4.84315
85 1 2.94892 5.87961 8.61011
86 1 3.93394 8.78769 7.2849
87 1 5.79916 5.00392 4.88669
88 1 7.771 0.121592 7.99898
89 1 4.15006 8.17417 2.5586
90 1 7.79025 2.18283 0.0584486
91 1 7.51392 0.285208 0.606319
92 1 5.57635 5.3207 4.02291
93 1 7.199 2.62309 8.96607
94 1 7.72224 0.745 2.7088
95 1 4.37199 7.06751 7.8945
96 1 5.53181 5.90103 6.96703
97 1 0.66134 5.33344 9.25215
98 1 4.79984 5.91526 9.06324
99 1 7.49676 3.16086 2.7395
100 1 8.12244 7.56401 6.19597
101 1 4.89512 4.48068 5.96702
102 1 7.20368 0.0202013 2.40877
103 1 7.74315 5.43775 7.78617
104 1 1.77406 0.20235 4.24194
105 1 8.4754 3.99864 5.43555
106 1 0.130949 6.43278 5.95541
107 1 6.63254 3.66035 4.65233
108 1 7.73732 6.65063 8.14733
109 1 4.25247 5.94907 8.298
110 1 3.18704 7.72941 8.4084
111 1 7.57268 4.6384 0.673334
112 1 6.93039 1.56895 3.73907
113 1 3.96328 1.59508 4.21422
114 1 6.32973 9.28828 7.72687
115 1 1.09084 4.96097 3.75915
116 1 4.07605 8.58733 1.72695
117 1 4.18455 5.73855 3.52842
118 1 3.20239 4.03387 0.276721
119 1 2.52996 5.98614 6.41298
120 1 8.02265 3.84627 2.08692
121 1 7.08235 7.44101 6.06085
122 1 7.47139 8.71773 7.46548
123 1 6.30207 4.80927 2.93026
124 1 5.76688 1.06044 4.54061
125 1 3.91868 2.46284 4.53905
126 1 2.93655 4.70325 6.30062
127 1 2.69547 5.45268 7.72345
128 1 1.93876 4.00806 7.34845
129 1 8.18059 2.88258 8.99644
130 1 4.57316 2.57759 2.94322
131 1 1.01287 3.61321 1.28393
132 1 1.42447 7.01896 6.78152
133 1 0.0922127 6.37565 3.1802
134 1 4.3926 6.70417 3.06974
135 1 8.28224 0.169847 5.22154
136 1 1.09622 5.80237 4.1966
137 1 4.67314 5.97178 4.79128
138 1 0.164037 0.633891 1.29835
139 1 6.73639 0.151226 1.24749
140 1 3.52792 7.53539 7.67908
141 1 8.09449 2.88192 0.606084
142 1 0.777851 8.84419 0.798121
143 1 7.04875 1.72133 5.39568
144 1 2.7089 1.36505 1.36085
145 1 8.22526 1.5533 2.75817
146 1 1.34829 5.59775 1.39568
147 1 5.67637 4.18635 0.242351
148 1 6.89726 0.977542 4.7199
149 1 8.95655 1.09337 8.829
150 1 1.17307 2.02222 3.20165
151 1 3.18842 0.752683 6.16544
152 1 2.46258 5.01595 8.36773
153 1 3.62612 7.16496 6.22518
154 1 1.77869 7.04313 7.92793
155 1 5.08375 4.48414 2.91735
156 1 6.90435 9.1744 4.06609
157 1 6.71566 1.01974 7.14921
158 1 1.78135 4.93758 5.3956
159 1 4.2897 3.96929 8.94525
160 1 3.24827 5.53135 3.89395
161 1 5.48463 5.9674 5.20518
162 1 1.44053 8.79333 7.47658
163 1 5.65584 3.69535 2.38092
164 1 7.02292 5.14014 8.4713
165 1 0.479668 5.63149 3.5237
166 1 3.75618 0.720785 8.66048
167 1 3.53109 4.35347 8.6017
168 1 8.25302 1.2896 5.01434
169 1 3.8034 0.698722 4.38564
170 1 3.02875 3.96409 3.32627
171 1 0.218841 8.65312 5.5764
172 1 8.38065 5.38857 2.32347
173 1 6.4432 2.44324 3.85431
174 1 5.53524 2.62894 5.58998
175 1 6.2664 3.37527 5.6192
176 1 6.42879 2.79858 4.73334
177 1 3.70816 3.36934 2.03207
178 1 3.51796 8.87532 0.987444
179 1 2.78616 8.08058 0.313151
180 1 1.46154 7.38483 8.72132
181 1 4.214 1.83842 0.923598
182 1 9.42597 7.43932 3.52225
183 1 6.80057 4.16443 0.306181
184 1 5.75748 2.06103 8.09634
185 1 7.87666 5.49498 0.892949
186 1 8.44429 0.00971225 0.658329
187 1 6.32399 3.79459 8.86793
188 1 7.58861 8.75248 9.3047
189 1 7.96516 6.70571 0.509023
190 1 5.30093 6.80471 2.76954
191 1 8.90096 2.46682 1.28376
192 1 3.7192 0.389709 5.35565
193 1 9.22329 6.01503 1.7417
194 1 9.32542 3.61518 6.36352
195 1 3.48826 3.13335 0.924042
196 1 0.456738 1.37151 0.0814581
197 1 2.61989 5.05034 0.613633
198 1 5.82858 5.55874 3.12436
199 1 5.82111 9.37612 6.8429
200 1 3.50755 1.18264 0.629671
201 1 6.03133 8.65906 4.78937
202 1 1.52087 7.4673 5.66276
203 1 5.06236 8.94715 1.71177
204 1 3.79952 4.87746 3.57503
205 1 7.06385 0.77057 8.29041
206 1 5.4503 7.02483 8.18142
207 1 2.89362 6.62052 9.13991
208 1 0.514385 2.7676 1.26189
209 1 2.21323 5.63404 2.74977
210 1 1.93817 5.51141 6.93322
211 1 1.04751 6.83966 5.83724
212 1 2.22707 4.31972 1.5444
213 1 2.08601 3.38286 3.95203
214 1 7.12026 2.50145 8.02968
215 1 6.17779 7.09869 2.49262
216 1 5.30107 4.15968 6.83973
217 1 7.07374 6.96093 4.97522
218 1 0.536102 0.613967 8.59564
219 1 8.9426 8.75201 9.2324
220 1 5.64915 2.3151 6.63555
221 1 6.52345 4.86612 4.16891
222 1 5.44802 0.144866 8.08079
223 1 6.81177 4.90056 5.07521
224 1 2.89465 2.5342 7.17685
225 1 3.25561 1.58646 4.83245
226 1 1.37716 6.20673 7.30314
227 1 6.06535 6.46168 4.50596
228 1 1.35904 4.04067 4.83705
229 1 7.55364 5.27914 9.40105
230 1 8.93109 5.59397 3.53625
231 1 6.32384 5.39529 6.73389
232 1 1.17335 4.29245 5.64734
233 1 5.74135 8.53915 7.93322
234 1 5.27746 0.955761 5.542
235 1 0.642932 0.547078 4.45602
236 1 5.01087 5.89663 3.24901
237 1 1.48076 5.27379 2.32429
238 1 2.48219 8.531 4.59693
239 1 4.20645 5.27085 8.92322
240 1 7.12676 8.1846 0.521501
241 1 5.51326 8.57555 7.04909
242 1 0.937861 1.11836 2.00036
243 1 0.970979 3.10326 9.06174
244 1 4.54378 8.86015 0.935762
245 1 7.79278 7.59764 0.860386
246 1 7.32018 4.74481 6.23825
247 1 2.4806 6.75538 0.750861
248 1 0.0569876 6.10971 0.284294
249 1 1.36506 1.35241 4.6297
250 1 8.67431 6.46605 9.09523
251 1 5.5236 6.55478 1.27596
252 1 3.00931 0.814924 3.86111
253 1 1.37729 4.72798 8.92842
254 1 1.35336 9.14599 6.45724
255 1 0.518442 4.50405 1.10656
256 1 7.22738 4.22526 4.29456
257 1 5.82444 1.74567 5.21375
258 1 5.73915 7.73966 2.93618
259 1 3.37024 8.32364 7.78621
260 1 3.71446 1.334 6.72846
261 1 7.45183 2.42681 4.18894
262 1 2.42458 4.5145 9.06411
263 1 1.031 1.57419 0.996158
264 1 6.75195 6.15531 6.4278
265 1 0.38938 4.64423 8.45834
266 1 8.63666 6.43078 6.19736
267 1 3.95387 1.32706 1.65659
268 1 9.07703 7.22944 6.03565
269 1 7.471 1.70745 8.55928
270 1 8.76139 2.03745 9.03356
271 1 2.03418 0.570426 8.96788
272 1 3.84584 1.71051 8.41568
273 1 5.61222 0.615375 8.96574
274 1 8.59452 4.41678 2.87205
275 1 2.67369 8.93233 2.66706
276 1 3.38916 3.03854 5.94314
277 1 2.05911 7.63669 6.38209
278 1 4.09193 7.4436 6.98435
279 1 1.92263 6.75308 6.06885
280 1 4.06856 8.41219 4.38757
281 1 3.37949 2.17801 0.607637
282 1 7.26646 0.168615 9.09425
283 1 9.26339 7.64082 7.54232
284 1 7.02633 2.75012 6.23509
285 1 1.47922 2.19361 6.03872
286 1 8.36703 8.26804 0.546922
287 1 4.68965 1.35568 7.22878
288 1 3.33219 0.266051 7.24545
289 1 3.42896 9.32106 8.19126
290 1 5.66659 7.88305 5.01233
291 1 2.38217 0.99162 5.75778
292 1 0.281241 1.19442 5.76492
293 1 0.758663 2.35224 8.23007
294 1 0.651098 0.405457 0.185603
295 1 2.19369 0.51271 1.08849
296 1 1.68942 6.56195 1.50128
297 1 6.94298 8.43414 5.93963
298 1 3.34091 6.82435 0.431118
299 1 0.519294 3.97895 9.13461
300 1 0.883235 0.412489 2.5868
301 1 2.92491 3.5986 4.60921
302 1 4.43242 3.43271 2.59014
303 1 4.61898 0.957292 1.08109
304 1 6.08002 0.720684 0.953673
305 1 4.99017 5.67119 1.09417
306 1 3.18312 5.43772 6.70117
307 1 1.28019 5.23747 6.10961
308 1 5.72652 8.37437 1.16496
309 1 9.27058 9.27572 8.61134
310 1 5.21726 0.546579 7.09301
311 1 4.7634 2.94508 5.12239
312 1 9.07721 0.347331 7.2336
313 1 3.43965 1.49279 3.28038
314 1 4.55824 8.21196 6.74065
315 1 0.58481 0.730081 7.20169
316 1 1.8415 1.0738 0.479807
317 1 3.29985 1.01184 2.18043
318 1 8.83764 7.05785 7.02091
319 1 2.23949 0.977636 4.2079
320 1 0.298142 3.23525 3.10518
321 1 7.97403 7.02698 4.34106
322 1 1.12638 8.49931 8.63479
323 1 0.382929 4.81297 4.52757
324 1 3.21182 4.4908 4.37065
325 1 7.74393 8.74676 1.96966
326 1 8.72177 6.75895 3.60329
327 1 2.74587 3.58596 5.54784
328 1 7.19835 6.41235 2.42837
329 1 4.08246 3.15615 8.53326
330 1 8.86981 1.96937 4.21136
331 1 8.36317 0.356355 9.22016
332 1 9.32558 9.31024 0.49026
333 1 1.45439 1.44928 5.60918
334 1 7.69217 3.13298 7.59627
335 1 3.97769 1.57938 -0.0433141
336 1 7.58111 2.40808 5.50452
337 1 8.74445 0.640595 3.29154
338 1 1.86597 4.31254 8.17769
339 1 6.13552 7.46706 7.62752
340 1 6.25249 7.87226 5.78032
341 1 7.06697 8.01868 1.46385
342 1 9.23077 7.20131 0.20142
343 1 7.17012 3.27823 3.95063
344 1 5.30016 0.856541 0.504653
345 1 8.95491 5.205 4.40928
346 1 4.97757 2.88551 8.2168
347 1 1.77825 0.637114 5.09023
348 1 0.138671 1.80436 8.70222
349 1 6.49583 6.45816 0.928798
350 1 0.290079 2.86893 2.12474
351 1 8.77727 5.75174 0.796291
352 1 6.47098 1.7437 4.53219
353 1 5.0197 8.28397 0.496311
354 1 3.00707 4.49528 1.11601
355 1 8.15917 2.96672 1.62708
356 1 0.482097 9.0379 1.5144
357 1 7.46399 8.38997 4.51966
358 1 7.85683 1.65603 6.32197
359 1 0.929745 3.15723 5.94206
360 1 3.09022 9.29426 5.74618
361 1 3.8476 6.03244 6.52028
362 1 7.44039 0.929562 6.68129
363 1 7.37224 9.09627 6.37671
364 1 7.92577 4.78157 8.49635
365 1 3.11946 2.30658 8.39615
366 1 2.56179 1.37185 8.46051
367 1 2.23288 9.29355 5.00165
368 1 8.26903 7.99956 4.43552
369 1 6.59782 9.2964 0.185419
370 1 8.53222 0.915169 2.06055
371 1 3.63236 2.36687 6.66905
372 1 4.528 3.99312 6.63385
373 1 3.14326 8.00287 6.78371
374 1 0.222224 6.20645 8.80025
375 1 0.0837316 0.995975 2.18543
376 1 6.04977 6.70973 8.87778
377 1 1.75558 2.56078 3.69387
378 1 3.06019 8.61346 8.65095
379 1 2.5509 7.47634 7.53117
380 1 0.38289 4.54054 5.35837
381 1 0.906353 1.69897 6.5618
382 1 5.11496 6.20855 7.93169
383 1 6.31305 2.86832 8.33234
384 1 4.38779 4.59687 7.26864
385 1 7.28313 2.29288 0.885887
386 1 9.22642 2.40227 5.04286
387 1 1.79438 5.14366 7.73581
388 1 0.778415 7.52228 1.83465
389 1 5.85726 7.79991 1.85938
390 1 8.77363 8.68469 1.65957
391 1 8.31723 0.300901 6.2399
392 1 2.01686 6.57709 4.96069
393 1 6.66185 4.35274 6.91804
394 1 0.202617 6.65144 3.98379
395 1 8.12312 3.91882 6.36882
396 1 1.09911 8.97922 2.14019
397 1 4.69186 6.29038 2.12728
398 1 0.885198 1.19431 3.84018
399 1 4.34328 9.12265 2.37764
400 1 1.0812 6.52032 8.40115
401 1 1.48179 0.371248 7.19657
402 1 2.96469 0.453814 8.99127
403 1 7.05549 4.06338 1.20722
404 1 4.79744 5.68381 6.04454
405 1 4.96834 1.71193 2.76861
406 1 6.89825 0.893136 1.78114
407 1 6.28539 4.49641 8.1677
408 1 2.50229 3.15157 3.09044
409 1 5.23145 0.446872 1.41037
410 1 2.96299 7.90238 3.9613
411 1 8.20196 2.85833 4.12559
412 1 8.11088 7.9853 1.60209
413 1 0.361497 5.33014 1.03058
414 1 7.70489 1.20171 3.45728
415 1 0.03632 1.329 6.9007
416 1 7.26002 2.2948 3.26368
417 1 5.41685 3.03938 4.33324
418 1 8.21272 8.31722 3.48683
419 1 7.63653 8.04516 2.75578
420 1 5.01394 0.288062 6.2451
421 1 5.06089 4.3866 1.00568
422 1 7.76179 6.87913 5.67397
423 1 8.71946 5.56494 7.72085
424 1 5.51579 2.72954 2.6388
425 1 8.90265 2.88259 6.85145
426 1 7.18454 0.189951 7.34766
427 1 3.7219 9.05465 3.86816
428 1 4.49573 7.42237 0.52234
429 1 1.18734 4.2768 1.85877
430 1 7.91112 9.17705 4.41065
431 1 2.17053 6.59307 7.05765
432 1 6.7477 5.25823 0.546154
433 1 8.20774 8.76928 6.82285
434 1 4.43685 1.22751 3.38849
435 1 5.55051 4.95301 1.70597
436 1 5.87472 7.70702 8.63654
437 1 6.13243 5.90073 8.17713
438 1 8.21671 5.95018 1.60945
439 1 6.70796 3.32136 7.65081
440 1 5.54399 1.50255 9.20043
441 1 3.35252 6.6604 5.04774
442 1 3.16466 5.14083 8.99442
443 1 3.78258 3.96664 7.71776
444 1 3.84705 6.49153 9.2018
445 1 2.76139 7.0172 6.59843
446 1 7.09689 7.23482 1.91481
447 1 5.48209 2.10304 1.64453
448 1 5.6514 5.72872 9.01479
449 1 0.200832 1.87935 1.0671
450 1 5.01594 8.13846 8.70365
451 1 6.85417 3.04138 0.327432
452 1 1.24407 0.287783 3.4956
453 1 1.59395 1.74128 7.43981
454 1 8.24156 7.89859 7.01793
455 1 2.53643 0.0917135 1.84088
456 1 5.24814 5.19946 0.437133
457 1 8.8821 4.54716 9.00023
458 1 9.09717 8.89087 6.44028
459 1 8.95527 5.32387 5.3429
460 1 2.4827 6.10348 3.42185
461 1 0.64522 7.10278 7.43938
462 1 6.40489 4.80463 9.24754
463 1 7.87512 4.11439 7.80288
464 1 1.48025 7.10043 4.29206
465 1 4.44962 2.67078 7.17224
466 1 4.59798 3.63146 7.65259
467 1 1.31137 2.81101 1.68465
468 1 1.6291 4.88364 0.821233
469 1 3.00168 5.83874 0.324295
470 1 4.23092 1.3437 5.16324
471 1 4.15194 6.89414 4.76937
472 1 6.45832 0.788699 9.37846
473 1 8.16231 5.89561 0.181081
474 1 0.0851468 2.18648 6.98379
475 1 4.6915 4.82178 5.02872
476 1 7.92024 7.07496 2.32249
477 1 4.77775 0.786133 4.52558
478 1 4.91824 8.57476 4.90232
479 1 5.70106 1.98223 4.33667
480 1 4.74318 3.72871 5.51373
481 1 4.2814 2.75153 0.316593
482 1 2.6086 4.75056 2.26329
483 1 8.45891 7.10588 5.2527
484 1 8.58743 8.37252 5.1368
485 1 4.09926 5.59315 5.51705
486 1 6.13897 2.07946 2.93423
487 1 6.42136 0.230764 8.63022
488 1 0.559844 8.43047 6.40587
489 1 5.91182 8.73373 0.322948
490 1 6.23122 0.286509 2.16355
491 1 4.86825 8.66466 7.84261
492 1 9.21997 3.19493 5.52948
493 1 3.75043 3.18708 4.10526
494 1 3.48074 8.71757 0.0680258
495 1 1.4916 6.52532 3.31535
496 1 3.8535 8.24257 6.11923
497 1 3.79874 3.2546 5.00076
498 1 4.06399 4.08124 0.681691
499 1 4.74009 7.53587 3.01029
500 1 7.53702 3.61019 0.0245459
501 1 8.9485 7.51452 4.42281
502 1 6.37246 2.40046 0.901283
503 1 8.24929 9.05138 8.52386
504 1 2.1321 6.04546 1.96944
505 1 3.3519 6.14246 2.88763
506 1 7.59873 7.65395 5.17778
507 1 3.22782 3.25773 8.14099
508 1 8.0953 1.87795 0.869133
509 1 4.17246 5.48622 7.54867
510 1 6.56283 5.45428 2.03549
511 1 0.450989 6.32839 2.41536
512 1 0.434194 7.73036 5.79203
513 1 4.58723 6.67876 6.57982
514 1 6.0094 7.62058 6.65915
515 1 5.86487 9.33593 1.05779
516 1 3.18365 0.517999 1.2346
517 1 9.28244 6.50092 7.75472
518 1 6.37933 0.0667478 3.04272
519 1 7.7283 4.66915 7.09121
520 1 8.14733 0.968942 0.857651
521 1 2.5017 5.29362 1.54685
522 1 6.32141 7.39786 1.01843
523 1 8.5389 0.225099 2.519
524 1 5.10107 1.92307 0.547789
525 1 9.37782 0.951177 4.0246
526 1 4.8067 1.27514 1.94408
527 1 4.74543 9.1953 8.69801
528 1 6.32399 6.27374 2.87453
529 1 7.10221 3.54452 8.39764
530 1 8.68547 7.47924 1.06999
531 1 2.4982 7.10296 1.75288
532 1 3.82089 0.94895 7.66314
533 1 8.96649 4.22864 4.69373
534 1 1.89721 3.56751 5.50424
535 1 6.35852 1.41099 8.65907
536 1 8.35517 8.65858 2.61336
537 1 2.30657 4.22799 0.549275
538 1 7.23807 6.85108 1.10652
539 1 6.07281 1.27033 3.49009
540 1 2.84305 3.67441 1.22379
541 1 1.44138 5.52899 3.19013
542 1 3.44914 7.48378 2.24425
543 1 5.85121 6.86624 0.36396
544 1 6.92774 1.66226 2.37097
545 1 2.52569 7.95751 3.10101
546 1 4.22817 8.30728 9.21363
547 1 1.84024 5.60707 4.72501
548 1 8.79352 7.93398 8.84492
549 1 2.16189 0.875762 7.48621
550 1 7.73262 0.667901 4.38882
551 1 3.53406 7.7034 9.34535
552 1 7.18665 7.55617 4.12957
553 1 2.41307 -0.0354037 8.3101
554 1 8.89044 2.56852 3.38118
555 1 8.2249 4.81146 3.82121
556 1 6.31643 7.86557 0.143302
557 1 5.09854 5.35087 7.93424
558 1 8.39654 5.0271 0.317642
559 1 9.16752 7.92106 1.81903
560 1 8.57076 1.23447 7.40624
561 1 5.15678 9.13016 0.133717
562 1 9.37565 5.18962 7.2104
563 1 8.50206 1.22153 4.00421
564 1 9.04729 3.84484 3.37539
565 1 6.69768 1.61343 7.91886
566 1 9.19981 8.24789 2.75678
567 1 6.92013 8.67023 2.92254
568 1 4.6572 0.423739 7.89279
569 1 0.926218 6.18506 9.30475
570 1 7.71909 0.99274 7.65104
571 1 5.6937 8.91796 8.78408
572 1 6.83713 6.97349 8.35188
573 1 6.22509 2.58012 7.32399
574 1 4.69218 1.92682 8.09762
575 1 3.34183 8.00168 1.43053
576 1 0.336339 6.0498 6.89601
577 1 4.13847 5.74021 0.424965
578 1 0.787887 3.32615 7.6924
579 1 6.38397 2.39854 5.70211
580 1 6.17103 7.17088 5.13864
581 1 7.97329 7.49475 8.62118
582 1 2.5711 6.69794 7.97534
583 1 2.78378 1.27772 9.40495
584 1 8.0764 3.84533 4.32985
585 1 8.9747 0.71582 5.98976
586 1 4.67789 8.79991 5.92594
587 1 1.21744 4.50545 2.9651
588 1 2.57831 5.07911 4.76898
589 1 5.9561 8.8235 2.10266
590 1 4.12778 4.1491 4.70614
591 1 1.50838 2.71468 7.72283
592 1 6.58236 4.40781 5.83223
593 1 2.89719 0.645603 4.94274
594 1 0.692156 7.64484 4.04595
595 1 5.13438 8.28087 4.10194
596 1 5.42232 7.35789 5.81171
597 1 8.18816 0.291969 7.22097
598 1 2.94255 2.94129 2.37665
599 1 7.30404 6.08839 0.650513
600 1 6.18614 3.36706 1.08341
601 1 4.73934 9.21299 7.00369
602 1 4.50958 8.4186 3.49662
603 1 8.98376 1.62382 3.31244
604 1 8.69462 4.65422 7.89979
605 1 0.669787 6.66612 1.57127
606 1 1.96459 8.91478 3.58437
607 1 0.642749 3.619 3.86337
608 1 8.65701 3.60152 7.38141
609 1 8.57227 3.06732 8.30036
610 1 8.63603 4.44199 1.89189
611 1 2.38699 1.26302 2.33277
612 1 7.29762 1.71597 7.21473
613 1 1.93263 7.85802 4.05575
614 1 7.19942 0.34847 5.25286
615 1 8.93624 7.07787 1.92781
616 1 1.44132 4.19098 3.84831
617 1 6.72919 6.77631 0.0645838
618 1 0.393143 1.38135 4.77723
619 1 7.11601 2.61937 7.075
620 1 8.90074 1.17653 1.35247
621 1 2.74596 5.05049 3.11765
622 1 5.16405 7.3587 0.95319
623 1 0.24883 8.21533 8.51603
624 1 5.00731 2.44454 8.99428
625 1 0.547817 3.03168 6.74267
626 1 0.941685 5.48306 7.14735
627 1 0.422588 8.4415 2.1512
628 1 0.493019 9.04461 9.16005
629 1 6.31325 6.42158 1.82133
630 1 0.255507 1.10692 3.06064
631 1 8.10858 5.84437 8.46891
632 1 6.52691 8.22086 7.48591
633 1 4.06451 8.68305 8.2662
634 1 8.98541 3.44141 2.24046
635 1 2.11029 4.07516 3.26866
636 1 3.47913 6.98161 1.35857
637 1 1.91368 3.07203 2.26633
638 1 1.57469 3.2231 8.4339
639 1 2.29227 4.16755 5.001
640 1 1.50224 1.14408 2.65258
641 1 6.44663 8.34409 4.05811
642 1 4.78637 8.01177 1.50017
643 1 7.79143 4.72138 2.72999
644 1 6.59301 8.52744 8.97249
645 1 4.66993 0.894205 8.73425
646 1 7.43546 3.05116 4.85395
647 1 6.92316 3.85303 2.10352
648 1 4.35735 2.77817 5.92129
649 1 0.1438 4.93874 2.94965
650 1 6.57274 5.74122 9.05528
651 1 3.34862 7.91824 4.92057
652 1 6.98373 8.7875 5.07614
653 1 4.66194 6.57414 4.00015
654 1 7.0923 5.06221 3.50896
655 1 6.9986 1.02893 0.896004
656 1 2.99746 1.49979 7.53363
657 1 2.52906 0.0126784 7.31611
658 1 0.0958815 9.18099 2.67879
659 1 3.9217 5.7185 2.00807
660 1 3.72687 8.01311 3.46172
661 1 1.71488 0.446322 2.05385
662 1 3.82541 6.55969 2.2392
663 1 7.01419 5.00112 1.37292
664 1 2.44995 3.27052 7.63629
665 1 0.356886 8.14427 0.10716
666 1 8.16324 5.9489 5.62203
667 1 8.76233 6.55308 4.50063
668 1 1.89422 6.58342 9.06995
669 1 5.87197 6.68332 7.31346
670 1 1.42153 2.34289 0.924494
671 1 2.83737 0.934759 6.93091
672 1 3.73116 4.20775 6.78862
673 1 2.2298 3.05998 4.85718
674 1 7.14736 6.04832 3.2603
675 1 3.97328 0.0123808 6.28219
676 1 2.6431 2.8208 1.43678
677 1 5.04082 6.85762 9.00233
678 1 7.52221 6.32513 9.12338
679 1 2.80938 8.30651 5.812
680 1 4.03684 6.26909 1.03773
681 1 5.99476 3.70392 7.30562
682 1 4.63502 2.14466 6.51522
683 1 7.05321 7.1691 2.95065
684 1 5.62932 2.51192 0.361797
685 1 1.62437 6.6674 0.533001
686 1 5.3806 4.18291 7.79001
687 1 3.14687 7.00909 3.20432
688 1 6.38394 3.88301 3.0147
689 1 8.92618 6.82495 2.73798
690 1 0.777846 5.32093 5.41997
691 1 1.59931 8.25241 2.57298
692 1 5.14966 3.11786 6.3853
693 1 1.75906 1.55509 3.68575
694 1 7.62572 1.5074 4.42466
695 1 2.17909 7.96442 1.90414
696 1 5.83601 9.17652 4.13362
697 1 6.79616 7.95853 8.29098
698 1 1.78491 1.17351 1.53264
699 1 1.45801 7.88967 7.80576
700 1 2.87623 4.11934 8.05648
701 1 1.41517 4.65577 6.95783
702 1 2.07712 2.16318 2.72602
703 1 9.21309 0.635966 5.06848
704 1 8.34474 2.6447 2.69753
705 1 7.10927 9.06976 8.31874
706 1 5.1335 7.11205 1.862
707 1 8.21555 4.97447 5.90841
708 1 5.00102 7.7522 7.79882
709 1 3.03509 1.95069 2.2212
710 1 0.353294 3.804 1.73603
711 1 3.93205 2.18562 5.38633
712 1 0.619858 8.03782 3.01603
713 1 6.68947 1.0152 6.12194
714 1 6.79126 5.16796 7.64369
715 1 2.48721 4.67616 7.06563
716 1 2.99777 5.47418 5.61472
717 1 3.62295 7.28435 4.03337
718 1 0.515704 1.9648 2.03899
719 1 2.0733 5.90538 0.793735
720 1 0.150226 7.39989 2.57404
721 1 1.751 8.31894 0.799224
722 1 6.54321 8.74371 0.979544
723 1 3.04873 8.88262 6.6268
724 1 6.6207 5.80717 4.1343
725 1 9.325 4.52272 3.82429
726 1 0.0378976 2.8855 8.60271
727 1 8.96935 0.774958 0.324142
728 1 3.58671 5.35717 1.20741
729 1 7.92815 3.07066 5.93738
730 1 2.51729 9.34544 0.382897
731 1 4.33885 7.28589 2.29554
732 1 5.72096 5.04122 7.35032
733 1 8.41264 7.26267 7.86843
734 1 0.526575 4.69611 6.51852
735 1 0.232578 4.7249 1.99487
736 1 0.438377 7.11612 6.47041
737 1 5.58613 1.33744 1.22052
738 1 6.03568 0.752877 7.74974
739 1 4.77228 1.85192 5.75725
740 1 9.25549 7.90367 5.09911
741 1 0.889062 8.98037 3.15431
742 1 8.9012 6.27962 5.30117
743 1 2.42595 0.288045 6.3638
744 1 1.14053 0.604852 1.21661
745 1 9.35068 7.90435 6.64632
746 1 5.69507 2.9688 1.61167
747 1 2.85243 3.79214 2.31492
748 1 4.06237 8.1449 0.792622
749 1 1.93624 3.70431 9.29711
750 1 4.73693 5.00813 3.55618
751 1 2.09114 8.99838 5.82713
752 1 3.99308 0.425374 3.42572
753 1 2.39971 8.84484 1.2293
754 1 9.3243 5.00779 0.37144
755 1 0.189754 2.37905 5.93091
756 1 0.935794 9.07497 4.22985
757 1 2.16836 8.48102 6.77962
758 1 9.04206 3.28043 4.29265
759 1 7.26049 7.70462 9.1566
760 1 8.11191 3.84409 8.77687
761 1 6.52747 5.60786 5.80582
762 1 5.59135 6.35449 3.67684
763 1 5.38194 1.45301 6.32543
764 1 6.32681 6.87833 3.55032
765 1 8.39978 7.54784 2.87737
766 1 8.92249 1.64678 0.458088
767 1 5.38236 0.843853 2.88518
768 1 0.874445 2.08966 5.24242
769 1 6.6827 7.92333 4.95914
770 1 9.1529 2.01881 7.90346
771 1 8.90311 6.14443 6.95838
772 1 1.92813 6.17484 4.12527
773 1 3.86437 4.72241 5.48857
774 1 9.12877 8.87249 7.53041
775 1 0.546751 9.02487 7.07492
776 1 8.41866 1.99306 1.89111
777 1 4.5926 7.81951 5.31678
778 1 8.39564 2.48585 7.48164
779 1 9.12099 5.58107 6.2396
780 1 0.785252 3.852 6.53513
781 1 2.46925 7.57011 0.96274
782 1 7.02442 6.05092 1.51141
783 1 1.65984 7.30699 2.19685
784 1 1.57475 9.16905 1.21433
785 1 3.54305 4.86634 7.49842
786 1 0.444652 3.34648 0.419943
787 1 1.09215 5.56546 8.33879
788 1 1.78434 3.91077 6.31465
789 1 2.49323 3.47807 6.56623
790 1 0.912462 6.32708 5.1413
791 1 4.67178 5.93889 6.96531
792 1 0.858233 7.41867 0.0861207
793 1 3.05712 4.39442 5.36392
794 1 3.72423 8.67029 5.3556
795 1 4.46796 7.57602 4.29298
796 1 0.17977 5.9213 4.48422
797 1 1.19797 8.32006 3.75852
798 1 0.0981775 8.3433 1.00043
799 1 0.298963 2.23912 2.99698
800 1 2.1411 5.27515 3.70803
801 2 6.63524 0.299571 6.64072
802 2 6.10907 6.86001 6.24902
803 2 6.98849 6.12083 8.24921
804 2 7.75236 9.22103 3.31081
805 2 1.17267 4.16968 7.77127
806 2 1.65209 2.32125 8.58272
807 2 0.189426 0.295102 6.38694
808 2 6.87743 6.97862 6.82691
809 2 7.7786 7.01156 3.45074
810 2 2.54239 2.89054 8.72093
811 2 1.27532 8.37159 5.75743
812 2 8.52136 2.42308 5.86429
813 2 0.324177 2.55926 3.90756
814 2 6.27079 3.08587 2.34578
815 2 8.83248 1.75401 6.39167
816 2 0.870337 6.19697 0.804565
817 2 1.84942 1.40575 6.3542
818 2 6.64395 0.914645 2.84911
819 2 8.80992 4.36935 6.91148
820 2 8.29355 8.4415 7.74783
821 2 3.9846 4.27421 1.83587
822 2 2.53252 1.88314 5.45859
823 2 7.32758 6.35424 7.32339
824 2 4.06129 6.57498 5.61987
825 2 8.03721 1.03605 8.50361
826 2 3.74072 3.26196 6.98403
827 2 4.8467 3.04035 1.9664
828 2 4.5496 0.0852332 5.2706
829 2 6.09287 3.39668 3.92357
830 2 1.24642 4.89777 4.57849
831 2 5.85649 4.50275 3.80265
832 2 8.37274 3.86792 0.304872
833 2 1.33216 0.703342 6.1916
834 2 7.27934 8.45648 3.59708
835 2 2.23419 2.18011 1.83865
836 2 3.97751 1.69722 2.56047
837 2 2.97278 0.701799 7.99024
838 2 3.9033 2.22514 3.63631
839 2 5.20716 1.44751 3.90024
840 2 4.27947 7.26552 1.41357
841 2 1.40919 0.922976 8.14334
842 2 3.46566 8.65883 2.8456
843 2 8.95796 5.17718 1.66225
844 2 2.89017 6.58691 2.19545
845 2 3.69915 4.8383 0.367485
846 2 3.27786 3.02874 3.35604
847 2 1.07959 4.26369 0.438131
848 2 5.65046 8.88762 5.65466
849 2 1.27746 8.30416 1.61557
850 2 3.18326 2.66138 5.1048
851 2 4.98421 6.28332 0.436173
852 2 0.108666 6.93433 5.05061
853 2 8.24832 1.9663 8.15271
854 2 2.48535 0.687066 3.24117
855 2 4.63645 2.84571 4.00149
856 2 3.20315 9.04252 4.59938
857 2 7.61727 2.27118 2.23579
858 2 1.03599 1.59031 8.62322
859 2 7.90899 8.77042 1.07489
860 2 4.16075 7.79348 8.49284
861 2 0.00777064 1.05981 7.87939
862 2 7.57619 1.42451 1.60993
863 2 2.403 7.01822 3.75426
864 2 5.21379 2.11905 7.35835
865 2 8.07052 6.96693 1.4336
866 2 8.07838 6.27579 2.80418
867 2 9.02197 9.25034 5.60379
868 2 4.92025 6.6154 5.67985
869 2 7.16255 0.46071 3.52169
870 2 2.65066 3.00576 0.474966
871 2 1.13257 8.02856 6.99832
872 2 8.74009 9.10593 3.31524
873 2 3.61546 5.27524 2.82451
874 2 8.10333 2.12298 4.83756
875 2 2.13465 8.61621 9.2008
876 2 6.5483 7.81163 3.34483
877 2 1.758 7.60203 0.287612
878 2 3.38464 3.29751 9.13985
879 2 4.30348 1.02803 6.01719
880 2 0.161821 4.10106 7.4816
881 2 0.894319 7.94953 0.856857
882 2 8.71807 0.253485 1.53224
883 2 5.31761 1.25203 8.04197
884 2 7.74128 8.7781 5.67891
885 2 6.05564 5.82239 0.452241
886 2 6.28773 0.596841 4.06915
887 2 0.730578 7.03758 3.25282
888 2 2.56361 2.12325 9.16073
889 2 7.94666 2.54549 6.674
890 2 4.63059 9.2042 4.23158
891 2 5.14559 0.454852 3.76336
892 2 4.67466 2.19468 2.01573
893 2 0.179765 5.47003 8.09134
894 2 3.51646 0.228137 2.67823
895 2 1.74765 9.36678 2.84833
896 2 8.84951 6.64844 0.875775
897 2 8.64731 0.292668 4.13866
898 2 7.31291 1.08918 -0.00313058
899 2 0.408558 7.24901 0.950804
900 2 3.03095 5.63035 2.23778
901 2 7.4534 7.57948 7.6565
902 2 8.75474 5.44662 9.047
903 2 5.32214 0.184644 2.22759
904 2 8.30455 6.30959 7.53821
905 2 3.96862 2.61893 1.58289
906 2 4.30725 3.41263 1.30489
907 2 6.05298 5.50601 1.25686
908 2 2.73429 7.14371 4.53829
909 2 7.25968 4.48262 9.05719
910 2 6.23795 0.922073 5.37069
911 2 0.94181 2.09356 4.34254
912 2 8.29238 3.0293 5.02609
913 2 1.98095 5.47646 9.41426
914 2 3.36534 9.17343 1.88956
915 2 3.46225 6.76192 8.3921
916 2 3.14586 6.14755 7.30145
917 2 5.62282 5.39686 5.97449
918 2 5.21819 8.46413 2.47024
919 2 8.65867 0.329795 8.10122
920 2 2.43129 8.30384 7.69654
921 2 5.32837 7.59899 -0.0438544
922 2 2.83473 1.79769 3.96565
923 2 8.94533 3.4659 9.13467
924 2 4.2519 0.627389 6.93429
925 2 9.11218 5.767 2.61062
926 2 1.62843 2.66329 5.33186
927 2 4.93984 4.42341 9.2222
928 2 5.10411 3.78706 8.58326
929 2 1.17674 8.56035 0.11653
930 2 0.432182 4.06151 2.85778
931 2 0.121991 7.11128 8.61546
932 2 7.8173 0.478527 1.63008
933 2 2.36258 2.70934 5.95654
934 2 1.88332 2.85426 9.36158
935 2 7.23637 8.1353 6.72675
936 2 7.1779 6.67557 4.02101
937 2 5.9264 4.58056 6.48317
938 2 0.979817 3.46013 2.29349
939 2 3.97357 -0.00208969 9.06106
940 2 0.54276 2.84272 4.66644
941 2 9.34152 8.39004 3.6103
942 2 8.09025 5.75405 4.66694
943 2 3.61172 4.3541 2.66877
944 2 5.40697 2.42476 3.53683
945 2 5.45317 5.81629 2.05459
946 2 1.59498 0.0420254 0.249769
947 2 7.38105 5.46095 2.19413
948 2 2.95153 8.34568 2.11739
949 2 6.44105 4.55447 1.88244
950 2 7.65514 0.942944 5.72123
951 2 2.7442 2.78052 4.12094
952 2 4.37264 5.00299 0.97785
953 2 1.5377 7.4611 3.24407
954 2 8.55173 8.35654 6.00875
955 2 1.12141 7.74712 4.86297
956 2 0.114794 9.31484 3.89792
957 2 7.34957 5.50178 6.90036
958 2 0.503843 0.329345 5.44939
959 2 5.34644 3.48511 3.30572
960 2 6.88411 2.55369 1.7284
961 2 1.35949 6.21536 2.34907
962 2 4.5228 7.51038 6.18837
963 2 4.29028 0.728749 2.61864
964 2 0.535277 3.71667 4.72367
965 2 0.489017 8.3857 4.52808
966 2 2.41751 2.21877 0.841104
967 2 2.06864 2.06148 4.42938
968 2 4.81151 4.26823 4.00013
969 2 2.83709 8.79136 3.74297
970 2 9.1124 3.33014 0.975489
971 2 8.01504 6.09614 3.83415
972 2 1.28 3.05699 4.1995
973 2 4.06292 3.80802 3.47998
974 2 6.59605 1.65659 1.47244
975 2 2.2966 4.40433 4.1165
976 2 2.00838 8.01108 8.50601
977 2 5.79591 1.31097 2.08418
978 2 5.75381 3.99141 1.51877
979 2 3.02853 3.74401 7.14642
980 2 0.718552 5.58443 2.06507
981 2 1.61066 7.45451 1.21145
982 2 9.29986 4.20352 0.532325
983 2 6.51933 6.22733 5.24015
984 2 2.64872 0.14713 4.18033
985 2 5.86703 8.59023 3.24112
986 2 4.81999 2.07851 4.69583
987 2 9.07994 1.83668 2.37466
988 2 7.38121 5.75915 5.29732
989 2 2.78477 6.39621 5.67968
990 2 6.47243 1.68445 0.219991
991 2 3.76337 3.99372 5.82266
992 2 9.19844 2.92208 7.75569
993 2 4.25739 5.21219 4.3401
994 2 2.84856 1.71539 6.41568
995 2 2.68071 7.32617 5.66929
996 2 2.21307 7.82787 5.03013
997 2 4.60458 5.19753 2.53282
998 2 6.11561 7.49282 4.17246