#bin. KALJ data file T=0.5

1000 atoms
2 atom types

0 9.4 xlo xhi
0 9.4 ylo yhi
0 9.4 zlo zhi

Masses

1 1.0
2 1.0

Atoms

1 1 2.87256 2.84992 5.74172
2 1 0.737148 2.77441 1.05668
3 1 4.05174 1.16736 2.13997
4 1 6.89385 5.66971 2.37604
5 1 6.95173 7.81375 5.43444
6 1 3.5494 0.917103 2.79788
7 1 8.87023 5.39052 2.07224
8 1 6.08299 3.49116 5.56412
9 1 5.23246 3.10934 6.74761
10 1 4.36887 2.06319 7.7852
11 1 5.18671 8.34174 5.43421
12 1 7.43758 2.62104 5.83854
13 1 2.34566 8.61541 4.39417
14 1 1.30359 2.60489 4.91304
15 1 0.66663 8.71915 8.93251
16 1 4.82864 0.996353 0.0365509
17 1 1.13102 7.04112 7.47493
18 1 0.121307 0.738748 0.435731
19 1 7.26215 8.62484 7.79387
20 1 4.36393 1.37085 1.12729
21 1 7.53348 1.22681 7.09973
22 1 6.23618 7.1898 0.359675
23 1 9.04675 0.12164 8.85923
24 1 1.59358 0.68137 4.07999
25 1 8.38649 7.67815 2.98016
26 1 2.852 0.446346 2.0862
27 1 2.60744 2.61904 2.92692
28 1 9.31108 0.793049 6.65095
29 1 1.1218 8.0469 6.06684
30 1 0.189822 5.73063 1.43702
31 1 4.38265 1.20217 8.52721
32 1 3.20949 5.44294 0.597069
33 1 8.04928 4.45934 8.31926
34 1 6.39688 3.61065 8.27854
35 1 7.67736 7.63988 8.8028
36 1 6.44562 6.4473 5.80127
37 1 3.6313 6.48961 0.0865152
38 1 6.49656 2.28904 0.346377
39 1 4.04785 2.3909 0.107933
40 1 0.924429 4.00323 3.28361
41 1 4.72744 3.50993 4.73367
42 1 1.88587 7.54546 5.82904
43 1 4.62934 5.23594 8.66626
44 1 1.10144 7.35435 9.05891
45 1 3.0717 4.86118 1.46187
46 1 8.75255 4.22484 7.79315
47 1 8.0533 9.1402 2.34269
48 1 7.64685 4.36219 0.088847
49 1 3.06846 9.33006 0.124007
50 1 9.31564 3.28624 1.06547
51 1 3.60657 4.54095 6.2291
52 1 2.3228 6.39937 9.39028
53 1 7.38817 8.7516 9.18186
54 1 8.53301 2.08945 8.44942
55 1 7.89955 8.02958 5.99103
56 1 4.39131 2.90377 2.92728
57 1 7.0354 0.330132 8.09414
58 1 4.22825 0.10249 4.4675
59 1 1.31146 9.34894 2.39484
60 1 7.23475 5.89972 3.20676
61 1 4.32866 0.952568 3.418
62 1 6.01838 5.63671 6.24515
63 1 7.89789 0.271338 7.49854
64 1 2.97025 3.69524 1.9971
65 1 7.7039 6.17496 0.935485
66 1 7.07193 5.73491 7.10293
67 1 8.86195 9.21558 1.84879
68 1 4.79699 4.28417 9.24238
69 1 9.17924 4.26069 8.88852
70 1 6.2358 7.23 5.37815
71 1 0.897243 9.06074 6.38244
72 1 1.7339 5.78675 3.20173
73 1 6.7014 0.428704 6.99134
74 1 0.530466 8.39806 1.20008
75 1 2.92631 1.74951 1.9363
76 1 5.62321 4.46945 0.411019
77 1 3.55699 1.92301 3.22626
78 1 2.36821 3.24195 6.67368
79 1 7.96003 2.19965 4.0893
80 1 7.73251 3.55827 5.48411
81 1 3.02804 4.21129 8.79215
82 1 3.09544 8.9527 5.85408
83 1 -0.0348257 1.96189 5.34799
84 1 4.22298 5.89872 0.651229
85 1 4.71891 5.5957 7.11286
86 1 4.81492 8.00577 3.74227
87 1 3.32776 3.64753 6.14474
88 1 7.66869 8.37916 2.36842
89 1 2.4436 4.86835 0.578568
90 1 7.45941 8.10791 0.577043
91 1 6.44741 5.09331 8.88521
92 1 7.0777 7.86976 1.98398
93 1 7.87906 7.18945 6.51426
94 1 1.33421 6.53816 4.85482
95 1 7.34514 6.73386 5.76115
96 1 5.3491 5.8333 9.08149
97 1 0.425202 2.51694 6.56076
98 1 8.33646 1.4227 6.52569
99 1 7.80665 4.51119 5.56756
100 1 3.0617 3.54114 3.01358
101 1 5.02608 4.32354 4.46339
102 1 1.30156 4.06882 8.57461
103 1 8.73258 1.66347 3.86808
104 1 3.83502 6.08904 7.24062
105 1 1.7576 5.69322 4.86573
106 1 5.34026 9.01719 0.438188
107 1 0.733135 0.264177 9.38876
108 1 7.4783 6.25898 4.15294
109 1 0.700784 4.61045 6.96077
110 1 6.31449 7.60384 7.10061
111 1 0.425225 4.2379 8.04196
112 1 1.8376 1.79957 7.50897
113 1 4.65312 0.210786 2.82321
114 1 8.76037 6.02824 1.26406
115 1 0.714705 7.58324 6.72669
116 1 0.689139 3.39773 4.72244
117 1 0.0765785 5.84093 8.8191
118 1 0.447503 5.35719 2.3154
119 1 3.56227 1.2521 7.65721
120 1 8.13887 6.45147 6.01318
121 1 2.79256 1.98771 5.50798
122 1 1.21369 4.99194 1.92903
123 1 6.44826 3.6322 9.27471
124 1 5.91654 8.37955 4.4309
125 1 6.9261 3.94322 1.86908
126 1 9.05113 8.35143 3.5171
127 1 4.17254 0.727886 6.71977
128 1 7.613 7.07787 1.61291
129 1 5.21389 6.85459 9.20811
130 1 3.98275 5.63079 7.96635
131 1 1.5364 7.80197 7.77398
132 1 2.08061 6.04706 8.43464
133 1 8.49031 4.77127 3.24949
134 1 1.41855 6.65499 0.101289
135 1 0.000324822 4.14152 4.94179
136 1 2.02021 7.09639 8.90951
137 1 8.96557 8.64441 4.65184
138 1 8.68883 1.47832 2.7273
139 1 6.55987 2.76643 5.77253
140 1 6.53645 8.05075 2.82464
141 1 9.19662 2.49767 3.01996
142 1 5.36602 6.54594 6.53368
143 1 8.06664 1.41324 3.31026
144 1 7.71795 2.3553 1.51938
145 1 0.194614 3.30757 3.75553
146 1 7.30055 2.5333 6.84193
147 1 7.69937 6.13313 2.41637
148 1 0.54226 6.34188 7.04535
149 1 1.50922 5.12894 8.88796
150 1 9.06272 5.71451 0.287803
151 1 0.496039 2.52628 9.36679
152 1 6.70759 1.1771 2.4953
153 1 0.356019 8.97066 5.00365
154 1 3.22293 4.86549 9.38976
155 1 1.42254 6.73696 8.31438
156 1 6.03067 8.12102 5.2433
157 1 1.10965 1.3078 4.53005
158 1 8.61194 1.37738 1.65967
159 1 5.18417 7.66334 1.70737
160 1 6.2142 0.0674954 0.170671
161 1 8.989 3.37096 8.27449
162 1 8.75781 3.87002 1.47689
163 1 5.02465 9.26053 8.11157
164 1 0.0677266 6.58602 1.02945
165 1 8.17996 7.68108 1.13166
166 1 4.82712 0.547949 1.85695
167 1 0.373296 3.76387 6.15555
168 1 3.65284 1.10323 5.70847
169 1 8.31126 2.23772 2.69327
170 1 7.83492 4.52982 4.5983
171 1 4.26191 4.24551 3.89988
172 1 8.61797 4.48104 0.218504
173 1 1.90251 9.38038 8.80523
174 1 6.07097 6.7383 4.63491
175 1 1.95932 3.63252 1.68787
176 1 9.22736 6.67807 9.35171
177 1 6.97235 0.474229 1.62014
178 1 6.08817 5.61086 7.45365
179 1 1.42179 8.69245 4.31425
180 1 2.5067 7.46691 4.88397
181 1 3.40152 4.89351 5.0901
182 1 2.15279 0.0400203 5.85412
183 1 7.80353 4.98121 6.42194
184 1 6.76475 6.45362 0.598809
185 1 0.380637 6.21659 8.02422
186 1 7.26159 3.20612 9.40069
187 1 4.62848 6.30479 3.72213
188 1 1.35964 9.09975 0.168886
189 1 7.50173 1.8743 8.9303
190 1 4.7056 2.08066 1.55665
191 1 1.53208 3.30817 0.8861
192 1 8.52852 0.74212 8.12471
193 1 5.7531 8.32221 8.46793
194 1 1.59563 7.47853 6.77916
195 1 5.82994 1.46388 6.76295
196 1 1.73585 7.81798 1.93697
197 1 2.51641 6.81548 0.861452
198 1 0.0719269 1.61381 7.05369
199 1 6.13586 2.77726 4.98282
200 1 3.62394 0.79228 8.95897
201 1 3.56975 1.04334 0.680136
202 1 0.893662 0.705072 8.26269
203 1 5.24815 1.34516 1.46001
204 1 3.63242 1.09688 3.88755
205 1 4.52731 0.294245 6.03968
206 1 7.62748 0.152698 3.65616
207 1 2.84326 4.28593 4.71334
208 1 7.08482 1.85775 4.47268
209 1 5.22202 6.58202 7.50473
210 1 2.19475 8.27863 7.39648
211 1 7.15233 6.15551 1.59071
212 1 1.37279 6.2266 6.45171
213 1 5.82549 4.18232 8.65264
214 1 5.68884 7.57977 8.03881
215 1 8.7274 3.90904 2.61523
216 1 3.53382 1.90821 8.37759
217 1 3.06113 0.704674 5.00688
218 1 8.15527 5.29348 3.93711
219 1 3.21475 7.31971 0.157647
220 1 6.32628 4.72765 2.65933
221 1 6.22794 4.67891 1.14488
222 1 0.662244 1.92682 8.66605
223 1 3.27304 8.23389 4.72334
224 1 1.75466 7.36283 0.772931
225 1 8.99388 1.61869 9.15718
226 1 8.55865 9.00631 8.20307
227 1 7.33508 8.66799 3.84681
228 1 1.68517 4.49186 2.96165
229 1 8.08529 8.85521 6.99033
230 1 4.73109 1.8652 0.423254
231 1 6.76478 5.9549 8.37358
232 1 5.58172 3.394 4.82116
233 1 0.0026943 9.36977 7.98472
234 1 2.00137 1.68504 0.885258
235 1 5.22199 3.02617 1.28443
236 1 3.99938 6.36782 1.84442
237 1 2.20974 2.30992 0.329894
238 1 8.30415 8.16464 3.88531
239 1 6.09691 0.643988 6.35343
240 1 6.73758 4.79034 1.90291
241 1 3.38479 1.11613 6.69141
242 1 8.3874 0.837973 0.955246
243 1 4.18649 2.79843 0.971368
244 1 1.79092 1.35903 6.59545
245 1 4.24881 5.48237 3.76703
246 1 1.74075 6.68701 5.59785
247 1 6.76984 5.45553 0.202984
248 1 7.80314 2.50548 4.96103
249 1 7.82937 4.01536 6.26794
250 1 3.31217 5.88175 2.24754
251 1 8.34696 3.5493 4.87173
252 1 0.816627 6.19925 2.05239
253 1 8.82941 4.80157 5.42538
254 1 0.438227 7.01272 2.11833
255 1 7.47885 3.71057 7.12555
256 1 2.56905 0.380674 1.03888
257 1 4.64049 7.59318 4.51017
258 1 4.58962 1.84946 6.82231
259 1 1.00892 3.89503 7.33028
260 1 2.26345 1.54564 8.8077
261 1 4.45757 3.29652 3.93494
262 1 4.09931 8.87174 8.96714
263 1 8.19288 8.99772 3.40838
264 1 2.44048 7.73435 1.08784
265 1 9.35547 9.20235 6.69858
266 1 0.0947436 6.32185 5.05777
267 1 3.86725 7.74283 0.70709
268 1 3.68566 2.02646 6.94293
269 1 0.714624 8.13896 4.92758
270 1 0.983576 3.25849 5.6327
271 1 8.35321 6.82893 8.63433
272 1 3.79353 5.75424 5.53456
273 1 4.60915 0.0908725 1.13211
274 1 0.383138 9.33541 1.12327
275 1 0.912822 5.51731 3.0325
276 1 7.36518 6.73562 8.40775
277 1 0.195841 1.66307 4.15901
278 1 5.85683 4.78874 7.75962
279 1 6.03002 8.4239 1.86939
280 1 8.35221 4.21577 6.98951
281 1 8.30968 0.560899 1.82661
282 1 4.44413 8.71702 3.17578
283 1 1.62969 7.13819 2.54174
284 1 4.27856 7.31345 3.13943
285 1 3.95327 3.07309 4.85511
286 1 5.71628 5.23212 2.99707
287 1 7.04624 3.3596 6.34542
288 1 7.36871 7.87956 4.53199
289 1 2.64076 6.77076 2.23502
290 1 6.84082 2.36628 8.68536
291 1 0.282342 8.23581 2.74256
292 1 3.23066 8.60139 7.52639
293 1 2.54966 8.39464 1.67413
294 1 0.152507 0.972221 8.7487
295 1 5.35178 4.76785 1.29475
296 1 6.04897 8.88405 2.79043
297 1 2.09297 1.90709 4.73671
298 1 0.201385 3.72016 1.78362
299 1 7.3184 4.28225 2.72144
300 1 5.5809 6.42121 5.65923
301 1 6.0707 7.49096 1.93512
302 1 7.14913 8.88456 6.90988
303 1 5.37889 6.7763 8.34593
304 1 2.97651 4.92221 6.78548
305 1 1.8102 0.78992 1.24751
306 1 7.03117 9.38327 6.24728
307 1 8.004 3.67577 7.87125
308 1 3.16805 7.5758 3.99162
309 1 6.18038 6.47797 6.97013
310 1 8.20788 5.5578 5.59382
311 1 7.28778 2.99994 2.47218
312 1 5.27076 2.48361 8.32517
313 1 8.06016 7.83662 5.10519
314 1 4.88746 5.04595 7.81787
315 1 0.881255 4.31145 5.29285
316 1 8.42903 8.46828 0.327062
317 1 4.72211 8.19944 2.47051
318 1 0.921063 0.928 2.6224
319 1 6.93501 4.31419 6.35334
320 1 0.755102 2.49538 2.7935
321 1 6.32488 1.61782 4.04996
322 1 8.53819 2.94316 5.45015
323 1 1.62926 3.76688 4.97224
324 1 5.56244 8.07399 7.38109
325 1 6.09046 1.72116 1.16631
326 1 0.334792 1.17136 5.9297
327 1 4.74274 9.33609 7.01779
328 1 8.95064 0.855963 4.32408
329 1 5.75064 3.13501 3.48841
330 1 5.01175 4.85114 2.19532
331 1 5.68631 2.70638 5.90202
332 1 2.23473 4.46894 8.04301
333 1 2.20083 3.79303 8.64912
334 1 9.17508 2.53662 3.96726
335 1 4.68298 6.44618 5.51296
336 1 9.21893 9.19232 2.88497
337 1 1.94279 8.38623 3.65579
338 1 1.21315 4.12249 1.47324
339 1 5.77738 5.42016 0.420324
340 1 6.75585 5.25252 5.71609
341 1 0.264605 5.52656 5.30253
342 1 6.19092 7.16537 8.76367
343 1 8.35268 6.79663 2.59866
344 1 4.9266 8.68686 1.43888
345 1 2.78604 7.87297 2.45191
346 1 7.5413 4.51868 1.22338
347 1 7.65215 4.82481 7.36544
348 1 1.20576 6.83054 3.99032
349 1 3.4851 6.95373 1.06312
350 1 0.673374 0.955335 3.62523
351 1 6.91496 1.00367 8.64083
352 1 6.06554 0.750032 1.5327
353 1 7.05127 8.25497 6.1915
354 1 5.48259 2.27036 1.04408
355 1 8.46905 5.19861 7.7782
356 1 3.22437 2.96547 6.78405
357 1 6.316 2.42181 7.2063
358 1 5.07289 7.03475 3.92077
359 1 2.65012 4.31651 2.77822
360 1 2.56362 3.28894 3.71032
361 1 0.399142 7.39328 3.02985
362 1 7.65815 2.30306 8.16579
363 1 4.88415 0.140978 8.95398
364 1 4.2248 8.33526 4.77521
365 1 5.02475 2.28061 2.71614
366 1 5.53671 8.12971 6.48737
367 1 9.249 5.1203 2.87307
368 1 8.91521 3.76529 5.74659
369 1 3.62427 3.52655 7.65756
370 1 6.20289 6.01303 2.99142
371 1 5.67607 0.5253 2.33552
372 1 2.00706 4.18377 7.21502
373 1 7.75417 5.38524 0.439923
374 1 5.28895 3.35011 8.82982
375 1 9.25133 5.37339 6.81591
376 1 8.31891 3.33947 6.40816
377 1 2.57962 1.40956 0.201365
378 1 7.00769 3.199 4.96571
379 1 3.3908 2.94396 0.516137
380 1 4.46437 1.7673 3.1839
381 1 2.84338 2.44877 1.0619
382 1 8.73617 0.131439 7.38671
383 1 3.57796 5.79188 1.36494
384 1 6.26609 8.58977 5.98758
385 1 6.83879 5.06989 7.76593
386 1 1.14566 5.95234 5.63644
387 1 5.68582 9.03708 8.88855
388 1 3.74818 1.96413 0.997432
389 1 8.29276 5.56947 6.81102
390 1 6.61998 2.94804 3.19101
391 1 4.10037 5.06987 2.29432
392 1 0.627228 8.73856 7.62481
393 1 3.60479 2.87194 3.40034
394 1 7.5833 5.35276 1.9085
395 1 1.21679 8.84776 5.6316
396 1 6.9768 4.17422 7.83879
397 1 2.45178 7.54264 6.97441
398 1 5.11715 1.57892 7.93638
399 1 0.672252 7.9867 2.04734
400 1 2.85647 0.248494 7.80927
401 1 2.38196 0.868182 7.1632
402 1 5.58849 0.201099 3.10912
403 1 5.29958 0.740503 8.32992
404 1 1.50715 5.00863 7.65379
405 1 3.25636 6.79848 4.44674
406 1 0.831728 3.95539 0.730718
407 1 7.28989 8.93581 2.98667
408 1 3.4809 4.53072 2.974
409 1 6.91458 3.94393 5.49472
410 1 7.11643 0.207828 4.55963
411 1 1.46024 1.91817 9.13509
412 1 8.23795 1.44436 4.65415
413 1 3.54464 8.38201 8.34753
414 1 9.12241 2.61656 0.522891
415 1 5.81698 0.572371 7.53156
416 1 3.73074 3.3227 8.83925
417 1 6.21146 7.51669 6.20464
418 1 3.9611 5.96438 3.11648
419 1 9.12241 5.10019 0.886249
420 1 0.630483 7.24933 0.594607
421 1 9.05743 3.43983 0.0157295
422 1 7.0065 7.17933 3.9428
423 1 2.03279 7.60832 4.1037
424 1 7.06939 1.80158 0.909804
425 1 2.16423 4.55897 6.34541
426 1 7.55571 5.73336 6.27113
427 1 0.0495663 8.43458 8.28003
428 1 2.50189 8.77793 0.684931
429 1 1.11433 6.65916 3.02152
430 1 8.95812 0.0954662 0.838669
431 1 3.64721 5.44404 6.49124
432 1 5.32152 8.95967 6.24967
433 1 2.91196 3.34589 8.21566
434 1 6.08582 8.51485 0.539718
435 1 1.84804 3.27139 7.64223
436 1 0.305393 8.31811 6.53006
437 1 6.93397 4.84385 3.56438
438 1 8.58052 9.35847 4.16551
439 1 0.325529 1.20497 5.02556
440 1 3.38292 3.00717 1.41085
441 1 2.98874 3.99606 7.05677
442 1 5.18469 4.10923 5.3605
443 1 3.35746 1.73561 4.87429
444 1 5.12259 2.71992 0.286758
445 1 2.05369 3.91805 0.434856
446 1 8.65388 0.865118 3.50866
447 1 3.79394 0.170954 3.50641
448 1 7.46761 0.207399 5.42399
449 1 5.07697 8.06203 0.655919
450 1 8.24748 7.43735 0.120444
451 1 0.929774 1.09525 6.69202
452 1 5.14455 3.77295 3.70199
453 1 4.79378 5.73502 2.16651
454 1 8.7473 7.94864 5.58613
455 1 5.15319 0.801262 6.55483
456 1 2.56934 4.11773 1.15989
457 1 5.37899 6.84632 2.28989
458 1 8.12646 3.67745 9.05986
459 1 2.10884 1.00799 8.00104
460 1 2.97624 3.99092 0.279351
461 1 2.52909 3.41465 4.56254
462 1 5.53214 9.05395 7.37028
463 1 2.01982 7.02048 1.63576
464 1 4.76829 0.037629 3.77611
465 1 2.23165 4.51373 9.08269
466 1 6.02999 1.88756 8.81861
467 1 1.44236 8.71753 8.10283
468 1 6.66566 8.08417 9.37352
469 1 8.04691 9.28347 1.09406
470 1 2.78517 0.0531989 6.7293
471 1 1.31697 3.86393 4.02533
472 1 6.7064 3.80638 0.752482
473 1 2.15934 2.78386 5.2006
474 1 3.12797 6.4182 3.5196
475 1 8.99201 2.61477 9.02494
476 1 8.70207 7.02095 5.43099
477 1 8.68301 0.798144 0.0805013
478 1 2.97107 4.29268 3.63619
479 1 1.68773 9.10237 7.24843
480 1 7.63937 1.08597 4.04316
481 1 3.14602 4.45883 7.85469
482 1 0.5089 4.99477 3.69145
483 1 4.27195 4.92225 5.60434
484 1 1.6198 8.23346 5.0762
485 1 8.31613 8.46485 1.49231
486 1 4.21053 3.48146 1.49602
487 1 0.784885 0.17794 7.38333
488 1 6.58478 7.64717 4.61005
489 1 5.05894 3.57057 0.438842
490 1 4.0008 1.50298 9.36211
491 1 8.11964 3.15129 0.386044
492 1 2.02678 5.65969 5.96604
493 1 4.67903 3.78593 6.4444
494 1 1.47934 0.900435 8.90293
495 1 9.36777 1.60691 7.96908
496 1 0.188209 2.81652 5.32469
497 1 1.2614 8.64345 1.80306
498 1 1.82008 2.17312 3.19478
499 1 6.88539 7.01985 6.6322
500 1 2.12696 4.46732 2.00799
501 1 8.69291 5.50691 4.86833
502 1 8.96885 6.07084 7.40097
503 1 5.51967 7.6043 4.67086
504 1 7.07461 1.96384 3.53327
505 1 3.95019 3.76436 3.19182
506 1 4.5257 0.96716 7.60346
507 1 3.62591 8.07837 3.07683
508 1 8.96682 2.25782 1.91216
509 1 5.25918 4.28429 6.9501
510 1 0.496084 5.02578 9.33476
511 1 8.159 4.05049 0.83036
512 1 0.165249 8.35197 5.6634
513 1 6.65719 7.053 1.24205
514 1 1.01808 7.44865 1.44116
515 1 2.13977 4.23646 4.08025
516 1 6.94364 7.67383 8.05303
517 1 5.83139 5.1981 1.95527
518 1 2.6955 8.677 9.20593
519 1 4.7794 7.14017 6.15389
520 1 4.40924 2.68295 6.70419
521 1 1.30347 7.51832 4.54893
522 1 3.69093 9.29122 5.17198
523 1 0.080636 0.206961 3.7342
524 1 6.06742 3.19537 1.49413
525 1 2.81044 8.15513 5.57612
526 1 7.5534 3.35969 3.32163
527 1 8.42245 5.60355 2.88501
528 1 6.57642 0.312344 2.51028
529 1 0.770644 5.46112 7.05916
530 1 8.3333 2.26342 0.143405
531 1 4.6105 1.70308 4.18202
532 1 0.863937 4.96424 8.31491
533 1 1.18492 0.970094 5.82932
534 1 5.8932 1.94403 7.83094
535 1 3.60872 2.47774 4.22759
536 1 3.27881 7.4478 1.7471
537 1 5.84297 3.28202 7.43029
538 1 5.83478 6.67021 1.26786
539 1 2.35503 5.02765 7.35374
540 1 5.9562 4.32067 3.52379
541 1 8.82491 6.60244 6.66038
542 1 9.32588 0.804496 2.66174
543 1 2.23377 6.71551 4.20024
544 1 9.33189 4.15809 3.28767
545 1 7.46082 5.1256 8.99717
546 1 0.575577 7.72925 3.92785
547 1 5.12972 0.170636 4.63413
548 1 0.431918 3.3951 8.69869
549 1 4.4317 7.13523 1.38721
550 1 8.68732 7.40931 6.27266
551 1 7.03081 5.4362 4.26834
552 1 6.14931 3.72097 2.77498
553 1 9.29517 0.680909 1.52467
554 1 5.42294 3.81406 7.90042
555 1 2.90286 6.89539 8.60348
556 1 5.70365 2.38777 1.97146
557 1 1.60848 0.140907 3.31656
558 1 2.54535 2.26486 3.91282
559 1 4.60058 5.22896 1.26366
560 1 6.26564 8.29981 7.82561
561 1 4.26943 8.74721 0.516676
562 1 4.11101 1.86579 6.0136
563 1 8.72782 4.04741 3.98453
564 1 0.416342 6.68381 6.27758
565 1 4.05842 0.244761 0.372232
566 1 1.24328 7.85138 3.13173
567 1 9.22672 7.51818 1.40769
568 1 3.4714 4.07486 1.11471
569 1 7.33757 8.7113 5.23683
570 1 1.23037 2.01473 6.8336
571 1 4.25029 3.85052 5.65437
572 1 5.50187 7.80928 9.31879
573 1 0.287765 7.64685 9.16972
574 1 5.77743 3.92688 1.05537
575 1 6.75145 1.58551 9.36374
576 1 7.00593 8.9137 0.539666
577 1 3.65557 6.9642 7.73893
578 1 0.320607 6.15664 3.38735
579 1 4.6933 7.46828 7.28316
580 1 0.927094 2.30691 1.82889
581 1 0.571736 4.2369 4.17849
582 1 6.11943 1.1612 8.13182
583 1 2.32536 0.922719 3.60385
584 1 5.02047 0.896099 4.14553
585 1 2.15629 9.39867 3.97778
586 1 9.35837 6.29008 2.27858
587 1 1.65797 2.89447 6.17154
588 1 3.81043 4.91138 8.57637
589 1 0.519951 6.14976 0.417984
590 1 3.95275 4.23044 4.83351
591 1 1.991 5.31552 2.42481
592 1 3.7964 6.21356 4.07731
593 1 5.43803 4.97924 8.87029
594 1 5.31452 0.648496 0.742434
595 1 0.359527 7.88277 7.58312
596 1 8.93428 1.20711 5.44651
597 1 9.08903 7.6229 7.00374
598 1 1.14006 5.50473 0.3426
599 1 6.74198 0.0694045 3.59944
600 1 5.45037 1.70771 3.70452
601 1 3.89718 3.85745 0.350599
602 1 5.88052 6.392 0.346798
603 1 9.27834 4.61174 1.99356
604 1 3.99106 9.27787 2.01056
605 1 7.53168 1.7773 6.33828
606 1 1.40889 4.56108 0.191628
607 1 3.29237 5.38625 7.50273
608 1 5.62781 1.63626 0.238453
609 1 4.11145 7.81593 6.48908
610 1 5.39273 7.29816 2.99381
611 1 0.641326 0.246961 3.03788
612 1 7.42954 3.78099 4.247
613 1 2.06702 1.05316 5.16606
614 1 4.07936 7.06686 4.00059
615 1 4.67426 9.10197 5.395
616 1 2.90628 1.79885 7.31168
617 1 6.23174 3.61682 4.10829
618 1 6.24358 9.10273 1.28978
619 1 5.35635 0.526176 5.64594
620 1 7.46355 1.15698 1.54052
621 1 1.02226 7.31912 5.37238
622 1 5.89532 4.20145 2.12673
623 1 6.85363 0.956733 3.50452
624 1 7.37354 7.06873 4.83674
625 1 8.65035 1.20968 7.25981
626 1 7.27844 5.99106 9.05983
627 1 5.3379 5.79888 1.35414
628 1 1.13678 5.91229 8.67122
629 1 6.43401 0.44364 5.45648
630 1 1.34279 5.67031 1.31177
631 1 9.1117 8.49076 7.30718
632 1 2.14867 2.45929 8.50993
633 1 6.88249 6.22034 4.92658
634 1 1.37992 9.21097 1.05638
635 1 2.6775 8.49039 6.65952
636 1 2.67792 6.68917 7.41786
637 1 3.17837 5.73958 4.70677
638 1 9.29273 8.43759 1.83327
639 1 5.18845 8.99961 2.32847
640 1 1.40191 2.59236 0.339862
641 1 3.97961 5.52087 9.2979
642 1 3.09128 7.69171 7.81545
643 1 6.49217 9.16318 7.60497
644 1 8.09987 0.461444 4.65825
645 1 0.752271 5.01941 1.04134
646 1 4.38171 6.43486 7.84139
647 1 9.08519 6.08813 5.86016
648 1 4.33118 2.56914 8.70277
649 1 6.08409 5.75153 5.19631
650 1 4.03237 4.83091 0.548371
651 1 9.30349 6.89673 7.70275
652 1 9.09235 8.65469 0.953615
653 1 5.14442 4.4575 3.09049
654 1 8.778 7.1039 0.667848
655 1 6.01913 0.618059 3.83388
656 1 9.05179 3.83433 6.75789
657 1 4.09014 4.50497 7.77209
658 1 7.17468 6.89882 7.54499
659 1 0.878861 5.06654 4.67263
660 1 2.91647 5.76346 6.05107
661 1 5.59271 5.80093 3.8509
662 1 8.50934 6.86233 1.593
663 1 1.94745 0.0882915 1.76232
664 1 5.6415 2.46781 4.25163
665 1 2.3099 2.53855 7.31111
666 1 9.16893 8.33853 9.07704
667 1 2.83065 7.82455 8.71702
668 1 5.04732 1.3558 4.98142
669 1 3.3597 7.67347 6.97731
670 1 7.26974 7.84832 3.34344
671 1 7.14793 0.550982 0.757718
672 1 5.55403 3.25941 2.2656
673 1 1.19676 2.8029 8.8227
674 1 5.45344 7.5064 5.64343
675 1 4.60922 5.75213 6.12295
676 1 2.26617 5.82021 3.98945
677 1 7.83522 1.30261 0.37387
678 1 4.58661 6.22388 8.70885
679 1 1.53894 8.28319 0.982954
680 1 3.12033 5.76374 9.17118
681 1 6.07388 5.08556 3.9828
682 1 7.76965 2.51152 3.31933
683 1 4.85605 8.154 7.97116
684 1 1.82982 1.275 2.95322
685 1 3.50578 4.34271 2.07406
686 1 1.16843 3.12441 1.80253
687 1 6.46954 4.03686 7.09585
688 1 3.98551 0.232186 7.50546
689 1 0.23878 1.50578 2.0634
690 1 7.19351 2.0924 2.59424
691 1 4.99176 4.59059 6.10989
692 1 3.61699 7.14107 6.12211
693 1 7.49339 3.54118 1.26578
694 1 6.91244 3.21146 7.60577
695 1 0.168638 4.568 5.87406
696 1 6.88859 8.89388 2.09742
697 1 7.50136 0.397932 2.66145
698 1 7.91759 0.674368 9.07627
699 1 4.84513 1.52206 2.21087
700 1 8.99963 3.08242 7.20192
701 1 2.96511 0.884466 8.38647
702 1 5.91033 2.67203 9.18051
703 1 2.73671 1.01438 6.01036
704 1 7.48795 7.1666 2.59006
705 1 1.21927 4.43984 6.15583
706 1 5.1027 5.85079 8.04135
707 1 8.99526 5.01924 8.46201
708 1 3.48664 6.68065 2.63303
709 1 2.60146 5.24568 5.30665
710 1 6.51607 1.46605 4.94941
711 1 9.03888 7.29658 2.4164
712 1 2.71941 8.72301 3.1535
713 1 3.26714 5.3686 3.44113
714 1 1.80188 2.60682 2.39078
715 1 5.18697 0.927205 3.12176
716 1 9.15696 7.27621 8.47204
717 1 5.7816 9.13865 4.95826
718 1 7.94941 0.994841 5.69406
719 1 3.05865 8.95926 2.13901
720 1 4.16917 7.50784 2.15174
721 1 8.24127 1.84418 5.43067
722 1 2.47248 3.15353 0.758119
723 1 2.6773 8.59063 8.17307
724 1 4.18031 8.17185 1.52652
725 1 4.60957 7.73507 9.39057
726 1 1.87387 2.05114 5.62156
727 1 2.48749 5.80276 6.7977
728 1 2.45245 6.24807 4.98455
729 1 6.11172 2.13587 3.09854
730 1 0.934432 1.8907 5.66287
731 1 6.28169 5.8538 1.33314
732 1 4.16556 8.7463 7.76634
733 1 2.08843 6.55423 3.01133
734 1 2.26508 7.26571 8.03747
735 1 2.04324 1.70819 2.01607
736 1 1.88543 8.44846 8.98884
737 1 2.34994 4.98408 3.39493
738 1 5.73407 3.76087 6.27161
739 1 8.74969 8.61461 6.28881
740 1 4.67875 3.70312 2.61831
741 1 2.7175 7.38128 6.15446
742 1 0.0458886 2.55385 8.21356
743 1 1.30568 3.91495 2.35685
744 1 1.24087 1.76305 2.47378
745 1 5.32955 2.23478 7.22849
746 1 7.86359 1.30631 7.88715
747 1 1.10286 8.40084 6.94917
748 1 4.4432 5.36704 4.7345
749 1 6.94125 6.7226 3.07442
750 1 8.28803 2.93795 8.56048
751 1 5.65368 9.15992 4.01015
752 1 2.24844 5.4788 9.21144
753 1 5.98114 1.37714 5.78028
754 1 0.925609 3.14345 7.92436
755 1 2.36447 2.32907 6.41356
756 1 6.6893 8.66208 4.61751
757 1 7.0214 5.39343 1.07474
758 1 2.99656 6.39144 1.47557
759 1 9.08867 0.30109 5.1175
760 1 1.47774 0.683939 7.3544
761 1 7.16624 4.06691 8.83665
762 1 2.34418 7.75923 0.0877741
763 1 9.08577 1.94602 6.18856
764 1 3.00428 4.27393 5.59564
765 1 6.42521 8.54513 3.57195
766 1 3.88629 3.58261 6.80137
767 1 3.45789 9.19651 1.0169
768 1 3.34429 2.63072 7.80264
769 1 6.35927 2.93586 2.31528
770 1 8.21378 6.44879 0.199386
771 1 5.76774 0.831382 9.30058
772 1 4.66847 7.64004 5.35627
773 1 3.10027 6.06693 8.04904
774 1 3.58588 4.7927 4.18114
775 1 4.20375 0.33518 8.42106
776 1 7.32248 3.32703 8.38821
777 1 9.23968 7.82069 4.75112
778 1 0.387689 2.43117 7.42049
779 1 0.051598 3.33568 2.59087
780 1 5.20764 7.13767 0.852379
781 1 1.86315 5.98927 0.706499
782 1 1.3499 2.9566 3.22056
783 1 4.73231 8.40658 6.97004
784 1 6.22788 2.99037 6.54366
785 1 4.34625 4.81694 6.92172
786 1 1.70724 2.47565 1.3691
787 1 8.66447 2.21375 4.63115
788 1 4.5319 3.5686 8.45049
789 1 5.35518 8.57096 3.36235
790 1 4.68145 2.95002 2.0454
791 1 4.41217 4.44686 1.7459
792 1 4.16873 0.973285 4.95557
793 1 9.00272 5.54495 3.81629
794 1 0.248981 3.5809 7.5612
795 1 6.40566 4.92405 6.9547
796 1 4.72531 2.59882 4.76443
797 1 1.00017 0.886097 0.784086
798 1 7.54527 5.17166 2.88253
799 1 8.20819 2.29914 6.36762
800 1 6.27008 0.261186 8.51315
801 2 2.63063 5.07707 4.37663
802 2 3.72295 8.92489 6.90521
803 2 0.112097 9.03784 0.185142
804 2 2.58996 2.93416 1.84555
805 2 6.47166 4.53794 0.268988
806 2 8.59118 7.99332 8.06393
807 2 2.83463 2.62716 4.68126
808 2 1.81928 1.5338 3.93397
809 2 9.07519 7.51251 3.74478
810 2 3.96593 2.93225 5.94707
811 2 8.14396 9.22118 9.33959
812 2 6.16862 6.46147 7.8276
813 2 7.65709 4.36403 3.58475
814 2 1.60931 5.24119 6.63946
815 2 5.39249 5.36458 5.68236
816 2 7.96335 4.09596 2.09184
817 2 5.76922 1.88885 5.0244
818 2 4.70857 1.16063 5.7606
819 2 8.48313 9.05795 5.31112
820 2 5.5225 5.19834 6.7799
821 2 7.13883 1.80256 5.53395
822 2 6.15148 2.69535 8.16669
823 2 8.15159 5.94339 8.6363
824 2 7.45706 5.17265 5.0928
825 2 7.84706 1.36825 2.42433
826 2 2.8256 5.14788 8.45107
827 2 1.63303 4.82 0.988269
828 2 6.00103 5.61852 8.33131
829 2 6.01289 0.667715 4.71316
830 2 1.45152 4.92438 4.05434
831 2 6.07068 1.17779 3.15916
832 2 5.1119 3.84993 1.73515
833 2 6.552 6.23812 3.8863
834 2 7.43337 8.56026 1.49
835 2 9.28204 4.84661 4.3596
836 2 7.36123 1.05081 4.88498
837 2 4.94102 8.60253 9.0992
838 2 8.75871 1.54849 0.670245
839 2 0.592856 7.03757 8.45691
840 2 8.38924 3.06325 3.12674
841 2 2.45972 5.4916 1.45537
842 2 3.92653 7.82527 7.776
843 2 6.67545 8.11776 1.16209
844 2 4.82968 7.51024 8.57713
845 2 7.03893 0.894419 6.19887
846 2 6.84529 2.74019 1.56655
847 2 0.874861 8.00552 8.3605
848 2 0.554473 2.52407 4.48909
849 2 5.39369 0.0223604 1.40266
850 2 8.73632 2.3083 7.62888
851 2 8.25427 7.63109 1.92074
852 2 6.59766 8.83809 8.87045
853 2 4.19215 8.73819 6.04814
854 2 3.88448 8.35633 3.9532
855 2 1.33 5.93908 7.66983
856 2 1.42999 0.314983 6.55581
857 2 1.98396 8.77694 2.56092
858 2 4.25075 1.85085 5.10324
859 2 6.83765 6.76125 2.15425
860 2 2.6502 5.82119 2.99357
861 2 0.778013 1.2086 9.38962
862 2 8.21436 3.10265 2.16808
863 2 3.75774 8.05661 5.6319
864 2 4.97246 2.13082 5.60391
865 2 6.60636 1.86451 1.89617
866 2 2.28854 0.0659793 4.9371
867 2 1.12861 1.35646 1.54623
868 2 8.39449 7.21571 4.25787
869 2 5.32682 6.22813 3.00416
870 2 8.91813 6.25241 8.31177
871 2 3.07349 7.37812 3.07888
872 2 4.30632 6.55863 4.64227
873 2 3.7956 8.40689 2.30398
874 2 6.85494 4.50392 4.5859
875 2 1.6574 4.9089 5.47649
876 2 2.06123 0.150822 0.336549
877 2 7.10365 0.231861 9.15057
878 2 4.97527 8.70612 4.46214
879 2 2.81964 1.20398 1.26231
880 2 5.21478 5.08644 4.86534
881 2 8.36264 5.22959 9.13237
882 2 4.85575 2.57447 3.81494
883 2 0.355743 9.27461 2.13795
884 2 2.24956 3.35477 2.50374
885 2 9.19635 6.76484 4.28862
886 2 3.60928 8.10774 9.34237
887 2 3.27982 1.85993 0.101006
888 2 5.93038 4.29466 4.63289
889 2 2.87656 5.00713 2.32705
890 2 0.600847 4.16176 9.25235
891 2 9.13356 3.29257 4.50817
892 2 7.97173 6.41089 5.02092
893 2 0.14015 2.18081 1.18274
894 2 7.59356 7.08127 0.685074
895 2 6.8666 3.81022 3.33654
896 2 8.28478 0.351851 2.94477
897 2 2.10089 0.39904 2.57397
898 2 8.17935 6.42651 7.89887
899 2 3.39208 3.49347 4.16322
900 2 2.79301 1.33411 4.2488
901 2 0.382846 8.75741 3.90458
902 2 0.621188 5.3211 6.17727
903 2 4.5357 6.69379 2.50987
904 2 0.435894 7.14499 4.74842
905 2 3.73423 3.43809 2.28441
906 2 4.86151 3.27744 5.70223
907 2 6.88074 2.76842 4.11159
908 2 6.60901 1.84587 6.41025
909 2 6.07604 6.13943 2.13221
910 2 8.05352 1.92481 7.24314
911 2 7.99381 6.34469 3.42262
912 2 1.17777 3.00225 6.9939
913 2 2.69201 1.55185 2.83137
914 2 6.30815 1.06412 0.527154
915 2 6.06879 4.58496 5.77327
916 2 7.56019 5.60174 7.91819
917 2 8.91889 6.57151 3.43737
918 2 1.93863 0.0978969 7.90182
919 2 7.95386 8.69371 4.61335
920 2 8.3265 2.98219 4.06549
921 2 4.33372 6.84839 0.579689
922 2 0.197874 5.03316 7.61312
923 2 6.29313 6.36097 9.01147
924 2 0.430816 5.78789 4.40406
925 2 8.49572 6.13458 4.25811
926 2 4.92661 4.42589 8.41247
927 2 3.13578 2.66398 8.83408
928 2 2.38246 0.746869 9.02532
929 2 0.938551 2.06474 3.80121
930 2 6.2644 7.18793 2.78266
931 2 1.1473 5.8313 3.85041
932 2 1.01307 0.304317 5.17996
933 2 7.15118 7.14455 9.38009
934 2 1.84434 2.78886 4.27538
935 2 4.7029 2.84504 7.72319
936 2 0.958852 8.79622 3.06924
937 2 9.37047 4.11616 0.688354
938 2 5.57446 8.09792 2.49356
939 2 0.582081 4.54234 2.6689
940 2 3.38808 9.24611 4.18132
941 2 4.28902 4.88748 3.19208
942 2 8.33308 8.0433 7.07229
943 2 7.76443 6.39877 7.01732
944 2 2.28507 6.69356 6.45075
945 2 0.95595 1.48504 7.48191
946 2 1.16697 2.33806 7.88323
947 2 7.32437 7.81403 7.11902
948 2 0.153939 7.3809 5.6138
949 2 1.26834 6.55726 1.07149
950 2 8.68017 8.28985 2.42336
951 2 4.85883 5.23816 0.275501
952 2 2.31826 3.75341 5.63386
953 2 0.944004 0.43012 1.68369
954 2 1.85362 8.77963 6.42616
955 2 0.147467 1.61084 3.01825
956 2 3.793 0.535016 1.43671
957 2 5.0061 4.94057 3.82131
958 2 3.53711 2.44635 5.32682
959 2 0.678055 0.324078 4.33127
960 2 9.33514 7.90105 0.55367
961 2 8.48927 2.71587 1.25195
962 2 8.3373 5.00272 1.48834
963 2 2.03005 3.10578 9.23333
964 2 8.00053 3.00146 7.29432
965 2 0.777758 8.20636 0.222886
966 2 5.93985 7.39193 3.69882
967 2 0.79056 3.34397 0.116696
968 2 1.75722 6.16628 1.98383
969 2 4.3949 6.57173 6.82397
970 2 0.411332 0.228142 5.95322
971 2 5.86747 1.52039 2.39251
972 2 7.85793 7.38246 7.84738
973 2 8.19642 8.35653 8.8175
974 2 5.93375 3.12582 0.665209
975 2 6.10162 9.23361 6.78657
976 2 4.74367 4.23447 0.875847
977 2 1.85317 3.72296 3.26777
978 2 7.8064 0.0971139 8.35108
979 2 6.58293 1.29711 7.29722
980 2 1.3953 1.65751 8.275
981 2 3.8322 2.31523 2.00346
982 2 3.27843 9.26862 8.61303
983 2 8.69481 0.359025 6.00948
984 2 3.63823 7.47095 8.60206
985 2 7.92508 7.20913 3.57182
986 2 2.11496 7.61323 3.19851
987 2 8.69501 4.92998 6.29109
988 2 0.912496 1.86461 0.785115
989 2 9.13237 2.94192 6.32253
990 2 4.59185 3.66278 7.36562
991 2 3.12625 1.87905 6.31641
992 2 3.19374 3.50541 5.20674
993 2 7.94785 0.558287 6.65114
994 2 3.79006 6.52203 8.56296
995 2 5.18397 6.1772 4.70198
996 2 3.65047 7.52501 4.90751
997 2 5.94965 7.72634 0.985262
998 2 7.96595 9.016 6.14464
999 2 3.26643 6.63081 5.3496