#bin. KALJ data file T=0.5

1000 atoms
2 atom types

0 9.4 xlo xhi
0 9.4 ylo yhi
0 9.4 zlo zhi

Masses

1 1.0
2 1.0

Atoms

1 1 8.73423 9.32029 5.42713
2 1 3.54971 3.61905 1.41613
3 1 0.898066 7.22079 5.52684
4 1 3.58054 0.838669 7.62254
5 1 5.6658 7.63186 5.98728
6 1 3.56274 4.73076 9.06147
7 1 9.08093 3.38084 0.610032
8 1 7.64695 0.390531 0.340321
9 1 1.39703 4.50604 7.38384
10 1 5.74629 0.0410238 6.46106
11 1 1.07957 5.04278 9.16338
12 1 0.907725 3.90879 3.95108
13 1 6.52035 8.36985 1.05426
14 1 1.01585 9.3118 6.60817
15 1 7.57311 2.04075 0.0746505
16 1 8.96499 8.25043 1.28037
17 1 1.32502 9.34395 3.99365
18 1 6.72102 2.15302 9.21952
19 1 1.07542 8.86917 8.8268
20 1 7.17241 7.82046 4.52348
21 1 1.19266 5.11955 0.699331
22 1 4.31472 8.96631 6.32592
23 1 6.04004 4.58393 1.02378
24 1 4.19198 5.22981 0.460788
25 1 3.80944 2.81818 1.99585
26 1 6.56874 7.94019 0.167059
27 1 7.36794 4.53116 2.97811
28 1 6.98344 1.6003 6.33036
29 1 7.46629 5.62548 6.16275
30 1 8.09883 5.86424 0.895612
31 1 4.46117 7.93407 6.13423
32 1 7.75526 7.16741 8.3867
33 1 0.264779 5.294 0.627455
34 1 5.98682 1.25211 2.95629
35 1 4.70161 0.428126 2.82593
36 1 8.48153 3.59962 7.61018
37 1 2.284 7.86053 7.54504
38 1 2.72089 1.70603 1.93293
39 1 5.80059 6.68657 2.41058
40 1 8.62823 1.23714 6.08507
41 1 0.414502 1.55362 9.09122
42 1 2.18672 0.912018 6.60254
43 1 0.164877 6.3478 1.33266
44 1 5.06305 2.85137 4.71185
45 1 0.317466 2.04348 6.31289
46 1 5.31401 3.19233 1.23853
47 1 8.04116 7.28647 5.65468
48 1 7.0904 6.09864 5.03042
49 1 6.32106 6.82697 5.43307
50 1 5.86425 7.07526 1.44548
51 1 9.00585 7.85273 8.62302
52 1 6.73344 0.295624 7.05116
53 1 7.32107 4.66788 7.81739
54 1 7.1474 6.39933 1.27308
55 1 5.74105 -0.0234647 2.12045
56 1 1.6592 0.626216 7.48872
57 1 4.14085 4.58038 8.38863
58 1 0.274097 7.365 6.16598
59 1 6.52207 9.25762 1.29119
60 1 0.202447 5.22256 2.80579
61 1 9.02443 7.32744 1.20849
62 1 7.99424 8.00617 3.5479
63 1 5.11089 9.01916 7.5884
64 1 1.97378 6.77589 0.270259
65 1 9.15954 2.5765 0.965207
66 1 7.51779 9.12313 1.9372
67 1 5.12673 3.93783 2.46378
68 1 1.40605 5.59259 7.70617
69 1 1.57077 4.27191 2.19371
70 1 3.94973 3.36417 8.21454
71 1 1.81575 7.25963 5.28632
72 1 5.99749 7.59209 4.28087
73 1 4.8699 4.22804 5.95214
74 1 5.80036 1.94673 3.72422
75 1 0.934746 7.75263 9.35747
76 1 7.08471 8.69034 8.53045
77 1 8.27398 2.28352 0.778398
78 1 9.36583 0.631122 6.97583
79 1 0.941297 2.79325 6.84573
80 1 3.27918 8.2425 6.79507
81 1 4.41994 2.1284 4.3416
82 1 5.9022 4.57624 7.67741
83 1 2.10608 2.89839 7.15308
84 1 1.6925 7.33024 7.02908
85 1 3.47584 8.17348 1.69149
86 1 2.06403 5.45766 3.72984
87 1 9.09635 4.885 6.17029
88 1 5.10509 5.18525 3.59641
89 1 4.57941 6.95524 6.74056
90 1 7.6303 3.724 9.34938
91 1 0.0353555 5.03255 1.50416
92 1 2.5482 9.28795 8.55614
93 1 2.93028 8.84741 2.94626
94 1 5.45855 5.10438 4.84087
95 1 6.88251 2.87308 6.38015
96 1 4.96827 0.77462 5.93053
97 1 3.09014 6.3414 6.24131
98 1 6.38272 3.5306 4.2213
99 1 3.08969 5.86498 3.18724
100 1 7.4139 2.58889 7.07919
101 1 8.84704 1.79599 3.65571
102 1 8.02326 6.23029 5.28336
103 1 2.80155 4.3476 0.141318
104 1 7.31622 1.23534 5.06758
105 1 4.4871 2.73214 0.0662194
106 1 9.1249 7.11178 5.46052
107 1 6.76705 7.05417 4.74691
108 1 1.16479 9.058 2.30281
109 1 8.75823 7.93894 5.80147
110 1 4.22631 5.80931 2.25504
111 1 3.0409 5.27544 0.14847
112 1 1.67582 7.46768 4.05502
113 1 7.81875 4.80898 1.53937
114 1 2.42081 8.08254 5.79525
115 1 4.29436 8.72007 5.05302
116 1 2.19979 7.67883 2.25525
117 1 2.56627 8.84963 7.37773
118 1 8.51171 5.03202 0.0257136
119 1 6.77636 0.254769 7.96786
120 1 5.56857 6.65924 8.4463
121 1 5.53081 5.28458 1.66973
122 1 5.65 6.27161 3.42211
123 1 3.97125 2.59875 6.65275
124 1 5.42217 9.09297 9.02377
125 1 2.47547 3.31707 4.89214
126 1 3.83294 1.17572 8.95046
127 1 3.18632 7.70987 4.76112
128 1 3.23209 8.13259 3.72024
129 1 1.75254 4.70347 8.31767
130 1 7.21571 1.04346 7.03094
131 1 4.73453 8.2758 2.86748
132 1 0.0298814 4.34963 7.63855
133 1 0.75592 5.19044 7.03155
134 1 0.366587 6.72227 3.78422
135 1 0.375126 2.12421 4.16195
136 1 9.27073 3.61558 3.73739
137 1 9.29868 8.68267 2.10845
138 1 6.53719 4.74006 8.51025
139 1 2.70883 0.666516 7.80138
140 1 6.5106 6.15177 4.28902
141 1 2.1479 4.66139 6.48021
142 1 2.01899 4.47976 9.16403
143 1 0.794396 3.13343 3.07511
144 1 8.37069 8.78627 3.4808
145 1 4.35466 3.92924 3.68345
146 1 5.02152 2.49368 0.75165
147 1 4.25407 5.41535 3.42114
148 1 7.50954 6.06176 4.27001
149 1 9.06935 3.93441 4.51506
150 1 1.66812 8.38693 2.75595
151 1 8.23708 0.490379 8.70743
152 1 3.05673 5.43407 0.948722
153 1 2.11425 7.06756 6.21099
154 1 4.95968 3.57705 5.18762
155 1 0.781809 0.23829 1.15971
156 1 8.27927 5.56365 1.78984
157 1 3.70709 4.40593 4.57013
158 1 6.08931 1.92105 0.445202
159 1 4.2176 1.17754 4.63292
160 1 5.16891 8.29538 5.24314
161 1 0.414204 4.45477 6.75008
162 1 6.69863 3.15875 0.177383
163 1 3.33925 6.43815 1.2095
164 1 1.30003 8.36187 0.939975
165 1 1.87746 2.91084 3.37518
166 1 1.16661 6.91807 9.26972
167 1 8.73127 7.44275 3.37297
168 1 4.75985 5.80698 5.08399
169 1 6.02634 0.233684 5.30837
170 1 6.14258 3.94318 8.47753
171 1 7.59762 6.60165 3.05835
172 1 1.90925 0.0693421 6.72327
173 1 8.73369 3.8478 6.61977
174 1 8.47448 6.3527 3.38445
175 1 6.30484 1.07537 7.40056
176 1 3.22924 0.94691 1.61107
177 1 7.4521 2.26502 4.66476
178 1 4.64127 1.44572 3.86927
179 1 3.92302 2.00172 9.2091
180 1 8.06681 5.52552 3.3799
181 1 9.34596 4.13185 2.50007
182 1 0.484709 5.87086 2.27946
183 1 1.96826 1.61039 7.42555
184 1 4.35182 6.47109 8.76008
185 1 7.88288 1.08042 8.00163
186 1 0.161643 2.35925 5.43983
187 1 2.83958 0.307669 2.36912
188 1 0.0583273 0.825412 0.555835
189 1 8.05108 7.33564 9.26184
190 1 4.42657 8.46891 3.6785
191 1 3.70655 0.71228 0.795963
192 1 6.9301 2.38322 0.715239
193 1 5.59423 6.80185 4.16452
194 1 0.875237 0.861652 5.28825
195 1 1.16782 1.07055 8.89055
196 1 3.04495 1.76121 7.66132
197 1 7.37617 0.989959 2.90294
198 1 8.9399 4.18954 8.37877
199 1 4.01111 6.33461 3.19319
200 1 2.96112 3.85134 7.56508
201 1 3.46631 6.90589 7.07446
202 1 1.32313 6.6473 3.43977
203 1 5.55703 8.36276 3.3273
204 1 6.89751 0.324251 2.34398
205 1 0.870899 1.34592 0.495031
206 1 0.177265 8.43953 8.98416
207 1 0.652607 8.56425 7.11022
208 1 5.65681 8.29815 7.16259
209 1 5.40842 7.33689 5.09052
210 1 1.61142 0.320566 5.92277
211 1 0.109224 8.86588 4.86138
212 1 2.709 2.10741 0.980253
213 1 8.59261 0.552494 0.14723
214 1 8.30683 1.97454 7.78949
215 1 8.87941 0.65483 8.02165
216 1 6.58374 4.23475 3.72138
217 1 1.17548 2.32094 3.16581
218 1 2.23211 7.16864 3.17826
219 1 0.551852 0.256524 4.42529
220 1 7.46455 2.19405 1.95915
221 1 7.59003 9.00086 5.20494
222 1 7.29168 4.54127 6.33988
223 1 5.23637 8.62946 6.4627
224 1 6.37853 4.64429 4.89953
225 1 9.06624 1.66437 1.31835
226 1 1.90092 2.88861 8.37243
227 1 5.45503 8.47766 8.39023
228 1 3.24287 1.30777 5.21558
229 1 6.72298 5.10397 5.76274
230 1 7.89626 3.99156 4.39682
231 1 5.45638 6.84473 0.543799
232 1 2.43595 8.05979 3.0769
233 1 6.54544 8.12799 7.79378
234 1 2.10875 1.18123 8.22382
235 1 0.390258 6.52558 6.84218
236 1 5.49243 1.24974 7.63407
237 1 3.48693 2.782 3.88301
238 1 8.14984 0.0762531 2.72224
239 1 6.46534 0.490997 3.65009
240 1 0.0166943 8.9422 3.82121
241 1 8.79123 0.318757 6.36157
242 1 4.81588 6.98512 9.32329
243 1 8.01599 0.557921 5.25535
244 1 9.33192 6.44362 3.06322
245 1 0.567098 3.54946 0.881965
246 1 7.26534 2.66468 5.51682
247 1 1.46442 4.63316 3.79277
248 1 7.28355 8.60414 3.59107
249 1 3.9425 6.12317 4.20072
250 1 4.81029 0.216869 1.37126
251 1 3.92139 6.49845 5.14816
252 1 6.12638 8.4006 6.34354
253 1 8.35178 2.55517 2.11354
254 1 1.37945 2.49094 8.99732
255 1 1.2893 8.48343 3.76969
256 1 1.4273 3.66848 1.24289
257 1 6.46188 4.38646 6.13278
258 1 4.8865 0.0404031 3.70009
259 1 6.96273 5.92154 7.02315
260 1 2.74564 4.90404 3.42156
261 1 3.4552 0.966188 3.48378
262 1 6.79576 5.36253 9.1043
263 1 6.92491 0.208806 5.20205
264 1 8.69977 8.47124 5.04523
265 1 7.83007 8.42288 2.71912
266 1 5.67064 0.459963 2.90437
267 1 8.38018 4.24192 9.07259
268 1 4.71366 4.63992 9.253
269 1 8.33398 3.10763 1.28506
270 1 6.42102 8.91827 7.1491
271 1 7.36681 7.52614 7.5301
272 1 4.78302 7.79372 6.91504
273 1 3.83008 3.58825 0.363838
274 1 2.81515 8.51589 2.0826
275 1 4.07772 5.41596 8.91733
276 1 0.102026 0.134664 2.283
277 1 3.64179 5.68738 1.59857
278 1 8.98425 5.64497 8.82922
279 1 4.58307 1.1071 7.63516
280 1 8.22373 3.3847 5.80327
281 1 6.69289 4.56928 0.143151
282 1 6.47371 1.36813 1.04098
283 1 4.36851 4.91541 6.44977
284 1 3.50447 6.14703 8.58792
285 1 8.60028 5.90851 2.67345
286 1 0.960936 4.18098 0.131741
287 1 1.11164 6.29088 8.23203
288 1 0.470153 4.02249 5.71155
289 1 8.54569 2.76994 0.133164
290 1 2.98944 4.78183 7.0708
291 1 1.4358 7.46567 2.64399
292 1 1.57269 5.96947 0.214822
293 1 3.54018 1.96992 5.81996
294 1 4.57564 8.78084 8.2638
295 1 8.4652 6.76763 0.651748
296 1 7.70799 5.35142 2.51782
297 1 4.61729 3.68861 0.0349943
298 1 4.3459 1.97031 0.875613
299 1 4.74094 5.04213 5.73998
300 1 5.44781 6.38492 5.27351
301 1 0.507756 2.12085 8.38085
302 1 5.9384 7.32058 9.30895
303 1 2.65241 7.25637 8.23962
304 1 6.20894 7.93368 5.222
305 1 7.08208 1.25944 0.385126
306 1 7.66284 5.20006 9.26676
307 1 4.34338 8.56877 7.14095
308 1 2.67253 8.84446 6.40763
309 1 4.23874 0.463125 9.22249
310 1 1.57274 8.59673 6.29987
311 1 0.864078 1.6549 4.91041
312 1 8.08994 2.68677 6.40888
313 1 4.74789 7.25345 2.93051
314 1 7.67368 7.0105 4.82604
315 1 6.77952 2.12117 2.69027
316 1 8.44646 9.32454 7.31692
317 1 5.24081 6.2292 1.5651
318 1 4.71132 2.08415 6.13963
319 1 8.52399 4.25819 1.64896
320 1 3.31966 5.56675 4.87685
321 1 7.1068 1.48766 8.46608
322 1 8.81912 7.76309 2.20346
323 1 3.39552 1.07062 6.09143
324 1 0.748395 2.57235 4.77399
325 1 3.32496 8.49913 0.888218
326 1 6.85084 4.22929 7.11221
327 1 5.36352 2.09342 5.42697
328 1 5.78713 1.10338 1.78487
329 1 8.22471 5.34615 7.7001
330 1 1.73753 6.24853 4.84998
331 1 4.85304 4.4553 4.84468
332 1 0.00510746 2.5086 9.19227
333 1 8.81679 5.17289 4.30434
334 1 9.373 1.38934 4.42651
335 1 8.97968 2.13838 6.83705
336 1 2.57776 3.64669 8.96124
337 1 0.569656 5.17526 5.62845
338 1 7.28064 9.00185 6.59558
339 1 2.47766 1.79116 5.87613
340 1 1.91951 2.39 2.08851
341 1 5.03586 0.12897 0.27135
342 1 9.23505 3.25977 2.7727
343 1 0.633504 4.52215 2.23438
344 1 4.6979 5.48224 1.46454
345 1 7.33885 0.838218 3.74659
346 1 8.17593 8.6354 7.73672
347 1 6.44721 0.905106 6.29409
348 1 4.06346 6.78262 1.83114
349 1 2.3851 6.16408 1.6007
350 1 4.58276 2.58261 1.51673
351 1 2.81697 4.25002 4.16921
352 1 9.24747 9.39584 0.16138
353 1 7.69155 4.38514 0.409921
354 1 7.37086 5.54893 1.72555
355 1 8.5281 4.8334 0.963227
356 1 1.76004 6.29283 5.85021
357 1 4.12527 4.30849 2.13182
358 1 4.95592 5.55487 7.2858
359 1 0.908138 6.30983 0.745498
360 1 8.08161 8.52777 1.59871
361 1 7.21709 5.1984 0.744993
362 1 6.67432 1.39269 3.43352
363 1 1.53798 8.12644 5.38776
364 1 8.61552 6.40727 1.50807
365 1 4.24054 3.60411 2.80708
366 1 6.98771 5.32676 4.60661
367 1 5.23924 1.81609 4.50941
368 1 6.85948 8.16631 6.78761
369 1 6.31769 9.24058 8.82985
370 1 0.455284 0.503466 3.48288
371 1 9.1177 2.75946 3.72179
372 1 1.30419 1.0042 3.27072
373 1 4.54083 4.00712 7.52372
374 1 2.8559 6.97452 0.881883
375 1 0.981743 3.11004 0.213106
376 1 6.00859 1.44094 9.02022
377 1 1.01639 2.85579 1.51982
378 1 0.318938 8.04874 3.68281
379 1 6.85702 4.06842 1.66563
380 1 2.05685 3.77053 7.02698
381 1 6.81157 2.49364 3.8266
382 1 5.88086 3.23803 2.36056
383 1 9.25532 3.06473 4.65207
384 1 6.17365 4.88591 2.15012
385 1 6.79839 3.52506 5.7376
386 1 1.78832 2.57106 4.61787
387 1 9.19432 1.62338 8.37132
388 1 0.541812 6.90681 2.67348
389 1 4.34062 6.24078 0.366891
390 1 4.86171 5.03053 8.20374
391 1 7.50643 8.11302 9.18293
392 1 8.88333 6.67521 6.49189
393 1 8.98727 2.66253 8.05175
394 1 5.2458 4.32117 7.17681
395 1 1.80391 0.216461 1.00968
396 1 3.85378 6.97695 2.63034
397 1 1.20934 5.0768 2.98137
398 1 6.7949 2.83879 8.03831
399 1 9.29987 8.1213 0.501809
400 1 7.40671 5.59208 8.21807
401 1 3.29032 7.72243 7.64059
402 1 2.44087 2.52961 2.76395
403 1 4.71038 6.73424 1.05195
404 1 1.49827 5.42606 5.37829
405 1 2.68634 2.50375 4.39118
406 1 7.08514 3.18692 1.09161
407 1 7.35076 3.61456 6.6048
408 1 3.68194 9.23256 0.362633
409 1 7.25013 1.77853 7.56439
410 1 2.48097 5.45725 6.14041
411 1 2.85443 3.25373 0.724077
412 1 8.47323 2.09143 4.3813
413 1 4.88843 5.54045 0.118119
414 1 2.44576 5.90995 9.14338
415 1 8.20342 2.77876 8.55921
416 1 3.56696 4.03378 6.69121
417 1 2.38504 0.119444 1.58219
418 1 0.917858 8.58293 4.64336
419 1 2.86056 0.15404 0.795133
420 1 3.4246 5.55281 6.99021
421 1 6.35929 6.82122 6.78445
422 1 0.570569 6.14202 9.23246
423 1 0.174006 0.59918 8.72628
424 1 6.68332 7.36815 1.28127
425 1 8.04545 1.75719 6.59572
426 1 7.72012 1.75285 3.87064
427 1 4.02291 6.15525 6.65882
428 1 0.781481 6.60729 4.55786
429 1 5.14203 7.06583 7.57895
430 1 5.24075 6.35901 6.84164
431 1 2.4616 6.77929 2.35749
432 1 7.6038 0.574942 1.19866
433 1 0.0261938 4.60631 5.06005
434 1 3.62142 9.0192 6.96162
435 1 2.93896 8.42329 8.06904
436 1 8.4661 5.41559 6.52418
437 1 8.07785 0.798541 6.70569
438 1 9.31807 5.88391 3.85213
439 1 8.32721 0.120701 1.71241
440 1 8.90744 5.05283 2.20611
441 1 1.4588 1.92376 8.31657
442 1 5.21934 9.01826 2.87244
443 1 1.80336 5.83175 1.0807
444 1 9.08832 5.82299 5.92635
445 1 2.93505 2.44104 5.24256
446 1 8.32415 2.792 7.35185
447 1 6.86837 6.80213 3.76116
448 1 6.59736 7.52044 6.07559
449 1 3.22839 4.12385 8.46117
450 1 3.81407 0.247006 2.70499
451 1 4.78708 2.81465 6.62269
452 1 5.80244 3.74827 3.5673
453 1 4.19553 3.52758 6.15689
454 1 3.00933 3.36479 6.60058
455 1 5.67131 3.84756 5.59944
456 1 2.61808 6.11837 0.692763
457 1 9.0082 5.02571 3.49072
458 1 4.90907 1.94773 9.34199
459 1 1.20398 1.53303 2.11866
460 1 8.5635 6.88249 8.81593
461 1 3.23381 8.02267 2.69503
462 1 6.71727 0.0939262 6.11134
463 1 8.40314 4.32228 5.12543
464 1 0.641919 3.46241 2.24018
465 1 2.40837 7.86608 1.23435
466 1 8.85327 1.79063 2.63275
467 1 1.42585 0.66831 0.282794
468 1 7.54015 5.0443 7.02602
469 1 2.57774 7.17452 7.05912
470 1 0.0960532 0.26225 5.73477
471 1 5.90655 8.05676 1.64461
472 1 3.40127 4.02776 3.13807
473 1 6.04779 2.20406 4.78133
474 1 9.08621 0.542721 4.86671
475 1 7.54752 0.141341 7.30264
476 1 7.33537 0.726482 6.00824
477 1 5.41456 2.11152 2.53739
478 1 7.60616 2.60456 2.72869
479 1 0.379787 0.0643238 7.43566
480 1 4.25103 1.29901 6.54518
481 1 3.53887 5.1267 2.7324
482 1 2.34648 9.1781 5.30816
483 1 3.51024 1.90106 4.54608
484 1 4.47845 4.41722 0.900881
485 1 8.82721 8.29644 4.23735
486 1 7.97595 4.13863 7.04057
487 1 6.14728 0.759561 8.28046
488 1 8.08716 7.36777 2.69032
489 1 5.23818 1.71698 8.37497
490 1 5.23677 2.29669 7.57125
491 1 2.79061 7.17565 5.42196
492 1 3.82684 7.5638 6.6685
493 1 5.67138 7.65982 0.740108
494 1 4.97433 8.70156 2.04289
495 1 6.1895 1.93302 1.85051
496 1 6.55445 6.35322 7.75281
497 1 9.24406 8.70387 5.86162
498 1 6.28385 3.44592 7.62483
499 1 2.74043 6.72576 9.10418
500 1 3.04825 4.56753 6.02681
501 1 6.21452 7.24117 7.64717
502 1 3.98082 1.03293 2.00149
503 1 5.80398 0.638761 0.82825
504 1 2.65903 4.45331 2.60527
505 1 2.07059 3.12887 5.83425
506 1 4.69962 2.84137 2.43224
507 1 3.45465 3.70757 3.95928
508 1 6.19367 8.88009 8.01972
509 1 8.56119 8.59432 8.65539
510 1 1.39066 9.13706 0.367787
511 1 5.08 7.84791 1.40092
512 1 6.46384 2.39936 7.32814
513 1 4.0332 1.66513 8.21322
514 1 0.145787 7.95521 5.0697
515 1 2.44701 4.0721 1.74521
516 1 5.30044 3.96534 0.689449
517 1 4.39687 3.01511 3.95223
518 1 0.753501 8.43963 5.82965
519 1 2.19497 3.94682 8.12212
520 1 5.41393 6.24025 9.36188
521 1 2.00011 5.22389 2.68355
522 1 2.55259 8.02943 8.77658
523 1 6.01002 2.49127 3.07157
524 1 7.60606 2.88541 0.384015
525 1 2.54806 7.04778 3.99675
526 1 0.899782 4.71901 4.50538
527 1 8.70366 8.39803 7.04002
528 1 3.67298 7.23148 3.93345
529 1 7.4786 6.52178 7.74957
530 1 4.99787 7.69436 4.41084
531 1 6.95365 8.85784 0.0912064
532 1 7.13962 7.68444 5.41573
533 1 1.06697 8.69338 7.8834
534 1 4.93306 8.79069 4.40227
535 1 4.49359 2.31827 8.53596
536 1 3.40064 3.1252 5.83086
537 1 4.40961 2.75038 5.52599
538 1 6.53319 3.93787 2.43049
539 1 8.88047 1.44711 9.20253
540 1 2.69755 3.31174 3.97249
541 1 0.14884 7.16151 1.98415
542 1 0.308064 1.48259 7.13834
543 1 5.07971 1.24968 2.82611
544 1 2.96256 2.45427 0.233805
545 1 4.67109 5.93294 6.13889
546 1 5.64819 0.601551 9.14043
547 1 5.39058 3.77264 7.93682
548 1 0.510265 7.10789 0.534914
549 1 4.68897 8.78623 0.695184
550 1 8.48349 6.13073 0.0491336
551 1 6.72813 0.667819 1.53218
552 1 3.52533 5.63582 5.7969
553 1 0.815462 8.06358 2.10448
554 1 6.61783 6.01199 5.99558
555 1 1.75446 1.15892 5.68549
556 1 5.74118 5.68676 8.72887
557 1 0.601503 6.02435 3.22107
558 1 3.24857 0.496766 9.19686
559 1 5.17685 4.99929 0.711519
560 1 1.71796 6.19539 3.99334
561 1 2.14989 9.1211 2.42955
562 1 9.07177 3.09712 6.95776
563 1 2.10882 6.79519 7.73395
564 1 5.09894 3.62805 4.26968
565 1 1.71926 2.39023 6.41936
566 1 7.31596 0.113608 9.04306
567 1 7.91527 8.82825 4.34031
568 1 1.65713 7.5168 8.63951
569 1 8.35708 3.60715 2.47372
570 1 0.657018 0.451997 0.0181858
571 1 0.870717 7.64891 4.40255
572 1 3.3448 1.10373 2.60953
573 1 1.87464 8.47225 8.38696
574 1 2.30515 0.248047 4.14209
575 1 8.45018 1.04249 2.93585
576 1 4.12753 0.751366 8.27916
577 1 9.39769 5.53671 6.87961
578 1 9.31145 4.65494 9.17011
579 1 3.82478 0.0466625 4.58011
580 1 4.78314 6.06686 3.8681
581 1 0.759475 0.803445 2.56532
582 1 0.338223 2.53727 7.58792
583 1 3.53925 7.87497 0.309858
584 1 8.72079 9.28041 4.28711
585 1 3.66131 7.10596 5.77658
586 1 5.24266 3.59337 6.51167
587 1 7.61836 9.30173 8.27057
588 1 3.03449 2.69765 1.57066
589 1 7.51501 7.30643 0.821757
590 1 8.2521 5.41454 8.57661
591 1 1.1966 6.77505 6.32505
592 1 2.07484 8.73158 3.80826
593 1 6.57909 5.92918 0.582501
594 1 5.89545 1.64097 5.88536
595 1 3.09715 7.1304 3.08453
596 1 8.28336 4.59329 5.99242
597 1 6.29052 3.53992 6.63971
598 1 3.20694 6.79925 4.69664
599 1 4.13074 0.464464 5.73361
600 1 8.68225 7.44045 4.65935
601 1 2.65338 2.4718 6.60588
602 1 7.62431 3.12577 2.03852
603 1 5.72413 4.75381 5.69412
604 1 1.82282 8.37442 1.80853
605 1 1.71123 5.86936 6.67419
606 1 6.88944 2.89646 4.71023
607 1 6.0856 1.24556 4.12882
608 1 8.97965 3.33499 8.85097
609 1 0.850758 6.09018 5.38006
610 1 1.6971 8.43311 9.3658
611 1 1.99734 1.3379 4.20777
612 1 6.06511 9.09635 0.377709
613 1 0.717121 3.64904 7.32238
614 1 9.30425 6.45369 8.42827
615 1 9.24821 7.89581 7.74703
616 1 6.99148 4.04098 4.61036
617 1 4.19839 0.514031 3.90915
618 1 0.368977 0.843115 7.75133
619 1 6.87211 8.19211 2.51991
620 1 0.58065 5.04291 8.29709
621 1 7.15156 9.32681 4.0577
622 1 5.72608 2.85579 8.11884
623 1 0.527973 3.65525 4.85617
624 1 1.15017 1.8942 6.86325
625 1 5.83201 5.02186 0.157366
626 1 6.29866 3.0486 8.74335
627 1 2.95346 2.73931 7.4217
628 1 8.05408 1.4363 0.70067
629 1 3.03967 3.11703 3.10849
630 1 3.247 6.4515 3.91443
631 1 8.90269 6.05821 7.39334
632 1 2.45255 0.905059 5.14426
633 1 3.49142 2.20791 2.62307
634 1 6.72496 0.754034 4.50178
635 1 4.24238 8.49672 1.39353
636 1 7.14808 4.94451 3.69229
637 1 4.37406 6.52589 7.59268
638 1 8.21522 1.53799 1.82297
639 1 9.08516 8.4713 3.12729
640 1 1.65879 5.73995 8.75778
641 1 9.32704 6.2897 0.406996
642 1 0.295613 6.44231 5.90031
643 1 2.39757 0.901429 3.45716
644 1 4.90534 8.09877 7.78027
645 1 2.4135 2.07136 8.5279
646 1 0.406781 1.50365 3.57423
647 1 9.02303 0.170365 3.099
648 1 1.45426 4.44918 5.46094
649 1 3.90812 3.90726 8.95002
650 1 7.85538 1.7532 2.64692
651 1 0.268434 6.83997 7.71613
652 1 4.18524 3.6282 4.66725
653 1 3.72765 9.24216 8.62993
654 1 0.944057 8.03115 8.48963
655 1 8.40049 7.80164 0.509495
656 1 4.86221 5.93286 8.32139
657 1 8.92763 5.61567 1.00348
658 1 0.472754 8.69721 0.686853
659 1 5.80417 7.46427 6.84987
660 1 4.28192 7.77822 9.06989
661 1 5.91517 3.19717 5.11758
662 1 3.57209 2.46127 8.06984
663 1 5.07651 6.21337 2.67563
664 1 2.04976 2.98012 1.48451
665 1 8.40152 9.31939 0.817374
666 1 2.39774 3.95695 5.80458
667 1 1.48066 7.45627 0.615639
668 1 7.85788 7.544 6.74119
669 1 8.29135 7.67118 7.74214
670 1 2.97513 7.53078 6.27976
671 1 4.00233 0.415141 6.61114
672 1 6.21083 8.11599 8.70352
673 1 3.20207 3.77119 2.28043
674 1 2.19055 8.8057 0.767563
675 1 4.72246 2.19264 3.25187
676 1 6.2114 7.55071 2.57365
677 1 1.23781 2.01792 4.13345
678 1 2.15416 4.26144 4.91331
679 1 0.613298 3.19462 8.2948
680 1 5.62919 4.65115 2.8759
681 1 1.86859 8.80684 4.7315
682 1 9.21741 2.35845 1.77378
683 1 6.92364 5.87108 2.539
684 1 0.732332 8.55805 3.03416
685 1 0.787813 5.53775 1.51182
686 1 2.23914 0.330207 0.13921
687 1 4.97888 0.409571 8.41487
688 1 2.08033 7.0773 1.51616
689 1 3.77555 2.664 0.620076
690 1 6.09577 5.53746 2.81616
691 1 0.843989 7.42356 1.3559
692 1 5.58264 8.66918 1.03881
693 1 5.54668 6.14296 7.75106
694 1 3.34808 5.11262 8.07753
695 1 5.5795 2.65897 1.84209
696 1 3.72531 7.03021 0.610354
697 1 4.64242 3.70329 1.6355
698 1 9.13116 5.289 7.76599
699 1 7.71434 8.20967 6.23453
700 1 0.784748 7.41833 7.09195
701 1 7.74658 4.84484 4.55816
702 1 1.7429 4.48164 0.962324
703 1 5.66283 5.93705 0.74829
704 1 7.29444 2.9553 8.82695
705 1 1.77901 9.12906 7.77637
706 1 4.56803 2.9293 7.44162
707 1 0.869905 4.55443 1.26668
708 1 5.36215 7.75458 2.41369
709 1 5.03437 1.84796 1.62475
710 1 2.26633 7.99733 6.70165
711 1 3.73263 8.73261 7.81746
712 1 9.30839 8.97524 6.67915
713 1 8.07268 7.45153 1.53566
714 1 5.1247 4.42934 1.43717
715 1 0.990892 2.87317 3.90201
716 1 4.57988 1.05215 1.05996
717 1 6.30603 2.08783 8.29738
718 1 0.635682 5.2224 3.67838
719 1 6.72572 0.854423 9.01627
720 1 1.62184 0.518031 4.70595
721 1 4.00749 5.74077 7.92776
722 1 7.28081 0.0826413 3.14207
723 1 8.40474 3.23249 4.08173
724 1 1.26368 6.39306 2.40115
725 1 4.21975 1.07981 3.09485
726 1 1.55208 0.218043 8.78486
727 1 9.3614 1.46473 5.3874
728 1 7.87677 0.0219799 6.03854
729 1 0.803511 2.27661 2.21793
730 1 2.79046 1.54175 9.3249
731 1 6.72496 3.05098 2.05771
732 1 2.25971 0.107476 3.1809
733 1 0.478476 1.85228 1.17581
734 1 0.706785 3.02487 5.73508
735 1 6.87623 8.52611 5.76602
736 1 5.32845 4.39762 3.97512
737 1 7.45094 9.01956 0.979126
738 1 3.2442 6.26719 2.27764
739 1 9.25981 7.34327 7.04838
740 1 3.64296 8.34621 6.03146
741 1 2.10421 5.18871 7.19093
742 1 0.182864 1.58149 2.23061
743 1 6.00267 5.0379 3.84263
744 1 1.33314 6.46183 7.27658
745 1 8.85656 4.2208 3.27657
746 1 8.19418 0.405609 3.7385
747 1 1.52587 3.51425 5.09991
748 1 5.90335 8.43435 2.45921
749 1 3.24423 3.72829 5.14633
750 1 3.8579 4.84517 7.40932
751 1 6.6061 8.97394 2.16287
752 1 4.8145 3.95126 8.60257
753 1 5.51766 4.6581 8.78656
754 1 6.04416 5.99226 1.97755
755 1 8.05603 3.26614 4.90656
756 1 0.309793 4.42499 3.56246
757 1 1.35234 2.28591 5.49546
758 1 1.4892 3.30367 2.51074
759 1 0.254056 0.865853 1.57432
760 1 6.0619 1.82295 6.72594
761 1 4.98962 6.9576 2.06513
762 1 1.09632 1.0945 4.16391
763 1 7.67309 4.99736 5.40438
764 1 3.48945 4.6174 0.744616
765 1 6.7725 6.86394 2.13415
766 1 6.88398 4.07197 0.832213
767 1 6.30361 6.32373 8.99211
768 1 7.9878 3.67499 8.38597
769 1 1.32668 0.989753 1.16912
770 1 5.27479 8.07502 9.30868
771 1 7.31985 8.03038 1.64772
772 1 8.4433 8.7084 6.26415
773 1 1.7852 1.68202 0.505598
774 1 3.81091 1.88589 3.52409
775 1 8.09688 6.34266 6.2492
776 1 3.63686 7.08049 9.13537
777 1 5.64548 2.75327 4.05491
778 1 7.70848 0.679804 2.09654
779 1 8.61835 4.7638 7.12507
780 1 5.97895 3.9902 1.79304
781 1 5.74588 0.307883 7.5024
782 1 4.41212 4.6494 3.10186
783 1 3.10258 8.98117 4.05733
784 1 1.92091 0.860497 2.50027
785 1 5.32799 3.24389 9.00644
786 1 4.78978 0.188077 4.67821
787 1 4.48368 3.20284 0.900825
788 1 7.82355 2.63825 3.69169
789 1 3.64789 4.73619 3.63455
790 1 3.51437 2.93713 9.06496
791 1 8.34109 1.37052 5.12045
792 1 2.33549 5.72975 8.02328
793 1 2.55172 6.08767 4.43833
794 1 0.236932 2.50517 3.02643
795 1 2.89286 3.19312 8.26487
796 1 1.54732 8.49096 7.20443
797 1 1.47799 0.365442 1.84653
798 1 5.74819 2.26107 8.97801
799 1 8.82952 0.731663 2.15758
800 1 0.0137777 4.46212 0.641171
801 2 3.54794 1.6368 0.584296
802 2 3.07424 7.25836 2.01737
803 2 8.60545 0.761037 1.19961
804 2 6.50517 8.96426 3.08951
805 2 8.39044 6.73765 7.3813
806 2 6.86956 5.89566 3.52359
807 2 9.16882 3.0555 6.08993
808 2 3.83439 1.89806 1.76296
809 2 6.62431 5.22143 7.52647
810 2 7.49312 4.00637 5.48334
811 2 6.47214 6.62178 2.95673
812 2 7.00262 3.74784 8.12584
813 2 7.98009 8.85657 0.213239
814 2 2.08519 6.02546 2.53518
815 2 6.97431 1.37405 2.18775
816 2 7.38101 1.50739 1.28259
817 2 8.96328 0.748749 3.88753
818 2 1.27 4.58741 6.40786
819 2 0.937161 4.15996 8.42472
820 2 0.953065 7.56348 3.34855
821 2 9.40512 8.10777 6.5238
822 2 6.71144 3.07461 2.96438
823 2 7.33825 8.56501 7.39918
824 2 2.85779 1.36975 4.13193
825 2 7.95865 5.98406 7.0785
826 2 8.06899 4.59121 3.6209
827 2 6.47717 5.66318 8.38115
828 2 2.73056 1.01137 0.881611
829 2 5.58905 5.74385 5.90173
830 2 4.8767 3.14437 8.22142
831 2 5.25221 9.09383 5.66272
832 2 5.86517 7.32096 3.40472
833 2 4.65346 7.90134 0.55532
834 2 0.946117 0.695444 6.95836
835 2 5.16966 1.09757 5.08822
836 2 3.40852 4.7563 1.73164
837 2 2.3638 3.50008 2.54239
838 2 5.10797 1.06991 0.278557
839 2 3.01724 6.4486 7.92937
840 2 7.02058 7.51945 3.07922
841 2 0.324812 7.27216 8.70153
842 2 3.90113 8.61795 2.64943
843 2 4.99802 7.48031 8.52708
844 2 4.98958 4.82138 2.23459
845 2 6.02032 5.91425 6.88592
846 2 5.72392 9.15723 3.8176
847 2 6.29405 5.64983 5.04389
848 2 4.26255 1.88345 5.42761
849 2 7.00705 4.7937 2.20913
850 2 2.14626 2.80116 9.27181
851 2 5.72057 4.12226 4.67902
852 2 0.26353 3.81504 9.07179
853 2 7.63583 3.25189 7.57483
854 2 2.12153 3.73325 0.360354
855 2 2.9942 4.59792 5.1818
856 2 2.52102 4.78778 7.82024
857 2 9.1972 7.38191 0.0568207
858 2 9.3378 3.48468 7.76015
859 2 1.32524 9.04519 5.41815
860 2 7.36108 8.20969 0.707326
861 2 5.38371 0.77425 3.7183
862 2 3.68009 1.71893 7.05309
863 2 3.93935 4.50252 5.71842
864 2 7.77227 6.44597 2.16611
865 2 2.63236 0.360438 5.96233
866 2 6.96132 7.0823 0.159582
867 2 9.19101 3.19867 1.76236
868 2 4.59034 7.0022 3.84482
869 2 8.72277 2.14904 5.99519
870 2 7.45747 6.29818 0.449591
871 2 0.887327 5.84842 6.31982
872 2 1.6521 3.58703 8.93034
873 2 7.71578 1.26753 9.10801
874 2 4.42529 1.81214 2.49628
875 2 1.81937 2.71268 0.660409
876 2 2.60626 7.51061 0.211662
877 2 6.06798 3.51778 0.949549
878 2 4.06841 7.43003 4.95761
879 2 3.21177 0.270669 5.26052
880 2 4.83657 0.797462 2.04503
881 2 6.51807 5.34808 1.38546
882 2 5.54136 1.49116 0.982803
883 2 7.98836 0.964335 4.42636
884 2 3.79311 9.15928 3.44854
885 2 8.12934 4.44639 7.95378
886 2 2.57389 6.08104 6.90768
887 2 9.18593 0.0658912 1.46261
888 2 7.97133 7.11103 3.89871
889 2 4.39087 2.00117 7.4537
890 2 5.49617 3.19799 7.26916
891 2 7.28351 6.85395 5.88047
892 2 0.438406 5.91544 7.73756
893 2 7.36521 6.64336 6.74591
894 2 4.24847 5.18629 4.36791
895 2 6.02617 3.77691 9.33167
896 2 2.30017 7.9697 4.39253
897 2 8.40235 6.23269 8.11904
898 2 6.63949 5.12291 6.6486
899 2 6.50414 8.27888 3.6974
900 2 5.45429 5.00322 6.60253
901 2 6.72104 7.17591 8.58458
902 2 8.33013 1.84919 8.63797
903 2 7.44029 3.64828 2.79083
904 2 7.42583 3.53472 3.71483
905 2 5.26128 3.17417 3.11605
906 2 8.759 6.82417 2.44343
907 2 9.3972 1.02856 2.88472
908 2 0.832212 2.25178 0.436022
909 2 1.91835 1.89985 3.41332
910 2 1.38892 7.71727 6.17518
911 2 1.3803 6.46258 1.5007
912 2 0.932432 0.394077 8.23107
913 2 1.50401 1.85903 1.31602
914 2 1.35166 3.77984 6.01391
915 2 3.68827 7.10604 8.1615
916 2 3.56445 6.06859 0.0948767
917 2 6.25424 1.13266 5.15457
918 2 1.26957 0.131507 3.04473
919 2 4.09922 2.78791 3.1569
920 2 0.533381 8.89158 1.57445
921 2 2.48388 6.24249 5.41158
922 2 2.74294 5.49606 2.1382
923 2 8.07427 4.49522 2.47771
924 2 8.67892 1.27058 7.2161
925 2 8.41639 3.94111 0.551484
926 2 3.50483 9.17782 6.07848
927 2 0.464981 5.72564 4.54299
928 2 4.60612 6.94437 5.55381
929 2 5.61636 0.95915 6.69762
930 2 4.2849 0.0486879 7.69104
931 2 9.21593 6.3257 5.05834
932 2 1.3869 7.66326 7.8539
933 2 3.04173 1.30691 8.53146
934 2 8.84691 7.0932 8.00811
935 2 3.41356 9.34474 1.6368
936 2 6.57212 8.86931 4.86951
937 2 3.11116 5.53334 4.02326
938 2 2.74504 4.79519 8.78452
939 2 4.16865 7.5592 7.55004
940 2 7.56439 6.13908 8.88827
941 2 7.54196 2.33593 8.25237
942 2 9.01365 6.69137 4.24178
943 2 4.49541 8.90809 9.18841
944 2 5.80502 6.66811 6.15723
945 2 0.125466 7.83462 2.86636
946 2 5.88642 0.337285 4.41619
947 2 6.01689 8.80498 5.58791
948 2 7.38039 4.43977 8.86897
949 2 2.31051 4.08082 3.44921
950 2 4.93821 0.234342 6.86619
951 2 4.26755 9.16682 1.97321
952 2 8.59407 5.21264 5.17369
953 2 2.59595 4.53073 0.931377
954 2 6.74307 1.98088 5.27555
955 2 0.00562107 9.07476 8.33374
956 2 7.80193 8.10936 8.31104
957 2 3.70561 2.83952 4.82522
958 2 2.39855 6.32972 3.34345
959 2 5.68967 8.3962 4.45142
960 2 3.70317 3.34082 7.33281
961 2 0.152615 1.15313 6.24363
962 2 2.29342 5.25166 4.66365
963 2 7.78767 3.88185 1.3364
964 2 7.53045 1.91705 5.71922
965 2 6.55392 4.85868 3.03462
966 2 1.90524 6.6075 8.61439
967 2 3.9864 7.75275 3.19307
968 2 4.69191 1.15092 8.92829
969 2 2.87237 1.91521 3.21139
970 2 6.8143 0.356228 0.58313
971 2 2.09828 5.21482 0.312264
972 2 6.90184 1.7275 4.23188
973 2 1.33889 2.52229 7.63307
974 2 4.40787 7.94526 2.10756
975 2 5.32154 3.00048 5.82532
976 2 3.34136 8.83 5.13468
977 2 5.61965 5.92095 4.39705
978 2 6.27534 2.58338 5.67542
979 2 4.72181 6.64554 4.71135
980 2 5.76834 2.771 0.319862
981 2 8.46623 2.71477 3.04676
982 2 1.1244 4.20701 2.98945
983 2 0.349656 3.54339 6.44414
984 2 6.34786 2.66586 1.27933
985 2 3.61611 8.40547 8.84931
986 2 3.83045 8.24475 4.42518
987 2 6.32145 6.82427 0.71774
988 2 9.14451 3.79802 5.43595
989 2 7.91649 7.96648 4.93516
990 2 8.63254 2.70432 5.28543
991 2 2.04665 5.10455 1.77065
992 2 0.993046 1.47238 7.71017
993 2 1.34977 5.4576 4.41629
994 2 2.86518 0.269019 6.99165
995 2 2.77763 8.8195 9.29131
996 2 0.135082 7.24524 4.56142
997 2 0.0156983 4.1276 1.57605