#bin. KALJ data file T=0.5

1000 atoms
2 atom types

0 9.4 xlo xhi
0 9.4 ylo yhi
0 9.4 zlo zhi

Masses

1 1.0
2 1.0

Atoms

1 1 5.37767 4.34494 6.44688
2 1 5.33822 6.31618 1.72936
3 1 5.81005 5.26974 2.72735
4 1 7.22117 1.31827 2.68154
5 1 9.19147 8.90185 6.5278
6 1 1.33281 2.13097 8.37774
7 1 3.51196 6.83732 5.38948
8 1 4.32425 3.03919 3.03352
9 1 0.646013 5.96527 5.64434
10 1 6.94938 0.206387 6.28178
11 1 1.04849 6.83188 6.25881
12 1 7.30882 3.84089 7.00392
13 1 8.45663 8.05732 0.76909
14 1 7.48672 7.99151 2.22416
15 1 9.00239 5.35451 6.06243
16 1 0.721416 3.92644 0.256203
17 1 2.17069 1.90428 5.91922
18 1 6.9845 7.6625 4.83391
19 1 0.90562 3.53882 6.32569
20 1 5.10539 5.48925 8.62285
21 1 4.56816 4.12134 0.557299
22 1 0.158858 7.53228 3.99456
23 1 4.79374 7.74294 3.75262
24 1 5.57543 6.58502 4.24008
25 1 1.84907 0.67692 4.57357
26 1 4.6767 0.578811 2.0266
27 1 6.2774 6.85223 3.17728
28 1 5.79887 3.33884 8.36077
29 1 5.13037 1.38481 3.45204
30 1 8.65136 0.0424666 9.29781
31 1 8.94046 2.03872 1.03695
32 1 2.67031 3.67832 3.97628
33 1 8.23904 1.27526 8.8478
34 1 4.77075 7.1628 0.0372364
35 1 6.82067 4.67066 7.19731
36 1 6.3535 8.26334 5.69314
37 1 0.472871 4.20405 5.04516
38 1 7.14254 4.02933 3.47898
39 1 6.821 0.362776 1.17316
40 1 7.6447 8.36228 7.74545
41 1 2.33163 6.003 1.05914
42 1 8.31832 7.0283 1.10367
43 1 7.55443 7.21712 1.65199
44 1 4.37673 2.7789 8.40963
45 1 0.730988 4.25651 7.64268
46 1 0.0104358 5.92886 4.35983
47 1 8.51837 8.4685 4.50788
48 1 2.37882 4.06667 1.09467
49 1 6.85632 4.99942 8.24894
50 1 0.596742 7.24247 1.35708
51 1 1.02455 8.75153 1.11971
52 1 6.39052 7.87845 4.19499
53 1 8.68464 6.8899 3.19445
54 1 8.25825 2.77981 7.70166
55 1 8.05777 0.327921 1.46821
56 1 7.14431 5.16174 9.06008
57 1 7.96373 6.62765 2.49852
58 1 7.51942 8.6591 6.65106
59 1 0.0133357 1.12066 5.56014
60 1 7.56088 5.38355 7.74005
61 1 7.49784 0.874636 4.59004
62 1 0.61495 7.71021 4.96835
63 1 9.34233 0.366113 7.34497
64 1 8.46284 6.91342 6.84971
65 1 3.69853 6.5483 2.94222
66 1 8.51339 0.849278 6.93803
67 1 1.78848 1.19049 6.67048
68 1 6.16984 6.14738 4.83059
69 1 6.80271 3.24324 0.820888
70 1 1.83596 4.37269 6.23869
71 1 3.70957 8.62749 5.69124
72 1 7.67407 9.30332 7.87699
73 1 4.22048 6.64508 2.19644
74 1 1.62613 4.14371 0.537842
75 1 8.03787 3.45541 1.85515
76 1 4.47114 6.45862 5.46674
77 1 7.91495 8.52012 0.0842891
78 1 4.16799 4.89994 6.90863
79 1 7.02624 1.34675 5.20775
80 1 5.72361 8.99045 5.6698
81 1 7.65083 0.335263 3.75102
82 1 6.03379 4.051 1.6122
83 1 0.030816 1.87794 4.92512
84 1 2.00369 9.04408 7.99519
85 1 2.25015 2.66656 5.17779
86 1 2.82369 7.72246 0.750665
87 1 1.73423 7.85815 2.6429
88 1 2.69642 3.39875 8.21199
89 1 8.29277 8.92305 0.802867
90 1 1.66152 4.90642 5.3841
91 1 9.08197 7.37151 8.60842
92 1 5.99194 3.57197 4.95096
93 1 5.53463 0.570625 5.87076
94 1 2.36812 5.86169 0.0972104
95 1 5.54686 5.6362 5.20277
96 1 5.36908 3.61541 0.405979
97 1 3.42509 1.59973 0.851173
98 1 8.35608 1.82534 8.13948
99 1 3.7262 3.63031 8.23322
100 1 5.17934 6.63502 2.73605
101 1 5.15042 2.98865 1.87656
102 1 5.13296 4.24115 1.53245
103 1 1.0052 7.7813 6.98249
104 1 7.17755 5.77802 0.404544
105 1 7.70524 7.49777 8.04336
106 1 1.40833 0.341979 8.37542
107 1 2.73454 4.91002 5.47449
108 1 1.71014 3.60135 4.53376
109 1 2.18857 8.97798 6.86375
110 1 3.8011 7.52125 3.27393
111 1 5.9701 6.43275 6.78437
112 1 6.87028 8.36609 1.47614
113 1 2.12099 6.53054 4.60276
114 1 0.421427 0.0721882 1.05893
115 1 0.625035 4.96571 5.98744
116 1 2.89423 3.2133 3.12627
117 1 5.54526 2.03301 1.78808
118 1 1.00324 1.30627 4.69186
119 1 4.13887 4.79154 4.56208
120 1 7.64496 7.26814 9.10438
121 1 5.84045 3.3407 6.51373
122 1 2.83475 2.61794 2.34011
123 1 3.84904 5.04538 2.05691
124 1 3.71394 1.32254 2.70746
125 1 7.30955 4.8491 4.81889
126 1 2.02962 0.721608 1.33039
127 1 2.30298 5.01859 7.87218
128 1 2.36883 4.47356 8.51823
129 1 5.9597 4.4104 4.34827
130 1 3.68264 4.25167 7.1856
131 1 2.85996 8.90532 9.04266
132 1 6.12773 4.20082 5.67892
133 1 1.85133 4.42343 3.49238
134 1 6.19311 9.04519 9.37606
135 1 0.946484 4.64067 2.99112
136 1 4.18708 4.54713 9.03765
137 1 8.25742 7.05109 5.09794
138 1 0.40704 9.37695 5.45057
139 1 2.07787 5.60251 5.73329
140 1 0.883503 1.27373 7.21889
141 1 7.42602 5.01235 6.35788
142 1 8.09586 5.91374 4.50795
143 1 2.86549 1.29016 2.28796
144 1 8.05466 7.6344 7.14468
145 1 6.87839 9.38438 7.35687
146 1 7.03606 4.13048 7.88465
147 1 0.417642 7.34583 5.70286
148 1 8.79793 0.0340984 8.24897
149 1 0.855065 2.92122 0.627508
150 1 4.61535 2.01933 9.34712
151 1 1.99622 1.51679 8.95314
152 1 2.11705 8.6467 5.96508
153 1 7.21284 3.98653 1.64336
154 1 9.06005 2.30877 7.81993
155 1 4.26435 5.79459 2.77524
156 1 2.96955 8.11683 6.15419
157 1 0.0610951 2.01631 7.04981
158 1 2.53172 7.22945 8.7436
159 1 5.1133 5.90711 0.84565
160 1 4.98782 7.20023 7.75324
161 1 8.47076 2.10788 7.19065
162 1 2.05479 2.09043 3.86768
163 1 5.16952 6.72608 8.70405
164 1 0.178886 4.075 6.09693
165 1 6.99258 0.981628 6.82339
166 1 8.90475 2.93132 2.11116
167 1 1.55798 8.41937 0.292361
168 1 6.78131 2.45707 0.032937
169 1 8.13589 2.24226 1.64192
170 1 9.15963 2.62615 8.89182
171 1 9.19158 5.37492 1.92335
172 1 5.44397 2.36444 8.70545
173 1 5.15885 9.24337 3.05335
174 1 0.133573 6.54144 5.07981
175 1 0.010768 5.0405 3.36198
176 1 2.20361 5.53475 2.84029
177 1 0.96669 5.19238 4.93861
178 1 9.2652 6.36469 5.86336
179 1 0.267064 1.81567 6.21214
180 1 1.65217 2.08702 2.36206
181 1 7.42795 4.78112 0.583627
182 1 2.54141 4.01722 6.66939
183 1 6.39797 0.831542 4.65242
184 1 1.31953 3.76115 7.08691
185 1 4.69341 4.02212 6.8931
186 1 4.43692 5.40765 3.85551
187 1 1.52157 5.72356 8.81661
188 1 6.30576 3.23881 3.18697
189 1 3.89636 5.82617 7.75366
190 1 8.85093 3.4147 2.94504
191 1 8.26788 3.68855 3.72567
192 1 4.65085 8.13534 6.51576
193 1 7.18387 8.96861 5.75542
194 1 1.37967 8.93624 7.28282
195 1 5.98539 7.1508 8.60922
196 1 8.94064 5.08016 8.93955
197 1 3.26693 0.665515 0.638239
198 1 1.95807 3.73436 2.72963
199 1 4.01817 4.72736 2.85242
200 1 8.96707 0.220314 0.864209
201 1 2.88564 3.66108 4.86802
202 1 5.41047 5.84304 3.56206
203 1 5.08973 1.67292 7.2076
204 1 7.35228 2.59615 8.61207
205 1 9.06943 7.79573 3.10324
206 1 1.99914 2.2241 7.04862
207 1 3.78697 0.963176 5.14257
208 1 8.04957 7.4481 2.89723
209 1 2.6707 5.81258 4.13447
210 1 2.64981 1.91714 0.0501506
211 1 4.56418 2.47623 7.46734
212 1 2.61483 4.08178 9.20837
213 1 2.13512 9.16772 1.61145
214 1 4.9635 2.18496 3.47486
215 1 1.2444 1.47658 0.331533
216 1 4.5075 4.34247 3.63257
217 1 3.37003 7.8475 5.32299
218 1 3.82134 5.21899 0.64601
219 1 2.17746 1.01007 5.62944
220 1 7.31884 7.05621 3.34048
221 1 2.26937 6.12636 2.12414
222 1 1.42123 7.1551 4.27082
223 1 3.1705 4.46095 1.42241
224 1 5.4864 2.86312 3.89936
225 1 4.31425 8.28706 2.99655
226 1 5.05439 8.92279 7.26371
227 1 8.01301 1.41663 1.99672
228 1 2.84292 4.87076 7.12683
229 1 4.31569 3.61867 1.9443
230 1 3.75176 3.88113 4.08217
231 1 1.86744 1.79076 4.92317
232 1 8.28945 0.431957 4.52383
233 1 3.27459 7.45208 1.54883
234 1 2.59565 0.356442 6.14878
235 1 3.99126 0.967739 0.237805
236 1 3.84861 1.87392 1.72276
237 1 2.9593 7.70084 3.89154
238 1 3.19334 2.74218 4.94563
239 1 0.00877161 1.22033 3.01877
240 1 2.01129 0.0414793 5.33991
241 1 1.62772 7.46445 9.1373
242 1 1.25509 9.06854 2.23457
243 1 0.278072 2.97728 3.44629
244 1 3.20685 0.68115 3.2361
245 1 5.78793 9.12224 4.03112
246 1 8.43147 3.49455 4.88551
247 1 4.68033 8.90063 5.2114
248 1 3.13603 0.497383 8.30654
249 1 5.9181 7.39019 7.24802
250 1 3.6208 0.478632 2.28053
251 1 2.08904 7.00764 2.37895
252 1 9.28402 7.00192 0.688228
253 1 8.01548 3.60554 7.52808
254 1 6.48108 2.4268 4.19302
255 1 4.71009 0.125835 4.54725
256 1 3.61493 3.33357 5.90817
257 1 0.275674 7.11821 2.26161
258 1 5.21635 7.73777 8.64193
259 1 9.37774 4.98126 5.13783
260 1 5.82017 0.373652 0.643097
261 1 7.07801 6.12517 2.86858
262 1 5.16257 7.55538 4.88731
263 1 2.65581 2.83045 7.36303
264 1 1.45799 1.38396 1.17253
265 1 8.33205 0.877538 0.276988
266 1 5.85187 3.13669 1.0972
267 1 7.63593 5.87651 6.52409
268 1 6.96617 1.86013 3.37231
269 1 2.11413 7.56439 1.46826
270 1 2.16359 1.68997 7.95403
271 1 2.21345 0.81065 8.03623
272 1 8.89524 4.49649 5.7153
273 1 3.97912 8.4804 1.25503
274 1 3.66575 2.56073 7.23034
275 1 5.50106 1.66591 0.900031
276 1 4.98027 3.20718 6.53024
277 1 7.44782 8.83765 3.42967
278 1 5.80545 8.21357 4.88653
279 1 2.72282 0.211386 7.1671
280 1 6.08462 2.3445 3.43385
281 1 1.456 5.98714 5.23772
282 1 5.33045 7.26291 1.07601
283 1 5.62627 8.76403 6.62461
284 1 4.87474 4.08015 4.58062
285 1 4.70248 6.17356 7.90146
286 1 7.98296 9.25544 2.72231
287 1 8.25329 4.85177 2.19737
288 1 0.463093 9.31102 0.149279
289 1 7.71723 0.12435 0.344967
290 1 5.10221 2.68241 1.01287
291 1 3.73519 1.3424 8.47909
292 1 2.56854 4.20002 2.03604
293 1 0.10078 3.70194 1.99388
294 1 2.62712 6.77561 1.38204
295 1 2.5075 5.84604 6.9185
296 1 4.12367 0.905207 4.14331
297 1 6.62931 0.2729 5.37078
298 1 5.07325 5.03957 4.62181
299 1 5.51432 6.45812 7.62444
300 1 2.74532 0.481078 2.5238
301 1 9.23271 7.74878 0.0896192
302 1 6.20187 8.05963 9.03393
303 1 7.70472 3.06706 0.968346
304 1 3.72572 8.28322 3.77524
305 1 7.25408 7.79843 3.85067
306 1 8.0835 1.65274 0.966401
307 1 2.89966 5.2466 0.89812
308 1 9.26812 2.16308 1.80402
309 1 7.46815 5.99299 8.93842
310 1 6.73682 0.846066 8.57572
311 1 5.31675 6.51354 5.1837
312 1 6.04176 1.6456 7.21622
313 1 2.89276 1.97067 1.6128
314 1 2.76596 6.22916 3.04299
315 1 3.12497 5.93636 0.384213
316 1 1.45782 8.79238 3.11271
317 1 9.12923 3.43858 4.1307
318 1 8.97249 7.46451 7.54024
319 1 2.0708 3.42987 7.6762
320 1 1.07478 3.50461 7.95564
321 1 6.28627 1.09035 1.14392
322 1 4.08161 8.18694 7.34871
323 1 8.49002 3.67687 9.33418
324 1 1.07881 5.09175 2.15708
325 1 4.29988 4.31738 7.93889
326 1 3.06826 1.87443 5.23997
327 1 3.15585 0.0108658 1.25008
328 1 6.72678 3.20228 4.75036
329 1 4.78386 2.28928 4.73723
330 1 0.687556 3.82338 4.15558
331 1 7.65203 2.96457 4.84017
332 1 4.64806 0.551521 5.53624
333 1 7.79186 2.15343 5.64411
334 1 1.34653 2.28751 9.32676
335 1 6.54122 8.03153 2.37547
336 1 0.091149 7.98531 6.40292
337 1 8.29293 0.716233 7.82616
338 1 8.78318 1.99079 0.0424601
339 1 9.30378 4.52517 0.899021
340 1 7.78705 1.40865 3.81305
341 1 2.41377 8.14537 3.07857
342 1 0.218423 0.972551 2.07247
343 1 7.35937 1.42207 6.03845
344 1 5.42224 1.94533 5.56403
345 1 2.25896 8.20097 7.54178
346 1 6.12015 4.18987 8.08762
347 1 5.05331 4.96523 3.1207
348 1 5.99815 4.05043 9.09914
349 1 3.10874 0.514564 4.0756
350 1 6.88137 1.94269 6.93336
351 1 2.39512 9.37615 3.25013
352 1 6.98732 1.61176 4.34667
353 1 9.39891 7.21087 6.82096
354 1 9.17635 2.91371 7.12702
355 1 3.06844 6.55577 2.23624
356 1 8.97518 0.839956 8.82981
357 1 0.372374 0.672087 8.48147
358 1 1.42617 7.8738 7.84324
359 1 0.0112478 3.76981 7.91485
360 1 3.0393 4.16366 7.81703
361 1 0.0136435 8.1674 8.41763
362 1 6.48341 7.46782 1.49231
363 1 2.16642 0.93328 3.74269
364 1 4.87379 3.73048 8.46645
365 1 0.545981 8.63649 6.85992
366 1 5.83617 7.55682 5.55834
367 1 9.1664 7.96447 2.28725
368 1 6.69232 9.0519 0.777836
369 1 3.59297 3.7044 1.16983
370 1 0.412455 8.88566 2.28281
371 1 7.87592 8.7202 1.64495
372 1 8.87534 0.267487 5.21295
373 1 5.30107 3.75615 7.63722
374 1 8.72322 6.23432 0.811484
375 1 6.95054 6.91906 2.39544
376 1 3.34971 8.13195 8.08708
377 1 2.47243 3.18768 -0.00271801
378 1 9.1329 1.30637 0.412442
379 1 6.18089 3.55935 4.05297
380 1 3.71198 3.85613 3.17015
381 1 8.82101 5.89391 5.04253
382 1 7.54035 5.00464 1.73907
383 1 1.26681 6.48452 1.19108
384 1 3.81304 2.07629 7.91972
385 1 1.24861 6.55975 9.19777
386 1 6.08387 6.82618 5.94269
387 1 7.99304 6.3408 0.313723
388 1 6.44961 7.80829 3.24788
389 1 6.8357 6.57611 5.28276
390 1 6.53134 6.90317 4.01291
391 1 7.85482 0.736798 6.18557
392 1 0.760354 1.93879 1.00385
393 1 6.48982 3.41976 5.87424
394 1 2.22462 4.21074 5.16988
395 1 7.37878 5.55516 3.84797
396 1 6.64264 8.61498 8.13439
397 1 2.44296 4.6602 4.39079
398 1 2.982 1.23662 5.93093
399 1 4.64591 7.03802 4.53464
400 1 5.12051 8.2935 2.37072
401 1 2.17644 8.48555 0.95419
402 1 4.54553 3.43329 3.96143
403 1 8.03807 5.40136 0.295306
404 1 7.74102 4.20241 2.37156
405 1 3.82973 2.10355 3.64608
406 1 7.45254 8.7933 4.35455
407 1 5.00919 7.19355 2.06007
408 1 8.00561 6.1494 8.1883
409 1 0.831448 5.47198 7.11556
410 1 6.39307 3.43636 7.30507
411 1 8.655 0.828416 2.29115
412 1 3.4779 3.98837 2.19124
413 1 0.775513 8.72321 8.0217
414 1 9.0874 4.27428 3.79416
415 1 3.2201 6.43234 7.23197
416 1 6.32078 8.0057 0.788357
417 1 2.69852 7.42169 7.79188
418 1 8.40702 1.6259 6.28487
419 1 4.23234 8.08685 9.14157
420 1 8.1114 9.08686 5.12444
421 1 6.7139 3.00392 1.68326
422 1 0.20426 9.18221 8.61321
423 1 9.10072 7.66821 1.37024
424 1 1.23959 8.01194 6.11346
425 1 8.20412 2.87126 4.16359
426 1 3.26393 7.28256 4.61158
427 1 3.97072 6.01069 4.48608
428 1 5.61814 5.31996 0.25826
429 1 4.91672 9.17603 6.12347
430 1 0.459404 0.452355 4.70705
431 1 6.90824 0.905775 3.70007
432 1 0.803245 3.93672 1.17615
433 1 1.19835 1.18696 8.14275
434 1 0.929381 5.25777 9.25463
435 1 8.38729 8.03706 5.37458
436 1 0.302225 6.68564 4.06521
437 1 5.67935 5.09781 3.92179
438 1 6.14656 1.31046 3.15701
439 1 1.04485 2.21976 4.5321
440 1 0.0327564 3.38391 9.38869
441 1 6.34616 5.19202 5.30196
442 1 0.338084 7.91806 7.50122
443 1 8.69564 7.0453 2.19272
444 1 4.86987 3.24517 4.90289
445 1 8.28825 6.24235 5.84446
446 1 0.498635 2.0851 3.79517
447 1 5.04243 8.06582 7.74094
448 1 2.85531 0.839333 4.97471
449 1 2.87467 8.94788 5.59704
450 1 3.90139 4.22019 6.28726
451 1 6.66419 2.96953 6.59182
452 1 6.71625 4.6692 1.12956
453 1 6.25001 0.325541 3.39504
454 1 4.88567 5.00021 7.5788
455 1 4.33726 5.27038 8.3338
456 1 8.267 6.99844 8.59153
457 1 2.42758 6.3213 8.67652
458 1 6.5183 2.10899 2.6245
459 1 4.03991 7.4456 4.07816
460 1 6.66564 6.60351 9.0311
461 1 5.51075 0.601378 4.14151
462 1 8.49104 5.12105 7.68895
463 1 4.28758 7.33983 6.70878
464 1 4.51943 7.37838 2.72521
465 1 8.65941 1.01311 1.39669
466 1 1.87617 6.27945 3.23435
467 1 7.27322 1.55791 1.40725
468 1 8.57153 8.54011 8.1916
469 1 6.59403 8.66852 3.68808
470 1 4.17363 0.128304 7.60179
471 1 4.81761 0.425639 0.183875
472 1 1.6886 9.33557 0.570813
473 1 8.63274 2.40445 4.79899
474 1 6.63197 5.86908 8.36586
475 1 3.25495 6.59542 9.03355
476 1 3.65079 7.24283 7.74631
477 1 8.42396 6.28899 1.70519
478 1 8.8815 4.08404 6.69
479 1 3.74838 5.63354 6.90061
480 1 3.61135 4.81246 3.62537
481 1 4.76312 1.23782 4.95878
482 1 0.190431 0.377041 6.19913
483 1 3.31393 8.33438 2.91957
484 1 7.42519 7.16736 0.700523
485 1 2.84328 0.987472 1.37735
486 1 9.38402 1.19513 6.71832
487 1 0.427712 1.79662 7.85519
488 1 5.67577 5.64531 6.81542
489 1 5.3743 0.876462 7.45384
490 1 7.69655 6.16854 5.18085
491 1 8.96876 4.2046 4.77268
492 1 7.61354 6.86658 4.38585
493 1 1.77795 3.19991 0.774611
494 1 7.90547 4.27101 9.21938
495 1 6.97879 4.22697 8.92073
496 1 8.81044 3.52289 5.92466
497 1 0.65973 2.7376 9.05414
498 1 1.5479 5.3251 3.48269
499 1 0.531944 9.1551 3.32236
500 1 6.43576 0.984926 5.99897
501 1 8.82148 7.37191 5.78149
502 1 8.59967 4.07969 1.95013
503 1 5.57963 7.80753 6.39451
504 1 6.76961 7.46157 8.13308
505 1 8.60274 4.43523 2.98878
506 1 6.86628 6.37075 6.58069
507 1 4.02395 6.69216 0.238501
508 1 0.128606 3.40785 5.34429
509 1 7.70662 4.55152 8.16907
510 1 5.00188 5.72633 2.32704
511 1 3.30168 6.40422 8.16258
512 1 5.61305 1.00374 5.14309
513 1 3.81468 2.33042 5.61757
514 1 7.88526 8.9322 8.63216
515 1 6.13207 4.90516 6.33083
516 1 4.94187 0.854412 2.80233
517 1 1.73764 1.32083 3.03507
518 1 5.47134 4.82101 5.45774
519 1 0.0830682 5.20542 0.18088
520 1 4.03563 7.66367 5.92368
521 1 0.390678 8.12355 1.64179
522 1 3.09919 9.08489 2.36172
523 1 2.94118 5.58969 7.66154
524 1 1.71471 5.18919 0.703838
525 1 6.6869 1.74659 0.642734
526 1 5.02125 6.10015 6.05011
527 1 4.29185 6.29547 3.65674
528 1 2.95141 5.38206 8.56034
529 1 6.84936 7.46763 0.0598989
530 1 4.87779 8.68253 4.30833
531 1 5.29421 9.16504 8.07126
532 1 2.80025 5.16509 1.98135
533 1 6.90837 8.39795 0.125283
534 1 7.61078 2.02155 7.60849
535 1 3.85559 0.796615 6.8152
536 1 2.2412 2.70832 8.63872
537 1 2.34269 0.413609 9.22792
538 1 2.31116 7.65221 6.80697
539 1 1.17065 6.57835 2.24242
540 1 1.20712 0.18931 3.71636
541 1 6.32921 5.38159 4.37612
542 1 3.47099 2.79575 0.996174
543 1 5.38389 7.68081 3.11409
544 1 3.69916 2.83158 0.0921145
545 1 8.1694 6.00696 7.35306
546 1 3.35623 4.91654 6.20788
547 1 2.29223 2.96466 4.3071
548 1 4.74403 2.56365 5.67288
549 1 4.0512 0.468666 8.56969
550 1 8.74291 3.45081 8.51515
551 1 8.84061 1.13976 4.66338
552 1 4.04147 9.3071 1.68368
553 1 0.290322 6.14938 2.05965
554 1 6.34534 9.18637 2.14691
555 1 1.5494 2.27749 1.33932
556 1 3.17673 6.72879 3.77214
557 1 3.66369 8.74361 8.61142
558 1 5.78494 5.44293 7.94413
559 1 4.06085 2.69792 4.29979
560 1 2.14736 7.03337 3.79609
561 1 2.87337 1.92802 7.42587
562 1 2.61396 6.3383 5.54504
563 1 1.31465 8.29681 4.21284
564 1 1.0284 9.0137 6.17192
565 1 5.79688 2.65446 4.81731
566 1 6.69358 8.66031 4.88915
567 1 7.96726 0.98194 2.95786
568 1 8.11507 8.23147 3.4971
569 1 0.806697 7.6539 8.56097
570 1 1.25283 7.50727 1.97619
571 1 6.38213 2.51301 7.44241
572 1 9.16645 8.71274 1.52302
573 1 8.94739 8.76654 5.5457
574 1 5.78473 1.97016 7.94264
575 1 2.65314 4.8842 3.58732
576 1 6.49807 7.29181 6.59848
577 1 0.785163 1.51169 8.83369
578 1 5.89841 2.34527 6.52755
579 1 1.1292 0.568385 5.4679
580 1 2.17119 8.74615 2.46176
581 1 7.97005 6.82457 7.53225
582 1 8.21197 2.43174 8.88924
583 1 2.93534 1.17761 8.91501
584 1 8.39188 2.82561 6.72909
585 1 8.75502 5.21438 4.43475
586 1 0.683599 0.139919 7.71813
587 1 9.37774 8.38078 4.77679
588 1 1.67246 6.46382 7.05737
589 1 8.30927 4.69471 0.725606
590 1 6.56006 6.02466 3.78075
591 1 7.80466 1.38602 6.95875
592 1 5.52669 4.00562 2.67784
593 1 0.20632 4.59019 8.38459
594 1 3.30627 0.286884 9.21302
595 1 2.00705 4.33246 7.38777
596 1 0.125366 6.32049 3.01573
597 1 1.77594 3.55962 5.87828
598 1 8.10585 5.69054 2.48688
599 1 6.75391 1.85776 8.01319
600 1 7.441 8.29487 5.20196
601 1 2.82203 4.15679 2.91699
602 1 1.09313 4.21814 5.60581
603 1 0.874758 5.27882 8.17546
604 1 6.42606 1.07369 0.153717
605 1 0.0230959 5.35026 1.05771
606 1 6.38483 0.987329 7.62026
607 1 3.69037 8.34627 6.5387
608 1 8.2052 7.8837 8.67932
609 1 0.782928 1.02136 6.23364
610 1 1.99865 2.77198 2.84438
611 1 1.25139 3.40826 3.27035
612 1 4.36058 8.51135 0.473944
613 1 5.86368 2.76073 5.66971
614 1 2.65029 7.68355 2.24363
615 1 5.28885 3.65687 5.70223
616 1 4.14695 7.17396 1.16397
617 1 3.80068 2.21429 2.55729
618 1 0.840301 3.96681 8.74883
619 1 7.68789 3.49462 3.04078
620 1 2.34293 8.46993 4.86987
621 1 3.46932 8.70108 0.25451
622 1 4.57495 9.02286 9.05653
623 1 4.34363 7.74864 1.83151
624 1 3.31755 2.84414 7.99351
625 1 7.32042 3.18667 7.90158
626 1 0.617793 2.27135 5.4201
627 1 4.61793 4.56058 5.76396
628 1 4.73697 1.03636 6.47639
629 1 6.9461 3.99614 5.00055
630 1 0.469688 8.4034 5.67505
631 1 1.71566 5.61399 1.64777
632 1 3.23124 3.64001 0.349468
633 1 9.25465 8.67402 2.9559
634 1 8.75352 1.69979 3.5301
635 1 4.35617 7.81641 8.32578
636 1 4.36159 1.09171 7.53972
637 1 2.8468 7.24463 5.93865
638 1 0.486755 4.74607 1.5759
639 1 9.16597 2.4355 5.76055
640 1 2.10843 9.32104 4.14564
641 1 5.62694 0.468401 9.04967
642 1 3.39154 5.9289 1.43094
643 1 1.95767 7.33974 6.06289
644 1 8.57636 3.86058 1.13723
645 1 7.73009 6.35207 1.13389
646 1 5.25898 0.263873 6.82271
647 1 0.866144 6.98188 0.534425
648 1 7.68021 2.18109 0.336522
649 1 6.50238 4.03341 2.45308
650 1 3.39468 1.09468 7.59636
651 1 8.89141 6.52528 7.7838
652 1 3.82261 4.9536 5.40588
653 1 8.49038 5.05604 6.68835
654 1 9.0702 4.48647 7.50878
655 1 6.80591 0.328454 0.174727
656 1 0.540106 4.73712 4.33306
657 1 1.59427 2.69384 7.71063
658 1 4.20981 4.63718 1.29744
659 1 1.14032 2.37211 3.16413
660 1 2.16605 3.03147 6.53788
661 1 8.27503 7.72429 1.6093
662 1 8.30796 5.21481 3.48271
663 1 7.62484 0.850302 0.954871
664 1 3.75732 5.9707 8.77182
665 1 1.69411 5.41604 4.41405
666 1 5.18165 7.95818 0.121781
667 1 6.25277 5.82988 1.42782
668 1 4.17079 2.68453 6.47955
669 1 0.827874 5.6527 1.41352
670 1 0.305588 5.35867 2.56421
671 1 8.62552 0.830927 3.75614
672 1 1.00888 3.39618 5.30205
673 1 4.42985 3.58456 6.01254
674 1 6.10281 5.15936 8.8392
675 1 6.44135 1.7089 1.81545
676 1 8.73631 2.98967 1.24472
677 1 1.41047 6.89358 5.36045
678 1 6.28165 4.31791 3.40226
679 1 5.69658 4.9919 1.58633
680 1 8.36334 9.23903 3.62491
681 1 2.89877 5.54123 6.1042
682 1 1.56814 6.7599 8.36092
683 1 3.14947 4.98345 2.80234
684 1 5.12703 6.02719 9.3215
685 1 5.89518 8.29525 1.73801
686 1 6.36802 2.57272 8.41441
687 1 2.12439 7.97676 3.88429
688 1 0.436871 6.21547 6.55338
689 1 4.73318 1.08219 9.00399
690 1 8.01745 6.28659 3.51891
691 1 7.96887 3.43115 6.31763
692 1 6.11312 8.65731 7.38747
693 1 6.98152 2.3107 5.13055
694 1 0.334292 7.1456 3.30737
695 1 0.886469 1.18101 3.13027
696 1 4.22856 6.76567 8.40822
697 1 1.45348 4.52903 4.30469
698 1 8.61928 9.28393 7.36295
699 1 4.19326 6.51817 6.44135
700 1 1.72412 5.27786 7.25437
701 1 8.66292 1.74736 2.40202
702 1 6.99499 0.100952 2.89345
703 1 3.61105 9.27274 3.07269
704 1 6.62165 5.20049 3.36257
705 1 4.22726 2.24334 0.807689
706 1 2.73714 9.17815 0.516349
707 1 3.33527 1.64111 6.66654
708 1 7.17733 6.99881 7.11058
709 1 3.61535 5.95982 5.31017
710 1 7.47605 2.4323 3.76071
711 1 7.61431 8.16937 0.989512
712 1 4.17491 1.2875 3.3705
713 1 7.57888 3.75818 4.28951
714 1 5.57501 2.00017 2.63644
715 1 0.354182 3.11968 2.59984
716 1 5.58432 8.69469 8.76195
717 1 1.30685 0.608303 9.26041
718 1 8.83672 2.52261 3.02784
719 1 6.20876 7.05846 4.8125
720 1 5.74098 7.18347 0.112109
721 1 2.08996 1.43624 1.93525
722 1 5.38848 3.95824 3.73986
723 1 8.09154 5.15179 5.76096
724 1 7.82092 4.64022 7.31083
725 1 0.37705 3.63225 6.94981
726 1 4.64102 5.23114 0.00378135
727 1 2.08326 6.98707 0.488507
728 1 2.7864 3.28501 5.67626
729 1 3.91264 0.851168 1.31931
730 1 6.3711 6.69424 7.84016
731 1 1.72664 8.25555 1.80437
732 1 3.41685 7.80506 0.0473036
733 1 7.79048 0.471236 5.36898
734 1 7.23707 2.09573 2.05324
735 1 5.59995 7.44464 4.03634
736 1 1.09551 5.97343 0.429668
737 1 6.05265 0.17935 7.25158
738 1 9.08562 7.48172 4.88459
739 1 2.30695 6.62521 7.70453
740 1 6.54705 4.16148 6.47842
741 1 6.22376 1.81644 5.12853
742 1 6.52374 4.9358 0.275843
743 1 6.13651 7.25397 2.25988
744 1 1.29794 8.67471 5.42386
745 1 4.19172 7.613 5.07393
746 1 0.3643 2.90747 4.64408
747 1 8.68236 6.71818 4.12374
748 1 2.61198 6.65981 6.55819
749 1 7.38335 0.971053 7.95652
750 1 6.72976 5.03083 1.93105
751 1 5.99747 7.91399 7.94625
752 1 8.01402 4.29958 6.27251
753 1 2.76086 8.61583 3.8038
754 1 3.11151 2.18501 4.30983
755 1 4.46956 6.27881 1.2642
756 1 0.814381 0.186675 6.79591
757 1 7.3327 1.30143 0.220789
758 1 4.39844 2.66826 1.52819
759 1 7.29772 4.10591 5.867
760 1 3.98051 0.0322093 0.501649
761 1 7.01495 9.12182 8.824
762 1 3.29615 9.096 7.95806
763 1 1.00896 6.55523 3.44062
764 1 3.60488 4.89074 7.82756
765 1 0.756151 2.01291 1.9673
766 1 4.656 1.65845 2.5704
767 1 0.376816 7.12615 9.16124
768 1 2.95263 3.35648 1.64918
769 1 4.34327 3.5915 9.25773
770 1 7.51378 2.74149 7.05824
771 1 4.92657 1.61384 8.21734
772 1 4.20447 9.09656 3.83624
773 1 8.10728 5.29981 8.69845
774 1 3.51875 7.41243 2.46823
775 1 3.86424 0.115903 4.76749
776 1 8.60907 4.33668 8.41036
777 1 7.10371 5.6212 1.276
778 1 5.75401 8.63734 3.23714
779 1 5.55092 1.23788 0.105381
780 1 8.12028 4.46274 4.36964
781 1 9.12544 5.62618 8.1981
782 1 0.455743 2.96514 1.53586
783 1 7.73459 3.92526 0.787332
784 1 5.30529 4.5414 8.21117
785 1 7.27438 1.65715 8.67943
786 1 5.17985 8.32576 5.75474
787 1 3.75891 2.09393 9.10514
788 1 6.11955 1.4554 4.0629
789 1 5.12571 6.79277 6.81725
790 1 2.37043 4.90111 0.019228
791 1 2.51415 8.22991 8.43129
792 1 3.40762 7.22575 6.69899
793 1 6.72179 2.11772 5.98771
794 1 1.25477 3.19318 1.52871
795 1 5.6018 1.20149 6.59151
796 1 4.5649 1.82595 4.06761
797 1 5.79098 8.71351 0.960857
798 1 8.68623 8.35645 7.18206
799 1 8.63279 6.04524 9.15738
800 1 3.59454 3.13009 3.619
801 2 4.52511 1.41993 5.76474
802 2 3.65267 0.282731 5.87944
803 2 4.60278 3.94147 2.67409
804 2 1.24899 2.8913 2.38969
805 2 6.7807 6.61173 1.23106
806 2 8.38377 9.31675 6.15521
807 2 6.74885 4.10862 0.437926
808 2 5.93532 0.364517 1.62689
809 2 5.44085 1.66595 4.59582
810 2 1.87243 4.72387 2.64073
811 2 6.79505 0.0203992 4.35369
812 2 5.30404 3.18277 3.10063
813 2 8.99016 0.413007 3.02218
814 2 4.7105 1.71722 1.64815
815 2 7.77724 3.5428 8.58618
816 2 7.7331 0.280771 7.00027
817 2 6.95566 3.24443 3.82944
818 2 6.052 3.10476 2.38285
819 2 6.59895 0.751925 2.18803
820 2 5.79455 4.68946 7.28775
821 2 1.21254 1.59952 3.79193
822 2 1.6889 4.5776 1.60919
823 2 5.23997 8.99808 0.240122
824 2 3.51496 5.73366 2.3548
825 2 4.61953 5.42884 5.26303
826 2 5.61952 2.30094 0.273716
827 2 6.13563 6.08957 2.5388
828 2 6.83428 7.96885 7.23302
829 2 6.28105 5.833 0.424839
830 2 8.78366 0.714896 5.92508
831 2 7.50771 6.87573 5.85222
832 2 1.21459 9.05244 9.07116
833 2 4.1221 1.86098 7.02709
834 2 5.09587 0.711215 1.12509
835 2 3.14954 6.86279 0.487406
836 2 9.0631 8.44602 3.77179
837 2 5.79984 6.13759 8.7667
838 2 9.18614 4.21934 9.19869
839 2 3.00911 2.62372 6.47262
840 2 4.88303 2.57805 2.52722
841 2 8.00775 2.84966 2.60844
842 2 7.24835 6.2237 7.52884
843 2 1.25629 1.56083 5.64961
844 2 2.76596 5.67333 5.02227
845 2 0.531875 2.75144 8.0396
846 2 2.5286 8.25407 0.0115244
847 2 9.38451 5.64376 7.30967
848 2 2.48907 1.11172 7.22512
849 2 0.47573 7.9894 0.657604
850 2 8.12126 7.27472 3.73596
851 2 2.57769 1.47071 3.04942
852 2 7.60408 7.67178 6.39856
853 2 0.432709 3.88763 3.23725
854 2 4.7993 9.03683 1.0669
855 2 9.39977 4.8598 6.79431
856 2 1.48908 4.6702 8.87813
857 2 4.67136 1.3978 0.63553
858 2 3.42315 4.35844 8.62714
859 2 1.48778 3.31655 9.24299
860 2 7.26008 6.6379 8.32539
861 2 8.98411 5.99623 3.6608
862 2 6.78518 4.65885 4.01652
863 2 6.92715 5.73427 4.85886
864 2 3.3044 1.36108 3.92153
865 2 7.50643 4.95952 2.85512
866 2 1.79549 0.126628 6.28375
867 2 6.80912 7.47567 5.75842
868 2 3.58176 4.42012 0.268289
869 2 3.41587 5.72445 3.44992
870 2 2.12999 1.24348 0.472123
871 2 3.8021 8.42793 2.16065
872 2 0.200079 2.02825 2.58465
873 2 5.89696 4.56095 0.737017
874 2 3.98695 8.42942 4.61775
875 2 0.988274 2.55578 7.0405
876 2 1.28397 7.45293 3.3517
877 2 4.84055 0.590909 8.18969
878 2 9.36021 8.87789 7.5792
879 2 9.0378 1.18899 7.82827
880 2 5.77006 1.13362 8.40968
881 2 8.31309 8.2731 6.33583
882 2 1.72782 7.9735 5.212
883 2 9.15853 9.36555 4.20692
884 2 1.4886 5.93333 6.23015
885 2 1.18696 5.77693 2.75278
886 2 0.8198 0.456821 2.63807
887 2 0.0246121 3.64836 1.07441
888 2 3.39522 9.24201 6.59792
889 2 3.20987 3.21879 8.86541
890 2 3.59929 7.38127 8.68123
891 2 1.57902 6.21191 3.99936
892 2 7.8964 4.16497 5.18152
893 2 3.31789 6.43384 6.15945
894 2 7.06225 3.39763 2.45092
895 2 6.19168 1.89646 9.02317
896 2 0.707396 6.9149 7.20178
897 2 2.97312 1.94931 8.43436
898 2 6.28339 0.229688 8.10085
899 2 4.18443 5.47897 6.08296
900 2 9.31415 8.67315 0.569514
901 2 9.1457 1.72681 8.70478
902 2 7.10322 8.73284 2.57592
903 2 7.25858 2.92793 5.98113
904 2 0.598039 8.87393 4.16812
905 2 0.772548 4.74628 0.692828
906 2 8.89121 9.25364 2.30825
907 2 8.41888 8.4165 2.3641
908 2 4.6255 0.436929 3.52921
909 2 0.147724 6.18962 0.229688
910 2 8.79567 1.70404 5.52151
911 2 4.95974 6.87399 3.73758
912 2 7.55921 0.570179 8.86754
913 2 0.0731791 4.51711 2.44726
914 2 5.83653 0.430839 2.5916
915 2 8.59411 2.75241 0.3994
916 2 4.98876 5.04817 0.848439
917 2 5.12937 4.34566 9.25046
918 2 5.61439 1.22261 2.07421
919 2 8.33773 2.78937 5.67014
920 2 4.94324 5.99684 4.4936
921 2 4.88988 2.01918 6.45675
922 2 8.45843 5.28652 1.39774
923 2 4.16824 6.6832 7.38022
924 2 1.32399 2.65401 5.81176
925 2 0.270752 7.11773 8.03718
926 2 7.43382 0.311031 2.12614
927 2 8.72805 6.98753 0.00763718
928 2 4.37988 9.3529 6.80152
929 2 0.605294 8.00009 2.56727
930 2 3.42845 5.35936 4.27812
931 2 3.13023 8.82377 4.65255
932 2 7.53658 3.03108 0.0136209
933 2 1.9149 3.65641 8.57889
934 2 0.814474 4.38515 6.62084
935 2 5.30019 9.16524 1.94666
936 2 1.24829 1.14975 2.17298
937 2 7.88497 7.75806 4.55483
938 2 1.15065 1.78236 6.50981
939 2 3.59156 5.22427 9.21079
940 2 1.50482 5.97263 7.88584
941 2 2.89563 8.35265 1.70329
942 2 7.16186 8.01563 8.63158
943 2 1.66299 8.35824 8.64485
944 2 3.3552 4.40554 4.83544
945 2 7.35684 5.96384 2.0265
946 2 4.89217 2.85142 0.117166
947 2 4.82383 5.92625 7.06468
948 2 0.688655 8.25686 3.49686
949 2 5.5526 0.0817016 4.95327
950 2 4.92871 5.13525 6.565
951 2 8.8057 6.07487 6.70319
952 2 2.80601 7.21004 3.08406
953 2 0.46037 5.81426 8.74354
954 2 0.208629 1.0858 1.19493
955 2 8.79108 8.48323 9.17456
956 2 4.75705 4.8204 2.25061
957 2 4.94359 7.37735 5.94067
958 2 1.46063 7.69456 0.96931
959 2 0.322141 0.854194 9.35039
960 2 6.20264 5.92834 5.98885
961 2 6.30665 5.86769 7.42402
962 2 0.470876 1.97973 0.105156
963 2 5.93683 6.71107 0.889965
964 2 0.774121 6.35294 8.06143
965 2 0.281927 1.08459 3.88164
966 2 2.95245 2.31778 3.32217
967 2 4.42198 8.85888 8.09078
968 2 7.13187 5.63815 5.74607
969 2 4.48488 9.08897 2.49925
970 2 0.95519 4.06048 2.38277
971 2 1.01341 0.652077 0.724596
972 2 3.89526 1.73951 4.67676
973 2 3.97788 3.6016 5.06276
974 2 1.70083 8.25791 6.81836
975 2 2.49939 2.50821 0.913033
976 2 3.4971 3.35235 7.02342
977 2 3.18004 8.01951 7.19094
978 2 4.22767 3.22744 0.743092
979 2 3.2099 4.22546 5.67585
980 2 9.01351 2.49856 4.01412
981 2 1.5926 0.471461 7.35847
982 2 2.45158 7.13908 5.13507
983 2 3.72606 2.9363 2.07353
984 2 3.046 6.44265 4.64423
985 2 0.0542593 2.70305 0.640821
986 2 0.523945 8.26646 9.21045
987 2 8.03067 1.8681 2.96901
988 2 0.859066 6.24051 4.52602
989 2 9.33667 6.49848 8.61631
990 2 2.09215 2.78669 1.82405
991 2 1.23403 0.29991 1.57914
992 2 6.15572 3.07692 0.0633811
993 2 0.606597 5.71264 3.68176
994 2 4.28457 3.39853 7.50958
995 2 6.55444 8.572 6.61535
996 2 5.54462 2.91294 7.238
997 2 9.20176 6.72328 1.54957
998 2 5.06165 8.21697 1.4334