#bin. KALJ data file T=0.5

1000 atoms
2 atom types

0 9.4 xlo xhi
0 9.4 ylo yhi
0 9.4 zlo zhi

Masses

1 1.0
2 1.0

Atoms

1 1 2.25188 3.93373 0.0965492
2 1 2.38508 6.82641 8.97798
3 1 8.95726 5.72072 8.539
4 1 2.90128 7.56847 9.35225
5 1 5.82643 7.72258 1.32111
6 1 7.21092 7.94981 2.30907
7 1 2.20833 6.29517 3.10565
8 1 9.3403 2.82663 9.1884
9 1 4.42807 1.38214 0.629602
10 1 7.83278 3.65937 6.90374
11 1 3.64985 4.98134 9.19877
12 1 5.80191 8.33031 3.80685
13 1 0.711484 1.30922 5.74199
14 1 7.00273 5.45634 4.9595
15 1 8.56684 6.34911 7.80241
16 1 6.22641 7.23222 4.7005
17 1 8.80029 8.53363 1.63204
18 1 1.2234 8.64009 5.30311
19 1 7.79775 3.36275 1.95653
20 1 8.85276 3.98914 1.32965
21 1 5.81449 5.91572 2.90995
22 1 7.3645 4.65253 8.9321
23 1 8.79908 1.72828 1.35175
24 1 0.847813 4.81999 3.55057
25 1 7.93871 8.46401 7.90281
26 1 1.90379 7.83323 2.46671
27 1 1.00634 4.23624 8.53918
28 1 5.5976 1.20001 0.611058
29 1 1.5361 0.74542 6.62353
30 1 7.28296 6.87934 4.50072
31 1 7.2704 7.71169 9.27425
32 1 9.04406 6.88905 2.30897
33 1 6.98769 1.69475 1.5536
34 1 0.0222897 9.24312 1.45256
35 1 6.90435 5.69849 6.87063
36 1 8.98357 0.144516 0.48416
37 1 2.85064 3.24494 1.5823
38 1 8.98922 2.71694 8.01251
39 1 7.13636 8.85196 1.55902
40 1 9.23147 3.84009 5.37333
41 1 2.56829 8.75052 5.55459
42 1 3.54125 7.34733 1.02132
43 1 2.83464 8.02189 6.08488
44 1 2.49987 6.74803 1.19557
45 1 8.2651 5.81809 6.98855
46 1 3.02882 4.09184 3.15191
47 1 2.53552 3.61315 5.25818
48 1 8.32111 3.64366 5.34796
49 1 0.536987 9.26404 7.89291
50 1 2.02694 2.8954 3.21893
51 1 6.7198 8.09573 8.58341
52 1 6.30959 2.40724 3.3965
53 1 0.207691 6.11488 0.0873401
54 1 5.25091 9.02885 4.21288
55 1 4.90276 5.83034 2.94709
56 1 9.4026 5.57701 6.346
57 1 2.89206 6.77049 6.80975
58 1 7.06515 2.90685 3.3687
59 1 5.45719 1.41232 2.70089
60 1 3.14985 4.6223 8.37909
61 1 7.3285 8.70549 9.09033
62 1 5.70561 3.11617 5.08144
63 1 1.28844 3.08949 6.19323
64 1 3.70505 1.76741 5.45031
65 1 0.578788 3.86725 9.26668
66 1 3.84154 6.87706 7.00099
67 1 9.08885 4.16573 3.55425
68 1 8.38601 8.23271 3.17716
69 1 5.49342 4.89895 2.83179
70 1 6.29112 8.42309 1.10796
71 1 3.09402 0.71837 4.07884
72 1 8.11736 0.810269 2.45371
73 1 3.27042 1.30682 3.43917
74 1 2.68013 7.5043 8.40788
75 1 2.74909 2.58983 7.65871
76 1 0.495311 2.56546 6.58653
77 1 8.55594 0.729518 4.67023
78 1 8.9267 4.04228 7.83464
79 1 2.58568 2.33718 1.27224
80 1 9.33491 6.86538 1.50817
81 1 0.0380001 7.57261 8.40574
82 1 5.69587 9.33761 6.70036
83 1 5.91469 8.04481 4.66794
84 1 9.07872 1.10771 3.88519
85 1 5.56594 2.21053 7.96713
86 1 1.35444 4.40225 0.110107
87 1 7.10516 6.94955 0.545263
88 1 1.59458 0.866028 9.3988
89 1 0.299523 4.86774 2.80819
90 1 8.31282 7.22712 5.69145
91 1 9.36357 2.01826 3.72716
92 1 2.46267 6.21133 8.04966
93 1 8.91359 1.61205 2.97195
94 1 4.86437 6.13423 5.86704
95 1 7.80054 2.09642 1.31808
96 1 0.773917 6.97308 8.30109
97 1 3.3853 4.54237 4.61722
98 1 5.32535 1.50926 5.02924
99 1 1.87974 1.86477 5.24715
100 1 8.15662 6.79624 0.693139
101 1 4.86106 0.916792 4.50633
102 1 4.99424 4.97969 9.31105
103 1 6.7219 7.9102 6.88972
104 1 5.12363 8.42349 1.62803
105 1 3.27995 5.9807 6.60624
106 1 7.79383 1.5722 2.07432
107 1 4.50761 5.54021 7.95114
108 1 2.68362 1.81848 0.464019
109 1 5.18633 0.42058 0.601453
110 1 6.39963 8.34994 1.96801
111 1 5.57839 3.78578 7.74533
112 1 6.65664 8.00189 4.11204
113 1 6.44134 0.946956 3.73209
114 1 1.98616 1.67328 9.2417
115 1 8.20685 8.62049 2.41038
116 1 5.9025 9.3888 0.19057
117 1 1.22103 5.9845 5.78526
118 1 0.913945 5.68996 0.851548
119 1 0.194649 0.500429 2.34677
120 1 6.7646 1.1116 4.6493
121 1 9.21673 3.47762 6.1857
122 1 3.75667 6.66271 3.42144
123 1 8.28854 4.45131 7.14311
124 1 2.70414 1.45646 5.60053
125 1 0.697148 7.03404 3.64788
126 1 5.13462 2.79063 1.5017
127 1 0.237796 8.41827 8.09657
128 1 7.38214 7.19976 7.11292
129 1 3.14564 8.878 3.46132
130 1 4.71236 5.22433 2.39953
131 1 0.382963 4.68189 8.84141
132 1 5.50069 4.88932 4.10114
133 1 6.25559 5.2502 6.39274
134 1 8.93982 0.163293 8.968
135 1 3.23226 3.86427 6.22588
136 1 4.61344 5.33769 4.20013
137 1 6.33773 4.16936 6.43962
138 1 0.629409 8.34425 8.95376
139 1 7.22371 0.944599 3.13552
140 1 5.9042 1.17253 8.12396
141 1 7.15706 1.03554 5.74617
142 1 9.0301 9.28433 6.28455
143 1 8.37267 5.68534 5.36453
144 1 8.91823 1.97579 4.70689
145 1 9.18197 4.94462 8.0883
146 1 0.0403626 1.91632 0.373747
147 1 7.42485 0.288559 0.893054
148 1 0.89468 5.08535 6.33022
149 1 0.619465 3.08779 2.66577
150 1 0.245853 0.633227 4.72331
151 1 7.51547 3.24548 0.722272
152 1 7.35643 5.7754 1.34889
153 1 4.33409 6.70677 5.38235
154 1 4.90012 2.87249 4.72648
155 1 9.21888 7.85868 9.16791
156 1 7.73467 4.69636 6.42243
157 1 2.99096 3.9312 9.03567
158 1 4.03209 4.0325 2.88891
159 1 2.21636 3.59479 4.33628
160 1 4.89716 0.636464 1.55605
161 1 1.21031 2.51693 5.48671
162 1 3.23599 2.97806 6.39949
163 1 5.9684 2.51661 6.12765
164 1 8.23629 3.09253 4.60627
165 1 7.04091 1.14876 9.15663
166 1 8.26334 5.05785 3.50376
167 1 8.8172 1.96737 8.94248
168 1 3.54863 5.56378 8.42596
169 1 8.37311 6.30462 2.49839
170 1 3.99659 5.33136 5.006
171 1 5.57962 2.33034 4.36585
172 1 8.35692 1.6414 3.74888
173 1 0.613655 5.47234 4.20248
174 1 1.50894 7.35596 0.114107
175 1 6.43615 6.42637 2.41909
176 1 6.38243 5.55439 7.9126
177 1 3.4908 1.49663 1.19104
178 1 1.99828 8.09423 7.96779
179 1 1.0719 6.44892 1.47564
180 1 5.60664 8.50992 2.4772
181 1 6.75873 8.90349 7.05431
182 1 3.63164 5.713 3.98101
183 1 6.71543 4.93997 7.52928
184 1 8.6271 4.81709 0.604986
185 1 6.67641 3.92103 1.1743
186 1 2.35311 4.51939 2.55601
187 1 7.78306 0.783461 8.7841
188 1 2.60441 5.96316 0.548552
189 1 4.21826 6.21098 8.55736
190 1 5.72084 7.36862 6.57557
191 1 3.35469 6.44737 2.5364
192 1 2.42179 1.05298 8.30209
193 1 5.91075 0.0369303 8.54762
194 1 7.26408 9.42058 8.54366
195 1 2.98117 8.13986 4.82005
196 1 0.970923 0.796093 1.80679
197 1 0.567906 7.27919 9.2648
198 1 3.63414 8.11477 5.71416
199 1 6.61546 1.89487 5.00929
200 1 3.52196 1.92278 4.5271
201 1 4.53312 9.18777 1.36887
202 1 2.22209 9.30489 4.2134
203 1 8.25504 4.71512 8.30438
204 1 0.207789 0.655019 0.193854
205 1 4.71785 7.47184 9.32088
206 1 6.4083 6.21693 0.655718
207 1 2.44482 6.49705 2.23906
208 1 2.58922 4.60665 7.2272
209 1 4.32581 0.9986 7.3098
210 1 7.02847 2.28502 2.21966
211 1 4.22302 2.20858 1.10111
212 1 8.38033 6.77667 7.00497
213 1 2.55835 4.31821 6.26504
214 1 3.69476 2.50097 8.12978
215 1 8.22404 8.27248 9.23206
216 1 5.01054 3.85898 0.95292
217 1 1.81977 3.57467 2.58495
218 1 8.16209 5.82265 0.892239
219 1 5.51565 5.88513 0.594133
220 1 7.84009 7.03203 3.7949
221 1 2.5933 7.27953 4.87919
222 1 5.27802 6.75697 2.89438
223 1 6.99463 7.24617 3.60258
224 1 5.64106 6.56235 4.10432
225 1 2.67575 5.74886 8.83345
226 1 5.48971 7.69025 3.16032
227 1 8.95501 9.02204 8.03556
228 1 6.09198 4.31536 7.28247
229 1 8.32696 1.33074 0.621124
230 1 4.77206 4.71834 7.35993
231 1 8.68677 2.68247 3.86561
232 1 2.68567 3.52303 2.45586
233 1 3.14072 8.28899 0.665104
234 1 3.51458 2.26515 7.03067
235 1 7.96628 7.60951 0.672003
236 1 2.69772 7.3727 2.64674
237 1 9.3258 5.32818 0.368865
238 1 5.10957 0.682398 8.39164
239 1 4.34667 6.04374 4.73814
240 1 7.63381 8.48063 0.550871
241 1 4.00025 3.94404 8.64776
242 1 7.20368 6.11544 2.40634
243 1 0.0197967 4.62348 7.2197
244 1 3.49044 7.51446 3.07725
245 1 6.00557 3.03413 8.21468
246 1 4.09357 4.34045 5.64922
247 1 8.85485 9.20215 5.20782
248 1 6.64993 1.2842 6.59025
249 1 5.82357 6.19599 6.24091
250 1 8.84427 7.46615 7.39866
251 1 7.5134 6.24639 6.43428
252 1 4.6272 7.20559 2.5107
253 1 6.45345 7.64218 0.476072
254 1 5.97969 6.68169 8.38563
255 1 8.78572 2.89596 5.30397
256 1 8.15064 4.0425 3.51618
257 1 2.50429 5.24937 8.00883
258 1 5.71134 1.78619 3.51339
259 1 0.791617 5.58892 2.88403
260 1 0.607204 1.54565 3.7847
261 1 1.33606 8.75206 8.40441
262 1 3.29397 1.97085 6.22529
263 1 3.49752 2.6398 0.94384
264 1 5.16754 6.50734 4.89016
265 1 1.82571 1.13961 3.00393
266 1 5.92262 0.776473 6.34127
267 1 7.77285 6.42496 3.16302
268 1 5.11795 4.74882 8.34189
269 1 4.82349 3.56497 3.22478
270 1 3.8323 6.87956 6.10588
271 1 3.66623 3.30265 2.39225
272 1 1.86366 1.00701 1.96689
273 1 2.32889 0.393993 0.70456
274 1 8.26814 2.44721 1.95903
275 1 9.03303 6.91202 0.145291
276 1 7.70678 9.30898 3.21015
277 1 8.68819 2.35296 6.16406
278 1 5.70955 3.87621 5.85632
279 1 6.94861 1.00964 0.822292
280 1 8.89927 0.512517 3.04881
281 1 3.81041 5.62294 3.11245
282 1 3.29134 8.54356 6.99151
283 1 7.61798 5.48705 5.97671
284 1 6.43833 8.96511 8.99838
285 1 8.35066 2.83001 9.10891
286 1 5.21485 2.74711 8.76101
287 1 3.47182 4.78722 2.53817
288 1 5.42763 5.7441 3.86106
289 1 1.35553 8.57413 2.64548
290 1 6.29018 7.29988 2.69062
291 1 1.10011 6.58676 9.27932
292 1 1.10917 0.819606 0.796436
293 1 0.927333 9.2165 1.82596
294 1 4.14212 7.65169 4.38585
295 1 1.01383 8.01467 7.90785
296 1 9.19985 1.75322 7.63123
297 1 0.905749 6.2498 7.67642
298 1 6.24721 8.0889 7.61781
299 1 1.12331 6.38881 3.12475
300 1 6.36885 2.39446 6.93936
301 1 1.48998 5.87385 4.77162
302 1 3.67967 7.3237 5.14319
303 1 1.72079 8.46243 6.16399
304 1 7.5289 2.45848 7.86785
305 1 2.0991 7.6438 5.94739
306 1 1.8476 0.890868 7.4323
307 1 4.27238 3.21391 7.98873
308 1 0.725702 6.01832 6.54555
309 1 1.84004 6.38118 0.594768
310 1 5.99749 1.2797 1.41181
311 1 4.4823 1.53372 2.96958
312 1 5.33553 8.82743 5.15073
313 1 2.85125 3.48578 0.563277
314 1 9.36894 2.58671 1.31054
315 1 8.56188 0.734261 7.2735
316 1 9.27911 7.83943 3.23197
317 1 4.88459 9.05241 8.2448
318 1 5.00344 5.78054 6.74951
319 1 0.269586 4.23145 4.4213
320 1 0.87641 5.07045 0.0880038
321 1 3.76135 5.57596 2.11364
322 1 2.8059 5.0836 0.858147
323 1 7.95684 1.76637 2.96939
324 1 1.37886 7.19067 7.6495
325 1 8.72671 8.10931 8.44471
326 1 0.650635 5.87491 8.50007
327 1 0.371638 1.24988 2.9178
328 1 6.04314 5.98304 7.12949
329 1 2.21503 6.49231 6.17561
330 1 0.53004 8.29256 4.25052
331 1 3.32098 3.39668 8.27084
332 1 1.1686 4.0282 4.1054
333 1 7.66924 0.949364 7.86751
334 1 7.27246 8.59071 4.4886
335 1 8.26116 0.341237 6.51439
336 1 1.50637 4.35975 3.14164
337 1 3.57381 7.67824 8.55486
338 1 3.53369 3.5265 5.46637
339 1 3.52158 9.07934 7.73009
340 1 4.17509 5.34404 5.96519
341 1 5.36988 3.66658 1.82741
342 1 3.27654 1.13869 8.48574
343 1 5.0617 9.29982 9.20332
344 1 6.71731 0.306696 5.43577
345 1 1.65152 7.07304 1.06463
346 1 4.3855 1.12566 5.31903
347 1 1.68202 3.48183 8.81443
348 1 3.58878 1.33898 6.7557
349 1 0.0515739 5.29033 1.31642
350 1 8.7945 3.14322 1.85427
351 1 4.52868 0.293214 3.76224
352 1 6.14871 5.11296 4.67489
353 1 6.9822 3.80529 3.87988
354 1 6.48445 2.26936 7.81016
355 1 6.24917 4.43801 8.82591
356 1 0.905874 3.95302 5.10408
357 1 1.71401 6.74288 4.19442
358 1 0.473897 8.41379 0.510562
359 1 1.57355 2.00939 3.22644
360 1 2.24256 5.54726 3.88436
361 1 9.24591 6.49307 6.86429
362 1 4.04428 8.91624 2.0166
363 1 6.43676 3.14218 5.61134
364 1 6.06772 5.72971 8.79439
365 1 8.36917 9.14496 7.38269
366 1 5.97282 8.34577 0.158591
367 1 2.60783 7.08629 3.47792
368 1 7.90654 1.50886 5.77936
369 1 1.08469 3.01991 4.5203
370 1 3.73354 8.00105 0.000498034
371 1 2.76833 8.94722 0.150451
372 1 7.90731 1.9183 9.0548
373 1 4.75552 4.56338 4.75353
374 1 7.02047 7.88221 5.07499
375 1 8.62959 7.48381 4.02638
376 1 5.49776 4.15517 0.0658104
377 1 0.71569 7.96392 5.15337
378 1 2.82668 5.77923 1.60877
379 1 3.46117 1.93941 8.82902
380 1 4.00598 8.03913 6.54403
381 1 3.39538 4.44483 0.385815
382 1 7.17791 4.27379 7.13707
383 1 7.29899 8.9695 5.41723
384 1 1.64087 7.9869 3.39235
385 1 8.53303 9.15572 3.4772
386 1 4.22976 0.316641 5.72265
387 1 5.92913 4.11392 2.40184
388 1 7.59766 8.28427 6.94981
389 1 1.54173 6.86656 5.2639
390 1 8.36861 5.30554 7.66985
391 1 8.08201 2.36919 5.41391
392 1 2.20784 8.86052 3.24887
393 1 0.843655 5.06536 8.02909
394 1 7.10077 3.85254 9.1746
395 1 7.5755 6.20455 4.99273
396 1 7.32632 1.88835 7.19583
397 1 6.12413 7.35659 3.77704
398 1 5.49707 4.60688 5.31162
399 1 2.99076 2.55852 2.68879
400 1 8.20867 3.06069 6.28026
401 1 7.25801 0.149894 0.0321998
402 1 8.70389 5.83782 0.146959
403 1 1.26597 1.63967 7.9609
404 1 8.32833 3.69083 8.53219
405 1 0.915826 5.46881 1.75939
406 1 4.16287 6.96648 1.63167
407 1 8.75792 7.60437 1.43177
408 1 3.29443 2.73227 9.23711
409 1 1.07194 2.84292 8.36101
410 1 5.83017 8.56431 8.38793
411 1 4.01069 8.95895 3.16142
412 1 0.533382 8.46998 5.95758
413 1 9.25651 7.7181 4.81185
414 1 1.62678 8.03376 7.10398
415 1 6.30784 1.32723 2.27914
416 1 1.7944 5.35213 2.23261
417 1 1.13364 3.5418 3.28006
418 1 5.86776 5.36513 5.59169
419 1 8.45975 4.3494 4.51015
420 1 8.19032 0.812717 3.59052
421 1 5.35867 3.74083 4.33555
422 1 7.92981 4.00571 1.11698
423 1 5.09441 2.22209 0.609017
424 1 2.85534 4.9937 3.36049
425 1 0.440728 6.11802 2.17511
426 1 1.20256 7.7179 5.815
427 1 2.5674 2.72121 0.212673
428 1 0.0724487 3.94526 2.61231
429 1 2.61821 5.98879 7.15717
430 1 1.93052 3.04369 7.10771
431 1 5.05107 8.15795 4.44035
432 1 5.27949 0.735402 7.59824
433 1 4.06098 0.790217 8.16071
434 1 4.25232 6.82061 4.44251
435 1 9.37742 0.830953 8.55146
436 1 3.42741 0.532071 1.31642
437 1 5.54755 3.22189 2.68569
438 1 4.51425 4.93885 3.23101
439 1 0.206972 0.197201 5.62595
440 1 7.37697 5.23972 8.26322
441 1 5.70175 1.6318 6.05168
442 1 1.21144 7.20045 6.53183
443 1 0.877514 2.66864 3.63136
444 1 1.91787 5.16543 0.408559
445 1 0.308112 2.76437 7.55381
446 1 2.11553 8.44315 0.495298
447 1 7.81946 5.42093 2.264
448 1 7.80329 5.12277 0.0856977
449 1 0.946777 0.756055 4.11069
450 1 8.96617 9.20529 2.19562
451 1 0.267341 3.42275 1.70283
452 1 4.68259 3.67849 7.2583
453 1 5.43201 2.99534 3.57891
454 1 6.94256 -0.00293244 4.70633
455 1 1.90032 8.0161 9.10769
456 1 7.5813 7.43349 2.96426
457 1 5.75838 2.11126 2.04298
458 1 7.87807 4.86095 5.10621
459 1 4.87992 0.145145 5.01119
460 1 8.10908 0.517693 0.430901
461 1 1.51847 8.07969 1.20212
462 1 9.18036 6.94607 5.20327
463 1 4.48317 9.03407 0.379633
464 1 6.54036 5.07962 2.51707
465 1 4.08749 3.76196 4.77243
466 1 9.01268 2.66762 7.06822
467 1 6.73258 0.236715 1.45717
468 1 3.44894 5.27465 7.38601
469 1 8.70931 4.60828 5.47841
470 1 4.95465 7.66389 1.18923
471 1 8.64546 2.45094 0.484384
472 1 5.79357 3.36933 0.976315
473 1 4.78253 7.59448 7.15449
474 1 4.56103 5.54233 0.479871
475 1 0.863865 1.28401 7.05214
476 1 0.63557 7.62256 1.22709
477 1 3.31774 6.95502 1.87889
478 1 3.40528 0.980554 5.96339
479 1 1.61857 3.30305 5.20679
480 1 4.9379 5.25396 5.43723
481 1 1.79839 5.75176 6.63474
482 1 8.85887 5.01679 9.01841
483 1 1.11942 0.0367474 5.83899
484 1 9.3736 1.90893 2.15765
485 1 5.13402 7.96108 6.21304
486 1 9.01872 4.15962 9.32707
487 1 4.03973 1.67167 7.7313
488 1 8.3265 2.19032 8.2
489 1 6.53072 8.59056 5.04821
490 1 1.15683 1.8858 6.33271
491 1 6.7744 0.821008 8.4296
492 1 6.79171 5.96228 5.72089
493 1 2.19899 4.18412 8.17327
494 1 6.70728 7.22473 8.1002
495 1 3.22893 5.17918 5.59241
496 1 1.9114 5.99083 9.26308
497 1 4.27924 7.37493 3.48316
498 1 5.60681 4.11741 3.36885
499 1 5.55094 6.947 0.933921
500 1 7.27134 0.156087 7.54707
501 1 8.48117 1.21259 8.27781
502 1 2.23754 6.13755 5.22206
503 1 2.45139 3.45901 6.36456
504 1 6.58229 7.42714 1.80808
505 1 1.9679 6.17636 1.4349
506 1 8.24334 7.31937 8.96307
507 1 4.39792 1.0576 6.29584
508 1 3.00893 1.19659 9.30028
509 1 8.75868 7.04559 8.26213
510 1 4.23032 3.70432 6.4177
511 1 7.92659 8.18043 1.45664
512 1 1.73956 5.2704 1.32594
513 1 2.10069 2.81804 1.931
514 1 1.15442 3.31978 7.53776
515 1 4.52744 8.55974 7.43414
516 1 5.05769 1.66803 1.41914
517 1 4.16977 5.09868 6.92839
518 1 5.52984 6.89316 5.69292
519 1 4.83226 1.56771 3.83046
520 1 2.50991 0.116159 7.99045
521 1 7.27388 3.09878 4.64298
522 1 4.76867 6.33236 9.37599
523 1 2.18579 0.954564 4.77963
524 1 7.8481 6.95977 2.26948
525 1 3.585 3.81794 1.17352
526 1 6.35913 9.31334 2.20991
527 1 3.06306 1.81178 1.9429
528 1 2.79248 0.38372 8.85098
529 1 7.1982 0.446716 3.92131
530 1 0.176138 3.13248 4.77735
531 1 1.52797 3.98218 1.14983
532 1 6.15601 0.57476 0.83395
533 1 7.43468 1.72139 0.427514
534 1 7.46342 6.81814 8.87045
535 1 7.71265 1.16733 1.33946
536 1 1.22054 7.68912 4.38414
537 1 2.10358 0.178519 5.97174
538 1 5.87264 0.54811 1.86541
539 1 0.0697272 6.64586 6.08131
540 1 9.19647 8.69989 9.2372
541 1 0.559239 1.5512 0.979672
542 1 3.53136 8.17035 3.79337
543 1 2.44029 0.574362 3.36178
544 1 0.682969 2.44476 1.89827
545 1 0.302828 4.26921 0.778053
546 1 3.02854 3.49564 4.51677
547 1 6.37691 0.317569 7.77198
548 1 3.27862 6.63339 4.59836
549 1 6.99876 4.79428 5.86079
550 1 4.87503 6.90728 6.4989
551 1 4.45916 5.36205 1.4858
552 1 7.39159 7.03603 5.37952
553 1 5.49139 7.52165 7.90812
554 1 6.30007 5.33249 0.899549
555 1 2.11469 5.26108 4.84019
556 1 1.66999 9.16639 7.59955
557 1 5.69994 0.439307 4.76501
558 1 9.19997 5.31 5.54812
559 1 5.17015 5.9423 8.55932
560 1 0.954827 3.82527 2.14292
561 1 1.67466 4.78139 3.95782
562 1 6.33838 4.48778 3.91976
563 1 1.08899 0.157669 4.80986
564 1 6.79283 4.82188 1.47434
565 1 5.33595 5.53789 4.74694
566 1 7.72019 7.18441 6.25472
567 1 7.49503 7.68168 4.27421
568 1 8.95663 5.80959 1.7617
569 1 1.25113 3.23173 1.56377
570 1 2.87708 2.38389 5.39729
571 1 4.97678 6.80495 8.52843
572 1 0.633705 9.20717 2.72007
573 1 1.84268 0.882812 3.99625
574 1 5.07426 7.16609 3.88002
575 1 6.27031 3.2475 6.53957
576 1 5.49785 7.75758 0.468859
577 1 9.20435 4.57608 2.13239
578 1 2.69815 5.32518 6.60314
579 1 2.92759 1.70819 7.67227
580 1 4.68231 2.13772 2.37187
581 1 8.86081 1.17708 2.12058
582 1 9.31833 5.15048 4.64584
583 1 1.11015 4.77423 4.67486
584 1 3.91074 7.86321 7.73571
585 1 6.29461 1.78699 0.322418
586 1 8.37509 4.06261 2.13379
587 1 3.33622 0.303302 0.199314
588 1 9.29326 7.48877 0.631977
589 1 6.16146 3.13672 1.76217
590 1 4.95271 1.6244 7.64905
591 1 1.69027 1.95454 1.67542
592 1 7.28446 5.50945 3.25494
593 1 1.8098 5.25987 7.36117
594 1 2.00412 2.48769 5.93155
595 1 2.87271 7.7546 6.9958
596 1 8.99324 3.77379 6.94485
597 1 2.46832 4.20408 1.02019
598 1 4.18469 2.92438 3.16201
599 1 8.26164 1.63104 7.40697
600 1 0.210546 0.645173 1.28072
601 1 2.78259 2.56534 3.89767
602 1 2.3953 8.5239 6.9099
603 1 6.47694 6.80914 5.57479
604 1 1.53565 7.31221 8.55546
605 1 1.45057 4.58289 2.00562
606 1 3.06753 4.31825 5.43718
607 1 0.288397 1.73276 4.97267
608 1 7.78591 5.01554 0.953864
609 1 6.32562 3.37918 0.2238
610 1 4.37772 0.0928521 7.56264
611 1 6.98353 7.65833 6.08678
612 1 1.25811 4.47747 7.45111
613 1 4.76876 2.94236 6.48236
614 1 4.11945 0.376255 4.57386
615 1 2.48851 3.17371 8.69598
616 1 9.08536 0.712427 6.42977
617 1 5.25982 5.82527 1.99182
618 1 1.9957 5.25807 3.0976
619 1 7.50722 2.99876 8.73144
620 1 4.50889 4.30057 3.8534
621 1 2.40446 7.44581 0.672894
622 1 1.6207 6.38132 8.53562
623 1 6.80019 0.0163259 3.0623
624 1 6.17549 2.24729 1.17781
625 1 3.39905 6.23393 7.95001
626 1 6.6694 4.32058 3.03803
627 1 0.641468 0.714814 6.33459
628 1 1.83887 1.33141 0.90273
629 1 5.47467 1.54365 9.18654
630 1 3.419 8.35871 2.66149
631 1 6.51415 8.60948 2.84363
632 1 5.2496 2.39016 2.94881
633 1 4.00334 4.79996 8.43093
634 1 7.59712 0.794714 4.7001
635 1 7.14455 3.8755 6.36995
636 1 4.36376 5.44459 8.89982
637 1 1.56503 1.71085 4.40902
638 1 3.56017 0.351312 3.33765
639 1 4.02235 9.37943 8.61459
640 1 4.85478 3.81906 8.31968
641 1 6.98675 8.5398 6.17515
642 1 3.95632 0.808957 9.13
643 1 0.416453 0.40295 3.56741
644 1 7.33376 2.82625 6.99497
645 1 2.4374 1.66335 3.58526
646 1 7.59145 6.2017 0.192492
647 1 6.67619 6.46154 7.39134
648 1 4.80835 6.11275 1.27053
649 1 3.64734 0.0822861 6.782
650 1 5.05796 6.81293 1.73821
651 1 9.23196 6.89984 4.25658
652 1 8.30092 7.78007 6.80102
653 1 8.74158 3.54079 2.9209
654 1 6.5697 6.89625 6.55414
655 1 4.21593 8.19554 1.32234
656 1 1.92137 4.32004 4.87813
657 1 2.0225 1.97728 7.63086
658 1 1.10319 1.68886 2.31035
659 1 3.40458 5.96727 9.20431
660 1 6.92081 6.19988 8.38373
661 1 0.0108267 6.51575 3.08387
662 1 4.9843 4.24392 2.44681
663 1 4.46139 2.00319 4.82873
664 1 7.59499 5.17489 7.09385
665 1 8.12306 9.04057 1.0172
666 1 4.55881 7.94831 8.2431
667 1 8.15754 2.47446 7.08326
668 1 8.81337 8.3185 7.58066
669 1 3.27589 4.19579 1.93723
670 1 3.06348 7.54343 4.12749
671 1 0.270097 8.94454 4.95036
672 1 8.73879 8.4234 0.553135
673 1 5.11431 0.874996 5.6966
674 1 7.11265 2.69381 1.3386
675 1 0.0941526 1.7211 6.48862
676 1 3.04899 5.44661 4.6902
677 1 1.90168 3.16548 8.03109
678 1 7.88783 6.01284 8.42469
679 1 0.663609 5.3926 7.19581
680 1 8.94513 0.176178 4.1543
681 1 2.28448 8.99111 8.6538
682 1 2.11273 0.188714 2.59531
683 1 9.22402 5.17554 3.5754
684 1 1.02952 2.08157 8.96928
685 1 1.75375 6.08719 7.62655
686 1 5.74935 2.55694 0.153016
687 1 0.0804373 8.32144 2.52256
688 1 7.80719 2.77782 2.8149
689 1 8.3995 6.22308 6.16684
690 1 2.15276 7.38053 6.83722
691 1 7.18942 4.05004 1.87792
692 1 7.89877 3.9505 9.30494
693 1 2.47629 8.28781 1.36336
694 1 7.22581 9.03816 2.47332
695 1 8.46614 1.48989 6.5562
696 1 4.85167 0.794595 9.18044
697 1 9.28891 9.3482 7.23313
698 1 8.27041 5.26441 4.41389
699 1 6.60513 3.71509 8.32292
700 1 0.691856 3.27216 5.57755
701 1 1.31062 8.62194 0.0792547
702 1 6.21479 6.21886 5.01464
703 1 1.75391 3.81495 5.91622
704 1 5.82911 7.72619 8.71201
705 1 1.66857 0.211569 8.59188
706 1 0.701937 8.66623 7.30516
707 1 5.09101 1.28065 6.77835
708 1 6.61808 8.83926 7.96443
709 1 2.51881 2.04983 8.60237
710 1 2.32375 4.8463 5.56608
711 1 3.80208 8.6788 4.90827
712 1 2.90166 0.173645 1.91718
713 1 0.623255 5.65963 5.1519
714 1 5.60706 9.27234 1.30859
715 1 8.39321 0.305391 8.20267
716 1 1.72778 4.82653 6.58335
717 1 0.411124 4.62206 5.43165
718 1 5.73041 4.87244 1.89807
719 1 3.79542 1.87114 2.6053
720 1 6.17591 8.45349 6.54256
721 1 4.38582 3.76385 1.58778
722 1 2.70491 8.07498 3.24082
723 1 1.7881 7.15358 3.00231
724 1 3.02917 6.68516 0.241128
725 1 3.84056 3.47092 0.151614
726 1 3.82346 2.85043 4.90439
727 1 5.27115 8.55981 0.786466
728 1 0.48711 3.46101 6.89188
729 1 1.36462 9.38916 0.84907
730 1 5.03994 2.39323 5.60179
731 1 4.25407 0.479733 0.679904
732 1 4.50194 8.04139 0.4964
733 1 1.17601 0.566472 2.65237
734 1 7.44047 4.29012 8.0646
735 1 7.7971 3.26341 3.78252
736 1 4.31828 3.10583 0.952199
737 1 4.24302 1.5714 8.68083
738 1 5.43727 4.96987 6.70572
739 1 3.22966 7.1312 7.65935
740 1 7.73109 8.12091 5.64535
741 1 1.48041 0.0991484 3.63828
742 1 2.8721 9.16411 6.32755
743 1 1.07957 1.63919 0.309722
744 1 3.01854 8.39832 8.77493
745 1 0.20546 7.56137 5.91009
746 1 5.11417 7.41593 4.8347
747 1 3.97523 1.1462 4.06763
748 1 5.59377 0.0969455 5.82236
749 1 8.50994 6.44857 8.95495
750 1 8.18563 0.559945 5.64306
751 1 8.30289 8.56512 4.78193
752 1 8.16686 9.0814 5.7297
753 1 6.49474 6.94471 9.1592
754 1 7.21078 7.97175 7.68539
755 1 0.306829 6.95005 7.61363
756 1 8.42486 4.13147 6.23925
757 1 6.70624 9.08559 0.696893
758 1 7.17122 2.47323 5.35895
759 1 7.80746 2.40905 3.91858
760 1 8.92991 3.40851 0.560864
761 1 6.25497 5.72165 1.72491
762 1 1.01588 0.843862 8.73461
763 1 1.43756 5.00404 5.67762
764 1 0.323691 3.71987 7.74652
765 1 4.93077 4.23686 6.38885
766 1 2.46582 8.56386 2.2304
767 1 8.74767 7.76659 2.3568
768 1 5.96488 9.12947 3.28237
769 1 4.24679 1.94482 6.47647
770 1 3.16142 9.16382 4.38454
771 1 1.66126 9.21264 6.73053
772 1 3.32746 4.08806 7.14369
773 1 6.10735 5.17602 3.42964
774 1 2.2997 1.72859 2.40185
775 1 4.19013 4.55634 2.05965
776 1 3.38532 4.71066 6.35559
777 1 5.34053 7.61234 2.10174
778 1 7.09575 0.873638 1.96608
779 1 7.57877 4.75048 4.01304
780 1 0.489692 7.72527 6.99569
781 1 0.265398 2.30221 5.62938
782 1 7.09547 1.93892 3.00942
783 1 5.68499 6.64305 0.0375475
784 1 2.22027 3.91136 1.83365
785 1 8.77208 7.14316 3.2376
786 1 0.909142 0.400702 7.17588
787 1 4.97379 8.85005 3.33565
788 1 1.87272 1.3152 6.01479
789 1 9.33306 3.09939 3.44289
790 1 4.38721 2.56342 7.37242
791 1 2.63584 1.74845 4.41227
792 1 7.53315 1.24092 6.57685
793 1 4.81952 8.40223 9.0324
794 1 2.20792 3.82733 3.2756
795 1 5.76059 9.17939 7.71896
796 1 0.126922 6.00405 3.77
797 1 6.56121 0.333209 6.80751
798 1 3.39299 6.75842 8.69094
799 1 1.67818 5.27533 8.40648
800 1 3.90589 6.19634 1.24747
801 2 5.86421 8.36909 5.7701
802 2 3.79917 0.95126 2.83352
803 2 6.25134 3.89849 4.72729
804 2 1.43389 8.68255 4.08404
805 2 6.87345 5.4596 0.0411401
806 2 0.840794 8.49317 3.41892
807 2 6.36 6.27608 3.52648
808 2 2.45772 8.44863 4.0956
809 2 9.09112 7.46189 6.60614
810 2 8.64371 4.61616 2.86599
811 2 7.03871 1.88189 8.494
812 2 8.60028 5.19241 6.19804
813 2 0.470618 1.37382 9.14236
814 2 4.02673 2.72003 5.74006
815 2 8.12807 9.18562 8.89265
816 2 4.08148 7.05211 8.15252
817 2 6.64717 1.29004 7.55755
818 2 8.73276 2.53217 2.68716
819 2 0.617442 4.44084 1.68082
820 2 8.25702 3.02086 1.13885
821 2 3.06136 8.11259 7.86514
822 2 1.93526 0.165033 1.63122
823 2 1.68627 2.59214 9.16015
824 2 7.82998 9.21844 4.50961
825 2 5.49598 2.92986 7.42967
826 2 7.84834 6.97134 8.09333
827 2 6.37449 2.71651 4.68593
828 2 4.64092 3.98492 0.229775
829 2 8.43403 4.99405 1.65007
830 2 2.45906 0.260458 5.19048
831 2 2.35602 4.86185 9.00064
832 2 8.70887 5.99409 3.47842
833 2 8.35932 3.34499 7.419
834 2 7.10134 4.35163 0.54069
835 2 4.23617 8.70961 4.05066
836 2 4.59537 6.73574 7.50604
837 2 5.88915 4.73609 7.97092
838 2 3.59992 3.85519 3.90436
839 2 1.36973 2.60257 2.56192
840 2 9.24909 8.4689 6.72801
841 2 1.86963 8.03752 4.96224
842 2 9.05584 8.55301 3.96086
843 2 2.66213 2.41643 6.76897
844 2 6.85469 2.16087 4.03704
845 2 4.68585 0.591512 2.90832
846 2 7.59063 3.72944 2.9414
847 2 8.85667 6.0024 4.61545
848 2 9.19833 3.45742 8.50739
849 2 2.62919 4.42897 3.96209
850 2 2.99745 6.05498 3.40034
851 2 3.2727 9.38067 5.28331
852 2 7.78029 4.65042 2.80197
853 2 2.82908 7.01964 5.71848
854 2 3.39124 3.17414 7.34464
855 2 3.5355 1.83162 0.322331
856 2 5.87205 2.18876 5.22956
857 2 7.46961 7.19357 1.53512
858 2 3.69627 2.10713 3.5807
859 2 7.5423 9.1519 6.59575
860 2 2.05439 2.73578 4.54158
861 2 0.577918 6.80225 0.795524
862 2 2.66662 0.788608 6.4341
863 2 4.5775 8.41978 5.45538
864 2 4.12384 2.53866 0.248878
865 2 8.9672 3.71372 4.31396
866 2 5.30466 5.13134 0.965885
867 2 0.622297 3.3663 0.888691
868 2 0.42393 3.56896 3.97834
869 2 7.7123 0.102655 1.80463
870 2 3.03984 3.22066 3.33424
871 2 5.91921 0.671705 2.73329
872 2 6.08334 2.00739 8.71115
873 2 4.75038 8.26385 2.34926
874 2 8.33382 8.74197 6.60702
875 2 2.77104 0.173331 7.14781
876 2 8.49943 0.643431 1.33534
877 2 5.90533 5.04647 9.33544
878 2 2.32666 7.49597 1.73819
879 2 6.32912 3.52763 3.13543
880 2 0.470564 2.12776 2.90795
881 2 3.67646 4.78114 3.53151
882 2 0.317207 1.98334 8.39382
883 2 5.52188 3.63073 6.78398
884 2 8.57118 1.04197 9.16048
885 2 4.54374 6.92013 0.740591
886 2 6.17584 0.77495 9.17215
887 2 4.06406 0.367493 1.91753
888 2 7.55292 3.43051 7.88666
889 2 2.11347 7.57269 4.08492
890 2 0.378227 9.25064 8.87842
891 2 8.10598 6.46456 1.54883
892 2 1.18931 2.62548 0.932492
893 2 3.36149 8.37102 1.69993
894 2 1.93133 2.22475 0.684708
895 2 3.67081 8.97647 6.02115
896 2 7.21646 8.44492 3.34032
897 2 5.00203 3.08491 0.236602
898 2 7.40189 1.45557 3.95685
899 2 7.70836 7.86083 8.46043
900 2 0.0767913 4.48571 6.34447
901 2 5.8331 1.54818 7.22028
902 2 7.96806 6.10369 3.9166
903 2 3.68383 9.01129 0.894826
904 2 0.972794 1.25553 4.82497
905 2 6.59042 8.86311 3.80713
906 2 1.45144 5.8931 3.84879
907 2 0.709462 6.98162 2.20364
908 2 4.66431 2.99091 2.45808
909 2 1.57975 3.88796 6.8996
910 2 4.91003 9.22857 2.26264
911 2 1.24141 2.38423 7.15454
912 2 3.44295 6.08571 5.44064
913 2 3.42962 9.25748 2.52755
914 2 2.84225 5.51122 2.56439
915 2 8.06773 7.63248 7.64418
916 2 8.63372 8.32179 5.67689
917 2 6.94264 6.04646 4.25965
918 2 7.50816 6.34993 7.59223
919 2 6.75273 2.50721 0.516427
920 2 6.00308 6.75231 1.71549
921 2 5.7245 1.18887 4.30947
922 2 5.41784 6.36482 7.63808
923 2 6.12638 1.13599 5.36022
924 2 3.65052 2.89846 3.98065
925 2 2.63282 1.29577 1.18658
926 2 4.94251 8.96036 6.35
927 2 4.93567 0.41747 6.53929
928 2 5.37779 2.27236 6.83334
929 2 4.46988 3.31941 4.06203
930 2 2.6751 3.587 7.51357
931 2 1.49969 6.25062 2.30156
932 2 3.98261 2.5711 1.87555
933 2 9.42652 6.56873 8.80901
934 2 6.95386 4.60834 4.81041
935 2 2.73416 0.874632 2.49832
936 2 3.88355 8.51998 8.39607
937 2 3.58352 5.02482 1.4081
938 2 1.34308 7.44166 1.89182
939 2 4.61519 2.24167 8.23291
940 2 0.587703 9.17437 6.54222
941 2 1.86082 9.32345 0.0580751
942 2 4.34399 6.38845 2.2816
943 2 4.76471 2.10775 9.18259
944 2 5.49471 0.776537 3.58059
945 2 1.56193 6.54001 6.9289
946 2 0.792855 8.23164 2.01901
947 2 0.81863 3.98034 6.25122
948 2 4.38333 8.16132 3.22588
949 2 4.78055 2.48714 3.96972
950 2 9.41065 5.68113 7.69693
951 2 1.60584 0.639557 5.39363
952 2 7.67339 3.86736 4.42138
953 2 7.909 1.68241 4.65584
954 2 8.27319 6.82193 4.54785
955 2 4.57942 6.45062 3.6341
956 2 6.10036 3.36318 4.01035
957 2 0.670747 7.05694 5.17927
958 2 6.53328 3.22197 7.35353
959 2 5.35452 8.4071 7.06803
960 2 1.65649 8.72136 1.72558
961 2 5.45176 5.45782 7.54703
962 2 1.16387 3.26085 0.16963
963 2 1.03846 4.73983 0.897473
964 2 1.90273 1.67557 6.82927
965 2 7.12541 7.80224 1.03126
966 2 5.87008 4.48099 1.00901
967 2 4.6034 7.53473 5.70865
968 2 6.60336 4.02018 5.50207
969 2 6.78648 2.08808 6.05268
970 2 6.02423 7.03031 7.29887
971 2 8.15833 7.5874 4.93848
972 2 8.89766 5.48005 2.61239
973 2 0.692754 6.47316 4.42267
974 2 6.65597 2.82507 9.0124
975 2 3.77805 7.62687 2.17659
976 2 6.97599 3.19949 2.41322
977 2 7.59739 4.10771 5.51572
978 2 2.2858 7.24588 7.66459
979 2 7.45459 3.18281 5.70008
980 2 2.78492 9.11312 1.06398
981 2 3.70468 8.8852 9.36977
982 2 3.84004 7.07237 9.415
983 2 3.68653 5.48158 0.583111
984 2 2.06803 3.03876 0.97074
985 2 5.73103 3.50115 9.00355
986 2 4.13808 1.28693 1.90269
987 2 3.32875 0.693279 7.59833
988 2 9.05611 1.08599 5.3762
989 2 3.51969 0.980271 4.90903
990 2 4.38001 3.07981 8.87188
991 2 9.27991 6.19876 0.854676
992 2 6.80718 6.50589 1.38291
993 2 7.59878 2.35781 6.30536
994 2 2.52287 4.92039 1.75282
995 2 4.07946 6.05055 7.21815
996 2 4.93642 3.63614 5.40157
997 2 0.911912 7.61613 3.00017
998 2 3.9787 4.25507 7.70392
999 2 4.40673 4.54997 0.896852