#bin. KALJ data file T=0.5

1000 atoms
2 atom types

0 9.4 xlo xhi
0 9.4 ylo yhi
0 9.4 zlo zhi

Masses

1 1.0
2 1.0

Atoms

1 1 5.14031 7.70881 3.97335
2 1 8.85985 4.26177 4.76282
3 1 3.2644 6.99775 2.26035
4 1 2.14224 4.78849 8.44597
5 1 3.3778 6.04193 6.22901
6 1 8.79243 7.06959 6.46244
7 1 7.91901 5.82384 0.92603
8 1 5.87107 3.38636 9.3843
9 1 8.10807 8.24275 8.40523
10 1 8.66186 9.36397 4.30127
11 1 0.328203 7.07926 7.76357
12 1 0.499188 8.40625 8.29981
13 1 0.654511 5.3304 5.75408
14 1 1.41687 7.15409 4.18872
15 1 3.49307 9.23254 6.80725
16 1 2.19973 6.89669 4.77347
17 1 6.83831 1.75451 2.78568
18 1 1.46994 2.24383 1.5188
19 1 3.46938 5.86561 2.15882
20 1 7.66277 2.83738 6.33908
21 1 8.97374 8.34354 5.15897
22 1 6.41109 7.45357 0.703756
23 1 6.60404 0.627292 4.24843
24 1 9.06028 3.88059 6.51124
25 1 4.29246 8.00213 4.78314
26 1 9.32485 2.26093 6.18068
27 1 4.51199 7.87733 6.01504
28 1 6.83352 3.93325 1.68527
29 1 3.75642 4.44392 6.6103
30 1 5.75927 0.467424 3.22558
31 1 4.26079 4.31761 8.90028
32 1 2.18121 5.50166 7.83
33 1 7.25049 2.78915 8.16595
34 1 4.80297 3.57274 3.67805
35 1 9.01914 1.4915 9.1039
36 1 4.11658 8.47238 2.56703
37 1 2.80969 7.86589 5.75599
38 1 8.63019 6.25903 8.81394
39 1 7.92234 3.67186 8.77272
40 1 5.94898 7.37006 3.9607
41 1 2.03184 3.69067 0.966572
42 1 4.07682 0.644802 8.6903
43 1 0.228001 7.09601 4.04812
44 1 4.92911 0.0262312 0.730722
45 1 7.21986 0.000867638 1.02226
46 1 6.76696 5.36151 1.85817
47 1 0.650537 8.24824 5.55418
48 1 5.54974 8.21643 9.36377
49 1 2.25702 9.1242 2.66316
50 1 5.15665 9.0909 7.63691
51 1 0.381527 8.39891 3.42183
52 1 0.656811 2.66861 6.29767
53 1 7.66486 0.777272 2.99559
54 1 2.72515 3.15748 3.74287
55 1 7.15279 8.65159 5.32643
56 1 7.26768 9.01007 0.192468
57 1 7.94253 8.72726 1.06869
58 1 2.25187 3.98777 4.40239
59 1 5.16247 3.9519 9.11212
60 1 3.93035 2.79107 2.17175
61 1 8.87854 1.01364 4.97029
62 1 6.4502 4.40617 6.40182
63 1 7.16304 4.88659 6.11205
64 1 9.36763 5.37974 7.56623
65 1 5.20115 1.97627 2.10428
66 1 2.49801 4.59935 5.19439
67 1 1.61996 6.0832 5.91916
68 1 2.56316 4.27024 7.63426
69 1 5.38054 1.90586 0.96519
70 1 0.69698 5.29287 0.700418
71 1 8.99449 3.50987 4.17399
72 1 2.45796 8.98915 0.585664
73 1 6.28725 7.22234 2.11379
74 1 1.47132 1.25486 6.56603
75 1 6.3809 8.48858 2.66017
76 1 8.20521 2.30963 0.366523
77 1 8.8891 7.18574 0.93048
78 1 1.40511 1.47754 2.03996
79 1 2.73336 6.80601 8.26863
80 1 4.35522 8.86667 9.41647
81 1 0.345254 7.17848 6.27347
82 1 7.61662 8.03575 0.174347
83 1 7.26805 3.67635 7.98534
84 1 3.8976 3.84342 3.95582
85 1 7.51821 9.08434 6.75253
86 1 1.28684 7.96599 0.350678
87 1 0.874529 1.06313 0.693798
88 1 9.39231 0.826273 2.81254
89 1 4.50889 3.18677 0.205738
90 1 3.29699 4.16246 4.74663
91 1 1.12445 1.62691 3.40228
92 1 3.86877 3.80304 0.514261
93 1 9.13009 5.69958 1.12981
94 1 3.29695 3.99497 7.29376
95 1 4.82537 4.12305 0.588486
96 1 4.70713 8.35048 0.66604
97 1 1.21393 7.54327 5.16316
98 1 5.50461 1.63016 5.33172
99 1 8.15799 1.20929 6.4127
100 1 8.12619 7.19478 5.73339
101 1 4.73879 0.22772 3.1635
102 1 8.16319 8.03002 4.09109
103 1 6.65066 1.58588 6.56246
104 1 9.15118 2.7464 0.70968
105 1 6.11725 5.42621 6.21568
106 1 7.59164 2.88623 5.30372
107 1 8.71544 4.52447 1.5807
108 1 4.17117 0.199072 1.88272
109 1 0.936724 3.67907 5.06526
110 1 2.91098 8.34818 8.82274
111 1 8.49793 0.269114 6.78457
112 1 5.06723 7.64014 5.26751
113 1 4.69551 5.95102 7.4382
114 1 9.40352 4.70397 6.88677
115 1 6.04665 2.67565 4.23133
116 1 8.04429 6.47149 5.14917
117 1 9.32661 9.2334 5.29239
118 1 0.702413 7.72737 4.43438
119 1 1.16679 3.66552 0.301875
120 1 0.748996 4.42876 2.00326
121 1 1.05528 4.34559 1.02185
122 1 5.01609 8.68338 6.52521
123 1 5.475 4.44444 1.92592
124 1 3.13947 1.97371 8.72724
125 1 8.79488 0.474088 7.77973
126 1 3.74053 1.18676 9.28347
127 1 3.32297 0.47984 7.51702
128 1 3.65661 8.14755 5.67457
129 1 5.43864 7.95599 6.15767
130 1 6.50407 1.69468 5.60865
131 1 8.27534 6.20679 6.04411
132 1 5.25778 5.93278 2.14082
133 1 1.9845 0.391877 1.62964
134 1 6.90992 3.20369 4.37801
135 1 7.67711 4.01198 1.28177
136 1 6.42424 5.86065 3.41028
137 1 3.31174 3.50832 1.67487
138 1 8.58794 4.32735 5.80625
139 1 3.28823 8.05408 6.50895
140 1 4.94154 5.18689 1.59404
141 1 9.03176 5.07372 0.636081
142 1 4.92218 3.10342 7.8889
143 1 6.83352 3.38244 2.43895
144 1 0.0538921 6.37925 7.01141
145 1 1.2051 5.23112 8.30545
146 1 5.62285 8.39922 3.50672
147 1 4.75815 8.19733 7.19884
148 1 1.87144 0.997548 7.51232
149 1 0.965661 0.551677 3.73249
150 1 2.73656 6.65446 5.91498
151 1 4.08706 2.10183 6.83163
152 1 9.38755 4.67836 8.50787
153 1 4.32831 9.18369 7.05517
154 1 0.0249527 0.495319 4.42812
155 1 3.31723 7.77948 2.31485
156 1 3.00878 5.12918 1.43737
157 1 4.87085 2.26516 0.190411
158 1 5.49105 7.25786 0.810894
159 1 5.60733 2.29029 8.33788
160 1 0.964517 5.00857 4.25024
161 1 3.04438 8.01941 3.4749
162 1 5.56675 6.79694 1.6724
163 1 8.61274 8.15578 0.626744
164 1 7.6218 5.3452 8.37068
165 1 1.29236 6.08947 4.05308
166 1 2.66028 7.46681 4.17887
167 1 3.14396 0.907031 5.29713
168 1 8.02042 2.83768 3.84873
169 1 8.66164 3.82225 1.01077
170 1 4.41733 1.16125 5.0059
171 1 8.90898 1.43078 2.29836
172 1 5.93249 0.8036 7.66035
173 1 1.98896 2.20797 5.06461
174 1 4.40664 6.32731 8.98176
175 1 4.35839 1.45732 5.99352
176 1 7.35692 2.81989 0.607313
177 1 6.60092 0.509364 7.00245
178 1 6.20814 7.64075 6.72333
179 1 9.27987 1.22843 8.30049
180 1 2.19859 4.49158 6.10567
181 1 4.81035 5.57138 8.67316
182 1 7.19281 7.23107 1.6792
183 1 7.2821 7.17319 0.191358
184 1 8.16083 1.28835 8.60136
185 1 2.22029 1.52334 9.09248
186 1 1.71069 9.19409 6.22525
187 1 4.91731 0.480529 7.19409
188 1 1.27709 6.74028 8.86607
189 1 7.51548 1.87812 7.77118
190 1 3.97255 5.39692 6.51031
191 1 7.99005 6.83487 7.91934
192 1 8.17901 6.08417 3.80448
193 1 6.05282 9.03915 1.96266
194 1 3.14886 6.1156 9.37978
195 1 0.770028 0.449393 5.27865
196 1 4.61215 1.78968 2.85929
197 1 2.11831 6.49876 2.80829
198 1 9.25132 3.18598 5.95993
199 1 5.08812 0.554864 4.3499
200 1 8.77915 5.53327 5.46148
201 1 3.86598 0.298037 0.0773552
202 1 7.04035 6.21971 5.05641
203 1 8.73813 8.25332 2.55635
204 1 6.83413 7.13545 5.89564
205 1 6.91002 5.57833 1.04263
206 1 0.18272 3.03385 4.96725
207 1 8.74679 5.54431 2.88939
208 1 4.87387 8.10617 3.10755
209 1 2.72636 8.44423 4.38588
210 1 3.9023 7.89845 3.45853
211 1 7.59488 5.6645 4.24165
212 1 1.37014 4.88641 2.54497
213 1 7.13388 6.42554 9.16829
214 1 1.71646 2.79077 7.78732
215 1 4.2465 6.92965 3.02025
216 1 2.494 1.71343 5.85677
217 1 0.39684 0.828457 8.9638
218 1 6.96168 9.29722 5.87216
219 1 3.43127 7.76171 4.31409
220 1 5.84852 9.28308 7.03278
221 1 6.87452 5.88874 6.65777
222 1 0.144508 0.0505863 3.58666
223 1 4.87526 5.08406 4.96338
224 1 1.42397 0.884857 5.01745
225 1 8.89825 6.41527 3.41194
226 1 8.43925 5.99806 7.57382
227 1 6.23786 6.63003 9.14305
228 1 2.94408 3.60098 0.871199
229 1 8.83134 2.94298 2.91095
230 1 6.48765 8.96224 8.71363
231 1 6.81376 4.06729 3.07432
232 1 0.400918 6.38018 8.69596
233 1 0.0305649 3.98665 1.66847
234 1 9.29221 7.65932 0.247705
235 1 8.22248 4.73016 2.41075
236 1 4.22833 3.48905 7.56123
237 1 2.05863 7.30721 7.30847
238 1 2.49574 1.90109 8.1327
239 1 1.51342 8.58765 8.00466
240 1 2.81435 7.99393 7.3131
241 1 4.50388 9.04845 4.8072
242 1 8.79711 8.99001 1.4797
243 1 3.06595 2.71517 5.3234
244 1 1.0752 4.67509 3.38289
245 1 7.1777 0.783019 2.1833
246 1 2.25533 0.950546 8.44276
247 1 5.43577 0.125113 6.27345
248 1 0.592609 3.98944 8.89514
249 1 4.7043 6.05002 2.86843
250 1 1.08994 5.05461 9.26795
251 1 0.677711 3.23398 3.83108
252 1 0.696711 1.67401 6.1203
253 1 0.00539234 1.17949 7.45328
254 1 2.98 2.80723 9.02516
255 1 0.53294 2.44586 1.7486
256 1 2.93452 6.64949 3.71595
257 1 1.12462 6.54039 4.99374
258 1 7.90038 1.13862 1.75076
259 1 3.1325 7.35557 0.840023
260 1 4.34473 7.33116 4.04446
261 1 6.09307 2.61833 0.759039
262 1 8.70168 1.57545 3.10493
263 1 5.89002 7.55383 4.84638
264 1 3.59494 6.45703 8.50221
265 1 1.9814 8.24405 0.861374
266 1 6.25813 5.93491 0.52274
267 1 1.28529 2.98438 3.14748
268 1 2.561 4.39805 0.506384
269 1 4.94503 2.95014 1.00788
270 1 7.24636 0.343912 8.88537
271 1 9.1389 4.67582 2.28861
272 1 5.59777 2.35415 4.85617
273 1 1.01917 8.5991 4.01232
274 1 6.34927 8.54661 0.123933
275 1 7.71285 0.61781 6.99617
276 1 4.34396 4.76766 5.78011
277 1 6.223 0.844488 5.83851
278 1 6.23728 6.25293 8.19963
279 1 4.81671 7.01442 7.24285
280 1 0.437734 2.25048 4.43781
281 1 5.56833 5.80974 7.83043
282 1 8.96154 9.31591 2.43176
283 1 4.37734 9.28589 3.9977
284 1 0.874658 9.06441 5.72558
285 1 0.174763 0.926777 5.61679
286 1 2.52091 0.281415 5.29005
287 1 6.76498 7.19514 8.40825
288 1 0.114226 5.0327 1.39436
289 1 0.0731749 2.92336 7.5808
290 1 6.65484 8.98431 6.88855
291 1 7.54359 7.59556 8.0944
292 1 7.4089 0.921012 7.81309
293 1 3.34866 4.37941 1.09335
294 1 6.7652 3.42417 7.19423
295 1 5.34833 5.98619 9.34175
296 1 6.08779 5.82525 7.11408
297 1 5.78244 1.65461 7.39337
298 1 2.75586 8.79758 6.57898
299 1 2.4351 1.93983 2.66698
300 1 8.00858 5.03937 5.73339
301 1 3.53375 3.71941 9.01267
302 1 0.541769 1.91564 7.92765
303 1 3.23137 1.37086 2.63084
304 1 2.81044 1.03109 4.34951
305 1 3.80442 8.2296 0.502383
306 1 6.17435 2.81762 6.76729
307 1 7.48383 2.11087 1.81939
308 1 5.77108 5.44099 8.61156
309 1 7.38959 3.79937 0.146236
310 1 0.47206 4.33346 2.82348
311 1 4.60296 2.11692 5.24784
312 1 3.50766 0.94677 0.779618
313 1 2.57584 0.0315795 7.98471
314 1 0.0101844 1.53087 4.26263
315 1 8.15348 3.84319 4.42011
316 1 0.871129 9.14979 7.51561
317 1 3.9397 5.12743 2.37398
318 1 3.40475 8.82215 7.89844
319 1 1.40792 5.60799 4.91202
320 1 8.63735 4.1434 3.29876
321 1 8.44038 5.45924 1.72702
322 1 2.80676 2.01301 4.64348
323 1 5.56902 3.21704 4.74984
324 1 0.341009 8.97379 1.15517
325 1 2.28967 0.744689 6.06112
326 1 5.24337 6.97638 4.43945
327 1 3.00214 6.27387 2.91654
328 1 0.775839 4.66036 5.0855
329 1 1.84293 5.1648 5.66734
330 1 8.57449 7.40923 3.18915
331 1 7.60973 1.80081 0.936141
332 1 3.67767 5.51459 8.61859
333 1 1.45096 0.29305 6.98888
334 1 2.97034 6.0218 7.83983
335 1 3.48085 7.77816 8.42213
336 1 8.81786 2.29243 3.76935
337 1 6.30466 9.3114 5.24286
338 1 7.12145 7.97779 0.96385
339 1 2.12835 4.36225 2.47464
340 1 5.65941 2.14614 6.1497
341 1 5.47421 8.42504 2.15105
342 1 1.33795 3.90991 2.84011
343 1 2.13297 5.01838 1.6252
344 1 9.01727 0.572462 1.33364
345 1 1.33647 7.02524 1.16148
346 1 0.697869 1.04173 4.41646
347 1 2.64817 8.95436 3.58575
348 1 3.37107 6.61603 1.45939
349 1 0.625824 0.715268 6.80723
350 1 1.39905 3.18833 2.28721
351 1 1.25207 0.0914199 4.47453
352 1 6.31523 1.70793 8.3427
353 1 5.78946 1.54575 2.6731
354 1 7.96947 6.23563 -0.0105644
355 1 7.67032 9.34692 2.75946
356 1 8.75721 9.02353 5.98945
357 1 5.99026 8.7002 6.28242
358 1 6.36747 8.03616 1.59356
359 1 7.94796 6.81887 1.62317
360 1 5.00786 1.03619 2.6869
361 1 8.39923 2.14004 6.61264
362 1 2.21475 3.41787 2.98695
363 1 2.50013 2.23365 7.07158
364 1 2.16594 6.04213 1.05533
365 1 6.5463 4.24208 0.0314132
366 1 6.83614 0.887279 5.14435
367 1 8.74114 5.67961 4.37433
368 1 1.62453 7.37353 2.55668
369 1 4.14235 0.602655 6.64933
370 1 2.10101 7.15121 5.53074
371 1 3.93907 0.631279 5.71472
372 1 6.9579 8.76315 1.7331
373 1 8.68279 9.30732 8.536
374 1 8.45198 2.44646 8.81568
375 1 7.46072 6.52323 4.34272
376 1 5.57796 6.21985 3.87192
377 1 8.04333 0.521375 3.87671
378 1 3.41349 3.8808 8.17815
379 1 2.36089 3.44737 2.09567
380 1 6.7071 8.21395 8.04505
381 1 3.3761 0.196634 2.70318
382 1 1.30902 2.25389 2.73666
383 1 8.21955 2.38716 2.59874
384 1 2.04256 6.41459 7.47442
385 1 6.87047 1.38239 3.68734
386 1 6.61076 4.3077 7.51627
387 1 8.402 7.1953 0.195865
388 1 5.49924 9.00817 2.85502
389 1 2.67638 5.53314 0.554383
390 1 3.01985 8.6624 2.73491
391 1 0.463322 0.35822 7.92667
392 1 2.42012 0.254692 6.9319
393 1 6.05762 8.11937 8.63892
394 1 8.40072 1.49118 4.26543
395 1 5.97834 4.80971 4.39429
396 1 8.89135 0.675286 8.89351
397 1 5.57285 2.84449 2.01066
398 1 4.56668 2.65233 4.4709
399 1 0.437086 9.23012 2.75198
400 1 3.45464 5.12733 4.69364
401 1 6.34024 4.61255 3.62832
402 1 6.7406 9.35481 2.46332
403 1 9.08436 3.56677 8.25086
404 1 5.93799 1.35766 1.31853
405 1 1.36084 5.88613 6.89237
406 1 8.60408 8.11759 6.40231
407 1 4.49013 3.36806 8.6916
408 1 4.68586 6.80726 5.8094
409 1 8.72569 1.71538 5.79881
410 1 5.77299 6.59359 2.65866
411 1 8.33805 5.12313 7.49255
412 1 1.53109 7.3298 6.4896
413 1 0.901801 7.81932 7.50738
414 1 3.11682 5.3688 6.90243
415 1 6.18267 8.33619 4.2355
416 1 5.21732 2.85926 8.99447
417 1 5.18686 4.28253 7.30278
418 1 6.02135 8.20792 7.41599
419 1 8.12164 0.356371 9.2416
420 1 1.3824 0.904306 8.37047
421 1 3.75162 1.47123 8.33555
422 1 1.66528 3.27759 3.88632
423 1 3.16455 0.0975109 4.45225
424 1 9.05872 2.19154 4.93929
425 1 3.91844 3.53097 6.67947
426 1 9.0404 6.80703 5.56686
427 1 6.36217 2.63418 2.61652
428 1 0.0699158 3.64881 3.32338
429 1 6.21556 8.42488 5.39508
430 1 3.88489 6.95126 0.455496
431 1 8.40227 1.39279 7.51745
432 1 8.75966 7.47819 4.76293
433 1 2.15344 7.8624 4.93887
434 1 1.17297 4.09794 8.28737
435 1 5.63101 5.69198 4.90382
436 1 6.82584 1.51543 1.75225
437 1 9.16909 8.9435 7.87426
438 1 5.07416 1.13619 1.64759
439 1 0.294442 6.27995 5.33978
440 1 5.61076 8.98724 1.15364
441 1 5.63633 0.404505 1.25407
442 1 2.89466 3.34667 6.41957
443 1 9.1404 3.72078 2.47448
444 1 0.0950908 3.8764 7.54473
445 1 1.03647 8.83416 6.73365
446 1 2.12261 6.39008 3.7584
447 1 8.57809 8.02884 1.63692
448 1 4.66015 9.20963 8.53511
449 1 8.35338 2.09942 1.66748
450 1 5.46885 7.68781 1.62934
451 1 0.332881 5.96337 4.33441
452 1 6.42453 6.25031 1.52798
453 1 2.21373 1.88893 1.1624
454 1 6.67521 2.5331 6.1072
455 1 3.26349 0.750738 8.51904
456 1 5.85569 4.77098 9.18486
457 1 4.84837 1.02118 3.64305
458 1 5.34931 5.01237 3.5316
459 1 5.90931 4.96365 7.74884
460 1 0.943487 0.784242 2.85005
461 1 3.60313 5.6647 0.634196
462 1 8.19775 8.82253 9.23178
463 1 6.56338 3.54897 5.25
464 1 3.09328 2.05506 2.01315
465 1 4.93498 0.515087 9.10462
466 1 6.25859 4.85618 2.76309
467 1 1.80495 4.7914 0.718996
468 1 5.44827 7.05079 6.62153
469 1 2.58262 4.28472 1.6715
470 1 5.09687 6.94866 3.4738
471 1 7.50471 3.12805 1.56563
472 1 8.09819 4.57377 6.49903
473 1 7.9568 5.33985 3.27677
474 1 3.11384 2.72084 2.71547
475 1 4.4164 1.34921 7.37205
476 1 4.08187 3.11853 1.22447
477 1 7.45423 2.8906 9.06356
478 1 1.23679 6.21179 8.18967
479 1 5.18995 7.37763 9.35896
480 1 0.465219 4.0045 4.33802
481 1 2.38548 2.67449 5.92692
482 1 5.47387 3.27826 3.01469
483 1 6.69896 5.73761 8.75449
484 1 8.48653 6.42428 2.43901
485 1 4.28494 2.23847 7.77984
486 1 0.272982 4.6723 0.0145378
487 1 3.30644 1.70016 7.62813
488 1 5.66376 0.329514 8.47509
489 1 4.81752 8.7507 1.51142
490 1 8.938 0.944429 3.70323
491 1 7.00062 8.04739 6.03077
492 1 6.9464 2.15411 0.0523251
493 1 9.26931 7.82246 8.33037
494 1 4.76474 5.1157 6.77827
495 1 1.14235 1.62709 9.10677
496 1 1.72037 1.15774 1.1512
497 1 1.61994 0.194096 7.95041
498 1 3.70687 8.66806 4.40229
499 1 4.80871 4.64691 2.43553
500 1 9.10436 8.63519 8.87108
501 1 8.79992 5.02115 3.71694
502 1 0.395189 9.28851 8.7549
503 1 4.15347 4.4918 4.83559
504 1 6.56538 4.49881 8.56279
505 1 6.72896 1.33559 0.618206
506 1 1.72209 4.48889 7.69312
507 1 4.15997 4.82136 7.42777
508 1 3.13495 0.413326 6.11399
509 1 4.42163 8.56184 7.97652
510 1 8.35157 3.17317 8.07269
511 1 5.0913 6.47772 8.42453
512 1 8.92882 8.66235 3.39376
513 1 0.894049 7.92451 6.57999
514 1 0.99387 2.51222 9.37966
515 1 4.38609 2.43492 8.751
516 1 8.24982 2.91279 1.09206
517 1 0.206935 2.50858 3.31573
518 1 0.542605 3.26905 2.54814
519 1 6.31761 2.64266 8.94504
520 1 4.51478 5.01518 0.683508
521 1 3.11113 1.79253 1.13947
522 1 7.48281 8.89507 8.71016
523 1 7.94743 7.51156 1.0036
524 1 4.98017 0.849521 5.8179
525 1 6.60853 0.704672 8.42485
526 1 4.87871 5.56267 4.00933
527 1 2.02001 1.7023 4.08317
528 1 3.13095 9.27464 8.69642
529 1 4.56353 5.8479 0.345344
530 1 4.7208 3.273 1.8621
531 1 0.0283595 4.29087 0.873331
532 1 2.72572 7.90556 1.58612
533 1 1.79754 3.36175 5.99699
534 1 5.80298 5.38095 1.47914
535 1 2.17044 3.26731 5.15306
536 1 9.0049 7.68327 3.92667
537 1 3.78812 9.38009 0.891408
538 1 2.88413 7.24839 3.07807
539 1 2.27373 7.50821 0.617004
540 1 8.08037 7.61472 7.34584
541 1 9.21616 6.21726 8.05419
542 1 2.37786 8.56123 8.12005
543 1 6.88818 5.07535 7.06657
544 1 7.86429 3.54383 3.2583
545 1 3.37309 4.47932 5.52136
546 1 8.35635 9.40437 5.18286
547 1 2.20386 4.23723 3.417
548 1 0.943231 2.69509 7.27623
549 1 6.52878 6.29741 4.32183
550 1 4.84213 2.36944 6.32284
551 1 6.58485 0.717783 1.35869
552 1 2.07087 5.10668 9.36455
553 1 9.09529 2.32107 8.05376
554 1 0.737039 3.33818 1.68374
555 1 6.80093 2.19795 1.15749
556 1 8.75156 5.46583 8.42176
557 1 8.26086 7.42841 2.35902
558 1 7.12738 5.05931 3.57938
559 1 2.42696 2.55583 0.332774
560 1 2.22085 1.04951 5.05921
561 1 4.17767 6.27444 1.17732
562 1 9.25425 5.71598 2.13733
563 1 0.495998 1.96486 6.9932
564 1 7.42608 5.17485 5.02198
565 1 7.87963 7.96006 5.24898
566 1 4.15127 4.92993 3.93473
567 1 2.24611 2.6776 4.38149
568 1 3.99182 0.39324 4.69127
569 1 1.33459 3.89486 4.38481
570 1 6.49764 2.38459 7.68093
571 1 1.40666 6.60379 0.385297
572 1 2.95922 4.06823 2.89821
573 1 3.8244 6.01306 3.06307
574 1 7.91381 1.29687 0.179908
575 1 8.78376 6.29951 0.399784
576 1 2.85767 1.0014 0.0250968
577 1 9.23564 7.46583 2.11844
578 1 1.60896 8.07646 7.1873
579 1 2.61101 4.1149 9.0381
580 1 4.38075 5.87832 1.97424
581 1 9.40402 6.83257 2.83335
582 1 4.30386 5.82803 4.76198
583 1 1.42944 2.5634 5.7714
584 1 0.960587 4.13026 7.05012
585 1 3.75277 6.50553 5.28195
586 1 2.79491 5.24715 2.31214
587 1 8.42322 0.651221 2.22763
588 1 6.57841 7.10424 4.58287
589 1 7.89892 0.273523 5.963
590 1 8.28122 5.03692 4.86827
591 1 5.73026 7.0766 8.38818
592 1 2.96229 3.3078 4.67889
593 1 5.35586 5.20486 5.76615
594 1 8.51963 3.07895 6.73185
595 1 1.89326 0.568327 2.65278
596 1 1.63576 4.13142 9.19871
597 1 9.08174 7.71901 5.81788
598 1 3.53753 0.825705 1.93363
599 1 5.74116 4.40676 0.686324
600 1 3.58488 5.39682 5.58666
601 1 3.7365 6.56842 4.30042
602 1 0.963426 0.316248 1.31322
603 1 0.524836 1.62971 5.20152
604 1 4.50961 4.37701 3.24353
605 1 4.36685 7.92762 9.21067
606 1 4.79322 1.6403 8.80497
607 1 8.44523 2.90335 4.77064
608 1 2.73593 4.68651 4.09564
609 1 1.54683 5.66853 0.515136
610 1 5.93972 7.20348 5.70454
611 1 4.08225 2.72105 5.80161
612 1 3.77444 1.73036 4.7458
613 1 7.73271 1.96302 5.39556
614 1 0.135386 4.50465 3.6708
615 1 1.78284 8.33844 3.23067
616 1 2.69996 5.4455 5.03911
617 1 5.8697 0.604753 2.39301
618 1 0.516896 1.16833 1.57514
619 1 7.45853 7.61698 4.51684
620 1 1.91406 0.303058 0.74224
621 1 0.0363527 8.43753 6.20025
622 1 3.76412 3.21129 5.02337
623 1 1.57361 4.10686 1.72572
624 1 7.43909 1.88565 6.19694
625 1 8.7986 6.3459 1.59448
626 1 1.73778 4.7313 4.79994
627 1 3.33805 4.86396 3.20416
628 1 8.68009 5.37077 6.4769
629 1 3.83783 5.68011 3.9309
630 1 1.96419 2.66967 8.86962
631 1 6.4463 5.46853 5.31978
632 1 1.9375 7.55331 9.05553
633 1 5.25191 1.67389 4.36424
634 1 3.47709 4.45298 1.96134
635 1 5.71722 1.48305 3.68255
636 1 7.82514 3.33452 7.17745
637 1 8.12045 0.364928 1.22976
638 1 5.6342 7.55655 3.06092
639 1 7.70606 4.29355 5.0716
640 1 4.52978 0.0543507 6.06707
641 1 3.51572 2.84096 7.23702
642 1 6.41332 9.06551 7.85482
643 1 1.91659 8.41618 9.21824
644 1 2.0647 8.846 1.47327
645 1 1.05377 6.29708 2.42951
646 1 6.59263 4.41157 5.21008
647 1 5.17975 2.71428 3.79195
648 1 6.93919 2.40843 3.89888
649 1 0.38253 0.426106 2.07311
650 1 1.04055 6.9156 7.21741
651 1 0.376784 7.18721 0.930678
652 1 7.52824 8.47698 2.66324
653 1 6.57433 2.97445 1.60449
654 1 4.24288 6.86933 1.95974
655 1 2.51057 2.80789 1.16013
656 1 7.07392 8.55804 3.41619
657 1 7.17183 7.2318 7.19881
658 1 6.36009 1.75762 4.35056
659 1 5.40781 9.13357 3.83888
660 1 6.55997 3.60961 0.568318
661 1 3.85801 3.229 3.26661
662 1 0.638473 7.27285 8.73888
663 1 4.23299 7.40988 7.8636
664 1 4.65179 7.33926 8.57825
665 1 6.94007 7.80923 5.16374
666 1 4.82637 6.63259 0.423688
667 1 7.20522 6.36321 8.17688
668 1 7.74422 4.41393 3.18958
669 1 4.66622 7.87141 1.94256
670 1 4.68501 2.74932 2.80749
671 1 3.64389 7.15575 6.06935
672 1 5.59473 1.04539 0.5813
673 1 0.697142 7.28581 2.41929
674 1 8.99747 4.60017 7.74104
675 1 2.09277 6.67352 6.52146
676 1 7.8383 4.68341 4.15746
677 1 1.5846 8.5965 4.92772
678 1 7.29672 7.22532 3.56332
679 1 6.69598 0.729319 3.05269
680 1 9.10507 7.14876 8.80212
681 1 2.82212 8.145 0.40809
682 1 2.87474 4.19789 6.48558
683 1 0.236877 3.6759 0.266283
684 1 0.329206 5.49225 8.40179
685 1 0.936445 5.98206 9.24344
686 1 2.24615 6.638 0.407978
687 1 7.80297 2.11078 4.47967
688 1 1.69626 9.36666 5.34644
689 1 4.64941 7.21867 1.20842
690 1 2.41223 3.27449 8.36763
691 1 8.63642 0.177167 3.20999
692 1 6.81019 6.45411 7.38024
693 1 5.6508 1.24124 8.77715
694 1 5.14618 8.91127 5.60678
695 1 2.82098 7.36946 9.14913
696 1 5.94085 3.72944 1.25996
697 1 2.32049 5.08626 2.99152
698 1 2.1811 6.17381 5.2587
699 1 1.25651 1.77999 4.63061
700 1 6.17311 5.74454 2.44713
701 1 1.96431 5.72182 2.41415
702 1 6.47567 8.8462 0.982478
703 1 3.39434 1.42385 6.7591
704 1 3.1491 7.15451 4.97779
705 1 1.8611 8.86372 3.9708
706 1 3.7455 5.57364 7.64834
707 1 3.78104 1.30712 3.74755
708 1 0.233751 8.52872 7.28492
709 1 6.78083 3.48904 8.85401
710 1 5.88387 0.817928 6.6573
711 1 6.64636 5.48212 7.82997
712 1 3.20245 3.61211 5.56017
713 1 9.15273 6.13485 6.20585
714 1 2.66582 0.39445 2.18046
715 1 1.2091 6.74524 3.23533
716 1 8.79568 4.03366 8.95719
717 1 4.14876 0.257794 7.89055
718 1 2.16297 2.64922 2.19524
719 1 8.57284 0.0319926 0.570249
720 1 7.94791 6.96871 8.7853
721 1 6.31478 2.70049 5.26174
722 1 3.8453 8.68609 8.66605
723 1 6.03175 3.71235 2.1959
724 1 3.8583 2.21158 2.96108
725 1 5.33561 6.20881 1.10291
726 1 2.57144 1.00863 0.88462
727 1 4.58117 3.64028 4.59821
728 1 7.47938 5.82815 7.58586
729 1 7.22154 0.943331 6.23654
730 1 3.03432 0.275867 1.22529
731 1 9.10785 3.04626 9.07777
732 1 3.04302 1.89008 0.245572
733 1 4.53022 3.64508 2.84769
734 1 7.61457 3.95391 2.46552
735 1 8.82672 0.552548 5.88454
736 1 6.31541 4.65588 1.88244
737 1 1.17903 0.620224 6.02764
738 1 0.512543 0.211972 0.32564
739 1 1.29437 7.25984 8.15774
740 1 0.209208 1.59575 3.3704
741 1 7.37624 8.11063 7.00686
742 1 6.903 4.39873 4.42062
743 1 9.29156 8.93427 0.286064
744 1 9.29859 9.3719 7.07071
745 1 8.43248 2.5564 5.61641
746 1 3.96489 7.58767 6.79372
747 1 6.97561 7.84797 2.37714
748 1 0.561854 3.0882 0.841043
749 1 1.32029 9.03613 8.79338
750 1 0.287697 6.85494 0.108105
751 1 0.466662 2.97256 8.40079
752 1 0.922668 4.96124 7.51202
753 1 1.21879 8.20553 2.42877
754 1 7.86362 8.68353 5.98673
755 1 2.45812 7.15868 2.06355
756 1 1.33637 5.64473 3.26598
757 1 9.39589 5.04284 4.57251
758 1 7.28921 5.58433 0.164867
759 1 2.08988 3.39499 0.122955
760 1 7.34682 6.1365 3.45346
761 1 5.03521 4.95177 9.34262
762 1 6.96504 2.29183 4.86458
763 1 0.00343778 7.6808 7.03381
764 1 5.69598 6.69301 7.48237
765 1 2.96201 5.08509 6.07441
766 1 4.85447 1.2477 0.275161
767 1 8.39944 8.91693 7.39006
768 1 0.760419 5.53473 2.18549
769 1 4.0978 8.55818 6.41103
770 1 7.6363 1.47087 2.49209
771 1 2.68146 3.17544 7.46997
772 1 7.15031 6.53908 0.899619
773 1 0.432136 4.31924 6.23921
774 1 6.43979 5.0345 0.544108
775 1 1.18334 8.48795 1.27325
776 1 7.92916 8.94342 3.58988
777 1 3.89347 1.77296 1.69276
778 1 9.15673 1.37048 6.5832
779 1 8.12696 4.93401 0.921701
780 1 2.28283 8.0678 2.47212
781 1 8.34014 5.38762 0.0110088
782 1 0.86431 2.12083 0.834508
783 1 3.61012 0.348753 3.72761
784 1 0.022074 7.7338 2.98116
785 1 7.40973 4.71808 9.1442
786 1 9.3148 4.7897 5.62323
787 1 5.32546 7.88376 8.02193
788 1 8.0121 3.63944 6.16066
789 1 7.33012 4.16914 6.89002
790 1 1.40297 1.80834 7.21977
791 1 1.22086 8.08028 8.68736
792 1 1.31087 6.0868 1.47366
793 1 4.5916 5.91088 6.03758
794 1 2.42534 5.80996 6.17319
795 1 2.55766 6.20823 1.90337
796 1 4.04442 8.92122 5.58421
797 1 0.219819 8.40454 2.00636
798 1 1.44667 4.98652 6.59833
799 1 4.91976 4.00417 5.46963
800 1 2.60199 5.56848 8.66652
801 2 1.86129 0.892565 3.6245
802 2 5.11718 1.31799 6.59781
803 2 7.39548 5.70156 5.77251
804 2 4.97128 4.36668 4.06883
805 2 1.70165 2.57259 6.62228
806 2 3.0551 6.04937 4.45515
807 2 5.87547 4.4494 5.73874
808 2 8.57046 3.47933 5.44686
809 2 3.32316 2.70252 1.45027
810 2 4.96526 6.24258 5.20513
811 2 7.8965 6.70062 2.93414
812 2 2.15393 8.80306 7.21973
813 2 0.258658 3.98419 5.52345
814 2 1.87101 5.05907 3.83865
815 2 7.46684 4.63023 7.764
816 2 7.84745 5.57012 6.76375
817 2 6.22901 2.06818 3.42542
818 2 3.19921 8.6556 1.10407
819 2 4.18646 5.15239 9.26431
820 2 2.19682 7.98675 6.58568
821 2 5.30982 8.44574 4.85244
822 2 7.82635 7.86624 3.20432
823 2 3.8593 8.51921 1.75037
824 2 1.78771 1.04433 0.332014
825 2 4.25288 6.48678 6.62999
826 2 5.46766 2.32491 2.90595
827 2 0.485545 6.41439 3.59673
828 2 8.85417 7.01218 7.5152
829 2 3.25846 2.26365 6.33406
830 2 4.49196 6.9366 4.87298
831 2 8.47037 1.28303 1.05848
832 2 3.08475 8.79519 5.24241
833 2 6.74103 5.46877 4.36736
834 2 7.86126 1.93839 3.33387
835 2 2.15317 2.33075 3.54638
836 2 3.39449 1.55475 5.79944
837 2 5.42833 0.300545 5.21534
838 2 0.508532 8.41893 9.32363
839 2 5.38171 5.27396 2.73053
840 2 3.88588 6.43177 7.55299
841 2 3.24908 4.6706 8.85695
842 2 5.76561 6.24603 5.98398
843 2 0.929053 3.50687 7.71828
844 2 4.89995 4.23522 6.42899
845 2 9.04796 6.59292 4.55251
846 2 7.39518 0.898283 0.892445
847 2 5.37054 5.27869 0.661764
848 2 3.36212 2.67519 8.15387
849 2 5.00394 0.964167 8.25051
850 2 7.62684 3.04598 2.44722
851 2 6.40279 6.74514 6.59632
852 2 3.22492 8.95827 0.175613
853 2 1.49937 8.17719 5.8432
854 2 7.48444 8.73478 7.68702
855 2 6.16017 7.52751 9.22772
856 2 9.08616 2.26618 7.14982
857 2 7.37866 3.82589 4.02165
858 2 6.46472 9.17393 4.35469
859 2 1.56201 3.39545 6.9391
860 2 0.0256254 8.08806 1.05977
861 2 5.92068 6.52283 5.1322
862 2 7.15276 8.50727 4.42096
863 2 3.84256 8.3727 7.25661
864 2 5.79677 3.81532 4.00091
865 2 0.564699 6.2141 0.791607
866 2 2.25649 5.74974 4.34711
867 2 1.23063 5.05421 1.56573
868 2 2.0938 4.06544 6.85327
869 2 1.14051 9.23295 2.05424
870 2 1.81467 7.96306 4.1015
871 2 6.91262 1.28937 9.0572
872 2 7.10348 0.219489 3.62146
873 2 3.54417 2.83117 4.2374
874 2 5.7622 3.785 6.39719
875 2 8.28942 2.36835 7.70545
876 2 1.9894 9.27316 9.20059
877 2 5.54517 4.2275 2.92338
878 2 8.03932 1.0914 5.39676
879 2 7.36224 1.12551 4.44265
880 2 3.96519 5.20428 1.47138
881 2 6.50734 6.72735 3.35318
882 2 4.94221 3.90504 8.02758
883 2 9.23409 2.23451 2.48596
884 2 1.123 7.65166 3.31109
885 2 7.48843 1.9613 8.67392
886 2 3.4628 2.93596 0.429312
887 2 1.70001 6.67138 1.94724
888 2 7.53285 1.47684 6.94869
889 2 0.157771 1.93519 0.325079
890 2 2.59607 0.402053 3.26515
891 2 4.58871 2.31127 1.37369
892 2 5.43747 9.14666 9.30551
893 2 0.448508 1.5085 2.42005
894 2 4.37219 4.29533 1.52594
895 2 0.430408 3.45419 6.71389
896 2 7.53146 4.92695 1.64912
897 2 5.84397 0.910514 4.59449
898 2 0.23467 7.26834 5.01354
899 2 8.11983 8.92788 2.04166
900 2 8.26597 6.98652 4.04649
901 2 3.05868 4.99562 8.06891
902 2 2.89501 6.37309 6.99761
903 2 5.82882 3.53089 7.40482
904 2 0.682719 6.07963 7.60584
905 2 2.2349 0.350555 4.29699
906 2 2.30751 4.99907 7.01946
907 2 6.59819 7.75462 3.23822
908 2 2.45728 6.84732 1.21831
909 2 1.24018 2.3191 3.92393
910 2 5.74375 8.16967 0.831647
911 2 3.8979 4.73058 8.23574
912 2 4.19765 3.61888 5.83706
913 2 1.84514 7.7624 1.57637
914 2 7.11375 4.52061 0.741045
915 2 4.61317 1.92323 3.79276
916 2 0.576338 8.91854 4.80944
917 2 4.9395 2.89863 5.45855
918 2 7.38223 5.98596 1.68168
919 2 8.59449 7.97906 9.13836
920 2 9.24703 1.7648 1.24801
921 2 0.67297 6.24267 6.20005
922 2 4.70818 8.46672 3.9606
923 2 7.14704 2.49755 6.94918
924 2 1.39122 0.478789 9.23402
925 2 1.14397 4.6209 5.9491
926 2 6.2158 0.0621796 0.482485
927 2 4.42468 0.803861 1.00953
928 2 5.06412 7.08647 2.54625
929 2 1.62773 1.85669 8.25884
930 2 9.19032 0.740551 0.474067
931 2 5.86031 3.93583 8.35582
932 2 5.22326 3.12656 6.74272
933 2 9.26947 5.68658 9.19793
934 2 5.22933 9.38401 1.93027
935 2 6.16818 0.523399 9.12169
936 2 3.06101 9.02896 1.91473
937 2 2.86611 7.28054 6.74506
938 2 3.24024 7.08964 7.51993
939 2 6.09674 2.11029 1.72769
940 2 5.73079 4.16001 4.86181
941 2 6.98375 7.94451 8.90846
942 2 5.9408 1.93511 0.0252152
943 2 6.22087 3.2149 3.48165
944 2 6.25006 9.16448 3.4493
945 2 8.39544 3.27345 0.267674
946 2 3.07336 1.97755 3.4307
947 2 9.17825 3.10351 1.78717
948 2 0.12189 2.2234 8.79124
949 2 5.82444 4.84632 6.85329
950 2 0.416832 6.54267 1.83476
951 2 8.16525 4.40606 0.158279
952 2 6.96251 5.50077 2.74962
953 2 8.20766 4.64395 8.63657
954 2 7.18064 4.10474 5.81938
955 2 6.67354 3.56204 6.37096
956 2 4.46132 6.41584 3.66456
957 2 7.43898 6.57966 6.26522
958 2 0.219551 0.0856605 6.23312
959 2 5.07826 8.40934 8.66243
960 2 7.47874 9.36023 4.96241
961 2 6.70055 1.49507 7.43372
962 2 1.33504 9.22694 3.31315
963 2 2.04895 7.41021 3.41212
964 2 9.28094 8.35012 4.36267
965 2 1.53692 2.93977 0.912182
966 2 6.88124 6.46722 2.35882
967 2 2.94294 5.63296 3.53451
968 2 5.85708 3.1146 5.88949
969 2 2.71457 1.10194 7.35973
970 2 8.12 6.61212 7.01736
971 2 6.30127 7.34612 7.67538
972 2 2.15461 7.66548 8.1532
973 2 7.14336 0.133203 7.79202
974 2 4.12884 0.701421 2.69611
975 2 1.3495 3.28909 8.8292
976 2 4.47431 5.29165 3.19257
977 2 7.69775 7.69349 6.34551
978 2 4.92428 2.09771 7.16642
979 2 7.79314 5.6739 2.38421
980 2 5.56366 2.67606 7.55298
981 2 8.79245 8.09166 7.67311
982 2 5.31791 6.00636 6.72738
983 2 0.972081 3.58931 6.04141
984 2 5.18407 4.73207 8.45435
985 2 0.943787 1.09972 7.50246
986 2 2.332 8.81147 5.76108
987 2 7.61041 8.11018 1.83037
988 2 3.49931 4.6382 0.29833
989 2 2.12752 6.263 8.91871
990 2 3.66438 8.91041 3.42527
991 2 1.33789 8.97155 0.456692
992 2 0.323964 5.44158 3.23435
993 2 1.69485 1.5682 5.58399
994 2 8.15334 8.67884 4.5782
995 2 8.3643 3.62344 1.86862
996 2 0.47383 5.55565 6.73342
997 2 8.56166 4.00212 7.31274
998 2 2.49239 1.27659 1.7707
999 2 3.84507 7.70453 1.43788