#bin. KALJ data file T=0.5

1000 atoms
2 atom types

0 9.4 xlo xhi
0 9.4 ylo yhi
0 9.4 zlo zhi

Masses

1 1.0
2 1.0

Atoms

1 1 0.454563 0.602046 8.83843
2 1 8.57886 4.60932 1.97984
3 1 5.44797 9.31637 0.543389
4 1 3.64437 0.683528 7.4046
5 1 6.40506 7.06695 0.141006
6 1 8.46444 0.0362434 5.08443
7 1 3.65691 3.13688 4.94655
8 1 6.01309 4.43278 8.26691
9 1 0.693884 1.46267 7.2291
10 1 6.99759 2.85961 3.90142
11 1 0.466569 1.77918 5.60554
12 1 1.17676 2.01128 1.03585
13 1 3.65139 2.29453 8.77543
14 1 9.24419 4.99597 7.63442
15 1 8.06992 4.87252 5.29384
16 1 5.23829 5.48984 3.26806
17 1 0.108005 1.70409 8.89558
18 1 1.96128 2.99265 2.35986
19 1 0.379166 0.345443 2.97914
20 1 2.16516 1.2081 4.61826
21 1 8.49425 3.84193 2.42488
22 1 6.24786 2.55651 8.17503
23 1 2.67118 2.54288 4.567
24 1 8.69726 0.495893 4.11572
25 1 -0.00180781 8.81888 0.716058
26 1 1.9185 9.15086 9.13604
27 1 7.77017 4.86537 4.46312
28 1 2.18329 0.35851 3.76032
29 1 3.38068 7.79471 9.37815
30 1 4.49708 8.19579 1.40788
31 1 6.38317 2.14436 4.57447
32 1 1.37048 8.97404 5.40566
33 1 2.14366 1.40288 5.72855
34 1 8.15514 7.39529 9.06124
35 1 5.5867 8.98768 1.40457
36 1 4.33374 5.64573 0.787712
37 1 8.86922 3.36932 0.422645
38 1 2.32399 5.86084 2.62137
39 1 7.43554 6.94304 2.34993
40 1 0.0143038 7.73519 1.71521
41 1 2.94527 8.03458 5.50539
42 1 3.69665 0.949433 4.30813
43 1 5.38688 4.49175 6.77447
44 1 0.233302 3.35141 0.843357
45 1 8.86724 0.359273 8.33044
46 1 3.82538 5.74195 6.66875
47 1 5.41417 3.83455 2.32776
48 1 7.46955 4.16605 5.22983
49 1 5.3816 1.25749 4.3015
50 1 4.7773 2.46414 4.44214
51 1 6.70589 6.0772 0.522903
52 1 5.72189 1.28009 8.03028
53 1 5.45984 4.51579 0.224953
54 1 3.94861 9.00462 0.584517
55 1 0.315662 7.67931 8.6973
56 1 0.891366 0.0984475 3.72785
57 1 5.93844 4.66292 1.12175
58 1 0.806589 0.347655 7.2153
59 1 7.08824 4.55596 3.51138
60 1 8.70636 4.21241 5.30352
61 1 4.75764 6.6559 8.22053
62 1 6.33271 4.10963 2.20995
63 1 3.19762 4.53878 0.470674
64 1 4.04891 0.158426 2.16982
65 1 1.72529 1.08492 0.19056
66 1 1.53729 3.74288 2.78922
67 1 7.06189 7.32178 3.61825
68 1 4.95504 5.05634 0.889347
69 1 4.1592 0.315109 3.45533
70 1 0.540809 3.36034 3.00789
71 1 1.54044 3.89458 9.30313
72 1 8.02134 8.74186 7.50016
73 1 2.76092 4.43439 5.80708
74 1 8.66158 3.35798 7.05073
75 1 3.71861 8.36394 6.67507
76 1 5.73684 4.01743 3.17966
77 1 2.06383 7.12445 1.55246
78 1 2.41947 4.42809 7.38849
79 1 4.46465 5.84664 8.64304
80 1 0.790823 0.533177 0.282327
81 1 5.12071 7.66655 9.0907
82 1 5.36755 5.02794 7.61486
83 1 5.65568 7.96433 1.43498
84 1 7.88422 5.68995 2.79452
85 1 5.92363 8.78409 8.63049
86 1 6.4473 2.8702 1.31209
87 1 9.00396 1.23922 6.53445
88 1 5.58538 5.51412 4.71287
89 1 7.425 4.6078 7.24433
90 1 5.2563 2.13552 9.28058
91 1 8.1621 0.457562 1.32306
92 1 1.56773 0.559185 8.80913
93 1 8.72252 8.38267 6.61639
94 1 4.90184 2.40237 3.4508
95 1 8.43263 1.67413 0.0875877
96 1 5.86899 8.05317 6.94159
97 1 0.149564 7.11581 3.73934
98 1 3.16843 5.97442 8.57983
99 1 9.05361 0.189926 1.14951
100 1 0.390207 7.51051 2.46598
101 1 3.0804 1.78956 5.97046
102 1 2.19216 7.98548 5.99766
103 1 7.88104 8.794 1.81099
104 1 7.76632 5.23566 6.04916
105 1 6.29641 1.58805 1.03732
106 1 3.86897 4.79747 8.46443
107 1 4.51554 6.8658 0.843683
108 1 3.7013 2.28437 4.5693
109 1 6.96683 3.57878 1.05431
110 1 0.237038 4.72154 3.82552
111 1 8.54465 0.768357 7.52432
112 1 6.39967 8.55865 7.76776
113 1 6.5299 1.66159 0.0644858
114 1 5.71436 0.465668 1.42033
115 1 1.64143 8.99295 7.64662
116 1 4.30504 2.84739 3.0359
117 1 3.83251 3.87012 7.65862
118 1 6.955 2.54442 6.82041
119 1 7.52792 0.731148 7.72291
120 1 8.2759 2.62814 7.96191
121 1 6.10695 6.78709 3.82179
122 1 4.75874 4.0348 -0.000231771
123 1 1.28412 1.97187 5.98756
124 1 7.38159 9.08766 4.44832
125 1 8.12652 1.49385 3.82808
126 1 3.62382 2.3271 2.92214
127 1 1.61978 1.81112 8.2861
128 1 5.46016 7.15373 5.26998
129 1 0.0467097 9.09628 6.61314
130 1 3.48745 6.41337 5.31296
131 1 2.7876 5.99747 6.1367
132 1 4.93013 3.31348 7.67067
133 1 7.86478 2.20393 0.927356
134 1 4.87019 8.44755 0.637539
135 1 6.9476 3.59913 6.71707
136 1 0.891077 2.25564 8.93503
137 1 5.14568 3.22838 8.9184
138 1 3.60188 4.10734 2.66423
139 1 6.63366 7.60233 7.47725
140 1 5.45313 0.0487382 8.07847
141 1 7.52182 1.3676 0.52726
142 1 5.63756 9.16499 5.7509
143 1 9.1082 5.93112 5.30807
144 1 0.59859 3.30589 7.52556
145 1 8.12194 2.13736 1.79918
146 1 3.97402 1.76122 6.58155
147 1 3.66482 9.37387 6.5819
148 1 6.26217 8.22379 2.84447
149 1 0.144825 5.12562 4.66072
150 1 0.515503 6.98966 7.49962
151 1 3.9473 8.61995 2.24956
152 1 2.67849 3.743 4.39029
153 1 4.9809 1.05694 8.71003
154 1 5.37337 6.46544 4.39781
155 1 0.373393 3.65094 4.62222
156 1 1.6627 8.6449 6.19464
157 1 3.88157 4.3117 9.19047
158 1 7.56072 5.95624 4.71174
159 1 3.58954 7.26954 2.6571
160 1 1.7154 7.17867 4.65564
161 1 8.74161 2.77457 8.71379
162 1 2.66517 3.75807 8.05525
163 1 4.4438 5.19753 7.85383
164 1 1.5281 1.78066 3.73524
165 1 8.11835 7.50805 2.8451
166 1 2.92122 1.76105 4.19429
167 1 5.79823 6.83456 7.76401
168 1 9.01456 3.05374 5.11099
169 1 3.32126 3.71 0.43191
170 1 8.84134 0.950545 2.5848
171 1 2.59549 1.9778 7.60981
172 1 0.645653 3.81901 1.56356
173 1 1.66348 7.51367 8.85533
174 1 1.24117 4.05111 5.65877
175 1 3.21445 3.88279 5.24257
176 1 2.15534 2.03469 2.67236
177 1 8.22646 3.67109 8.95679
178 1 8.81272 7.64214 0.803019
179 1 7.22248 5.17484 5.17628
180 1 4.13177 8.19384 8.68198
181 1 8.1012 7.24637 5.40568
182 1 8.69428 1.16068 5.34124
183 1 1.63113 6.42378 3.11695
184 1 0.367045 6.64466 4.81667
185 1 8.96613 3.16324 4.1902
186 1 2.9288 5.70518 7.22218
187 1 5.57218 5.97733 0.923157
188 1 5.32023 4.81975 2.62635
189 1 6.14533 7.5792 3.42026
190 1 3.08221 1.64409 8.44045
191 1 0.642305 1.7433 8.13569
192 1 8.61362 4.26958 0.250875
193 1 5.30676 6.20146 5.30217
194 1 1.08494 3.23531 2.33235
195 1 8.94271 1.91783 0.767426
196 1 0.40587 7.2396 0.829908
197 1 9.28454 5.72546 8.23057
198 1 5.02633 4.47742 1.69013
199 1 9.27177 6.64497 0.533171
200 1 7.0141 8.14466 5.65037
201 1 4.06035 5.66406 4.74168
202 1 6.39202 6.23113 1.9346
203 1 1.68242 1.17448 2.52544
204 1 3.471 4.67305 7.27399
205 1 2.47108 3.67629 8.91345
206 1 1.34725 4.39709 2.06462
207 1 5.81714 7.69711 4.33512
208 1 7.72443 4.44225 9.00552
209 1 4.39124 9.17804 4.06786
210 1 2.06479 2.44477 8.78504
211 1 6.0279 6.29955 -0.0219969
212 1 2.60968 7.88946 4.61707
213 1 0.507746 6.9203 9.25295
214 1 3.09953 2.93875 8.15079
215 1 3.90805 1.88526 3.78019
216 1 1.00642 5.48047 1.13963
217 1 3.03755 4.55042 8.83149
218 1 4.10499 1.52862 5.72204
219 1 0.5398 8.87777 5.93018
220 1 1.89544 3.20037 7.92298
221 1 2.64205 2.87014 7.36712
222 1 4.55632 6.81716 9.06982
223 1 6.93691 9.10986 6.04527
224 1 4.95121 7.3755 1.55869
225 1 0.431597 0.734663 1.39342
226 1 7.83649 0.23024 2.79563
227 1 8.89359 6.21952 1.38533
228 1 1.93183 4.84796 4.19635
229 1 1.48146 2.82204 3.08146
230 1 0.909844 2.75594 0.568454
231 1 1.92819 6.2769 3.9852
232 1 4.40546 6.19472 5.67173
233 1 6.51672 9.22199 3.07501
234 1 3.65952 5.46095 7.67852
235 1 3.99611 5.85408 3.13166
236 1 0.00701116 8.11472 4.49427
237 1 2.22808 2.54425 5.82752
238 1 4.32348 9.0899 8.28439
239 1 6.53061 0.851887 9.17552
240 1 6.50594 2.73078 5.56017
241 1 6.75607 8.39199 0.416706
242 1 4.75696 5.09815 7.01293
243 1 5.96092 4.59506 4.2742
244 1 7.96135 4.02972 6.62414
245 1 2.49136 8.39621 1.25162
246 1 5.39633 0.381386 9.05118
247 1 9.22656 0.88181 3.45593
248 1 1.3092 5.63833 2.54258
249 1 9.01072 2.51197 6.795
250 1 8.41613 7.03184 8.31314
251 1 8.54809 5.77934 4.42907
252 1 8.38009 4.06792 1.14027
253 1 7.30569 3.6998 4.40018
254 1 9.2041 6.02617 9.22032
255 1 7.4079 5.57359 0.995241
256 1 6.68365 3.27899 2.93249
257 1 6.30267 1.83655 5.7672
258 1 1.96633 0.338879 5.75984
259 1 6.62243 4.30448 0.402483
260 1 4.30891 0.312004 0.256741
261 1 6.89641 4.36787 1.55261
262 1 0.31241 8.09191 3.41188
263 1 4.70839 1.92092 8.61269
264 1 2.28928 7.80778 2.02316
265 1 4.31949 8.20105 3.38268
266 1 2.88783 0.741288 5.53476
267 1 8.04296 6.26834 7.55348
268 1 7.66108 6.55631 8.67936
269 1 3.73182 2.15135 7.35839
270 1 2.92904 1.43995 2.74871
271 1 8.48999 4.41982 7.27004
272 1 8.09926 1.58767 6.23809
273 1 0.954541 9.12045 2.69109
274 1 0.160693 8.27784 7.03673
275 1 9.09645 7.21547 2.92518
276 1 5.50948 1.43782 1.5103
277 1 5.50814 0.922439 6.98318
278 1 3.28458 5.59814 3.8486
279 1 3.96608 4.88822 4.11803
280 1 2.0375 2.80421 1.37037
281 1 1.65779 1.6593 1.8237
282 1 3.999 0.694122 1.40748
283 1 8.6281 1.06855 0.744315
284 1 0.631316 2.34125 2.22533
285 1 4.65016 4.37786 5.24648
286 1 7.68802 5.84293 0.0688964
287 1 3.67447 3.02002 7.33289
288 1 6.25247 8.53047 1.87472
289 1 0.0490765 2.09606 7.45495
290 1 1.45674 5.16965 6.92934
291 1 4.32398 8.45382 7.58946
292 1 5.25719 8.18612 6.01671
293 1 1.06934 0.160228 6.18157
294 1 7.58042 2.9843 1.60878
295 1 1.00258 1.33034 8.91282
296 1 1.81526 8.736 2.36112
297 1 0.0250061 7.93077 0.113694
298 1 8.58391 8.48317 0.017019
299 1 6.66375 7.04025 1.83236
300 1 0.943667 8.18231 2.25169
301 1 3.47545 9.40899 3.98852
302 1 2.27541 0.399318 2.4911
303 1 8.87981 2.2847 4.02273
304 1 1.42028 7.10098 6.20569
305 1 8.935 0.951042 1.60167
306 1 1.39914 8.22236 2.99793
307 1 2.46372 4.17286 1.88998
308 1 6.34162 8.91496 6.82701
309 1 2.86646 5.80091 1.81764
310 1 5.32136 8.24227 2.18791
311 1 0.780292 0.737719 2.23061
312 1 3.49083 4.80057 3.17446
313 1 7.58435 8.97341 5.41213
314 1 7.30333 1.73042 2.13013
315 1 4.4971 3.30446 0.447826
316 1 8.20215 4.92225 0.647715
317 1 5.83856 5.9254 3.73889
318 1 8.24482 2.5343 6.12077
319 1 7.72146 8.34973 8.99976
320 1 4.92854 0.0903071 5.15154
321 1 1.78245 8.18162 5.24872
322 1 2.9401 3.25725 1.16543
323 1 5.33089 9.00488 7.33529
324 1 2.12094 2.45985 3.83215
325 1 6.15977 8.56556 5.23868
326 1 1.39449 0.960247 4.06163
327 1 2.73238 3.78214 2.65298
328 1 5.68504 7.15928 6.89518
329 1 2.75599 6.65991 2.28885
330 1 4.43226 7.10796 4.10751
331 1 6.62871 0.910235 7.45422
332 1 7.86025 0.611948 6.78711
333 1 1.00942 6.53877 4.11998
334 1 1.7721 4.35154 6.60905
335 1 0.869238 5.03347 5.57379
336 1 8.06773 0.89691 8.45309
337 1 6.25359 1.03309 2.04093
338 1 6.79355 2.59071 2.14525
339 1 0.120495 8.99872 3.75336
340 1 0.173771 5.702 0.638269
341 1 6.93859 1.00157 6.24529
342 1 4.56282 7.03004 5.87264
343 1 3.44902 7.23063 7.75075
344 1 5.50299 6.55801 2.46861
345 1 0.103906 4.51711 6.09116
346 1 5.49763 9.04245 4.51754
347 1 5.5763 1.949 7.34697
348 1 6.9103 5.98214 9.08139
349 1 6.92377 6.46101 1.30759
350 1 1.5227 4.95629 9.14327
351 1 0.204281 1.98029 3.4876
352 1 3.31503 0.12259 0.137322
353 1 7.25542 8.66346 2.51505
354 1 4.00678 7.52577 7.18854
355 1 1.536 5.62175 5.82948
356 1 2.22432 6.51078 8.58929
357 1 6.00381 5.37486 0.348487
358 1 1.53798 9.09914 4.54047
359 1 5.22213 4.59531 3.57513
360 1 6.38927 8.00349 9.02505
361 1 8.92948 4.27372 4.14162
362 1 8.30869 0.120316 0.438118
363 1 1.95945 2.82893 6.68643
364 1 1.57314 7.33077 2.36143
365 1 8.06333 3.21943 4.612
366 1 9.335 4.29941 1.28955
367 1 5.88627 2.86048 4.96123
368 1 1.81945 5.91117 0.108207
369 1 5.97965 2.97083 8.98404
370 1 3.34386 1.72253 0.0599296
371 1 7.03549 0.452999 4.77444
372 1 5.82337 5.63189 8.85659
373 1 6.22606 3.39944 6.25113
374 1 6.07745 4.9521 3.42153
375 1 8.97254 1.87617 1.96314
376 1 7.9591 1.44319 1.33149
377 1 4.21906 3.86059 8.43456
378 1 0.263093 5.85435 1.77359
379 1 3.49925 3.26671 3.08129
380 1 7.67023 3.36474 2.55667
381 1 8.36196 6.2344 8.35037
382 1 7.20529 4.12824 2.64368
383 1 3.52468 9.39638 2.87027
384 1 7.74397 3.4679 7.50793
385 1 6.30434 1.49483 4.01938
386 1 2.05901 6.45065 5.67157
387 1 2.84378 1.05079 0.529821
388 1 7.64647 7.96028 2.17246
389 1 3.01898 1.37173 1.46817
390 1 7.27107 6.28336 2.98266
391 1 0.745155 0.499681 4.48924
392 1 7.86659 8.23772 5.94956
393 1 2.834 1.0051 7.11187
394 1 1.19906 7.02809 5.35953
395 1 4.0589 3.98358 3.56733
396 1 2.2606 5.49387 8.36535
397 1 5.74309 6.86036 0.988767
398 1 7.35962 2.69446 0.405894
399 1 7.31565 2.4515 2.72744
400 1 7.66661 1.50477 5.35665
401 1 0.833393 7.54506 6.7272
402 1 2.38065 8.01206 9.38381
403 1 9.38086 0.306332 2.14406
404 1 3.06429 4.79599 2.13267
405 1 1.22549 0.169031 1.43472
406 1 3.79023 5.5312 2.03339
407 1 6.16217 2.4603 0.664733
408 1 0.989293 4.60909 1.17795
409 1 2.58704 7.14031 3.00699
410 1 3.51201 2.65216 0.409051
411 1 0.936043 9.15161 9.34362
412 1 8.9378 8.8377 7.73011
413 1 8.5622 5.33886 9.13199
414 1 8.3189 6.43423 9.25743
415 1 6.43449 1.79433 8.5942
416 1 5.71521 0.841945 0.340783
417 1 3.16866 8.8443 4.79535
418 1 1.55263 4.71168 7.83478
419 1 5.05034 7.34606 2.66392
420 1 3.842 6.41827 8.04405
421 1 6.24919 6.42389 6.98798
422 1 4.28243 3.3761 5.59701
423 1 1.05111 7.67824 4.07634
424 1 2.19665 7.48026 6.91267
425 1 7.63228 1.69085 7.51216
426 1 4.43907 8.74687 5.22724
427 1 8.33934 4.96877 3.77413
428 1 4.36247 0.0810306 7.16823
429 1 5.49913 1.72194 0.690094
430 1 7.84561 1.0746 3.09621
431 1 8.23681 2.73657 0.0732132
432 1 7.10505 1.9255 6.06727
433 1 0.845173 8.56098 6.65918
434 1 2.55753 4.10476 0.77901
435 1 6.8936 6.6469 6.24828
436 1 8.59299 8.50495 3.43387
437 1 4.899 2.06749 5.5015
438 1 3.81288 7.39768 1.55368
439 1 4.23894 5.07928 6.16333
440 1 2.65187 9.02311 3.12577
441 1 7.24095 2.1613 8.33958
442 1 1.39602 5.8145 8.48872
443 1 0.974462 8.15272 4.92065
444 1 6.55633 4.50376 6.85503
445 1 8.49265 5.87787 3.48235
446 1 0.605544 5.92829 5.30319
447 1 2.72984 8.68942 6.37667
448 1 7.54697 4.27464 0.909354
449 1 3.45732 5.6676 5.74355
450 1 1.20867 1.00269 5.81173
451 1 0.190229 3.09373 2.06581
452 1 8.81867 7.99443 8.72794
453 1 3.0603 5.55216 4.9423
454 1 6.67748 1.50714 2.66536
455 1 3.49722 0.926417 6.10438
456 1 6.99236 8.32541 6.51254
457 1 7.32625 6.81155 7.18234
458 1 4.57571 5.97635 3.97663
459 1 3.82154 7.14893 8.79176
460 1 8.43213 5.42306 8.10613
461 1 0.459791 1.77931 0.581655
462 1 6.87037 4.53096 4.47213
463 1 7.1953 1.25101 8.6504
464 1 6.16165 6.04912 5.90189
465 1 1.62245 7.84466 7.57897
466 1 6.62139 5.51872 4.26014
467 1 3.16143 8.0529 1.805
468 1 2.60436 0.0199291 7.35798
469 1 6.92537 3.04116 4.86722
470 1 2.5405 5.06791 3.18824
471 1 2.35141 0.430912 9.32919
472 1 4.86228 3.6881 4.72801
473 1 2.28072 0.0793067 8.31565
474 1 8.85995 7.70839 3.67831
475 1 1.0291 8.52552 3.94843
476 1 1.04436 7.89689 5.93307
477 1 0.750427 1.11061 3.2527
478 1 1.05718 7.08239 3.37463
479 1 3.4291 3.51726 8.77974
480 1 6.57239 1.83211 7.66176
481 1 3.57549 8.71686 9.26088
482 1 8.3094 6.91127 0.81928
483 1 3.08431 7.81132 6.36707
484 1 0.810041 5.17991 7.73349
485 1 4.79483 1.24811 0.252782
486 1 1.44881 0.415629 5.01396
487 1 3.28029 8.06359 2.73545
488 1 2.43337 6.95894 6.22726
489 1 3.7742 5.57935 0.0173523
490 1 4.23754 4.32754 6.78262
491 1 7.46053 6.03318 6.64802
492 1 8.61976 4.95156 4.66832
493 1 6.35213 7.19342 8.58432
494 1 8.63367 6.62858 5.86951
495 1 3.53383 6.99703 3.59648
496 1 2.93468 0.0855779 1.08952
497 1 4.4481 2.73092 9.10595
498 1 6.05876 2.47553 6.47605
499 1 2.16033 3.29029 3.72648
500 1 4.77175 7.80463 5.13196
501 1 7.00191 7.92547 8.1556
502 1 3.43065 8.65232 3.41898
503 1 1.44659 1.05402 6.92557
504 1 6.92859 8.28981 3.99255
505 1 3.0902 2.28448 5.27852
506 1 0.343657 7.68858 5.19362
507 1 7.25749 4.30381 6.17888
508 1 0.224925 1.92103 6.44495
509 1 0.946466 6.58533 1.50069
510 1 9.21557 8.66697 5.2984
511 1 8.33713 2.88931 3.44428
512 1 4.2175 4.85873 0.521895
513 1 8.11036 5.31354 7.00541
514 1 9.26039 3.64836 8.92634
515 1 4.23269 4.12157 0.948692
516 1 6.26975 0.03178 0.0126828
517 1 8.26893 2.26006 5.0215
518 1 1.18912 3.39412 5.06854
519 1 7.22869 1.93146 3.47737
520 1 2.88125 2.19605 2.04194
521 1 4.42683 6.9657 2.13216
522 1 7.22324 9.2732 8.26367
523 1 0.790763 4.42812 6.89138
524 1 8.55345 8.80826 1.20318
525 1 7.94084 8.04104 6.80645
526 1 6.51586 4.52233 5.39557
527 1 1.63833 3.91792 4.45712
528 1 5.88551 1.56249 6.48335
529 1 4.55152 3.48684 6.90525
530 1 7.44195 0.516132 5.52361
531 1 8.72076 2.72563 1.30427
532 1 1.0136 7.83921 0.367839
533 1 8.83723 3.51691 1.69041
534 1 3.01318 2.86592 3.78807
535 1 6.96643 3.5619 2.08214
536 1 0.0103323 0.999849 0.289702
537 1 7.75253 3.9232 1.78033
538 1 5.81527 8.51851 0.439232
539 1 6.72707 7.4636 6.53389
540 1 5.03917 1.92788 6.33579
541 1 7.05383 2.06724 1.32626
542 1 7.52259 3.41888 3.4334
543 1 3.80507 3.3087 6.42371
544 1 5.92909 7.79718 8.02766
545 1 3.51362 6.89791 0.373578
546 1 5.20511 7.54012 7.6804
547 1 7.99364 1.12384 2.20555
548 1 6.99878 6.31611 5.28849
549 1 3.07017 0.642988 3.35023
550 1 8.94233 1.92411 5.76807
551 1 3.38626 8.63723 8.15982
552 1 2.19303 4.45534 8.43897
553 1 2.07718 9.24137 1.40129
554 1 5.57362 4.72292 5.08333
555 1 3.4226 2.17349 1.18314
556 1 1.66471 5.92332 7.44589
557 1 6.91844 6.44756 3.95349
558 1 8.03876 7.4942 3.84496
559 1 2.09817 9.27574 6.54796
560 1 1.79601 4.59653 5.37593
561 1 3.43564 9.12504 7.43681
562 1 9.27819 3.91796 7.79633
563 1 6.40158 5.13224 1.93064
564 1 1.32635 6.61166 9.02762
565 1 8.01986 0.980528 4.70006
566 1 1.72953 6.45233 2.20322
567 1 6.08502 5.81034 2.76336
568 1 0.932166 2.47664 6.72574
569 1 1.90209 8.47546 8.44953
570 1 8.39175 3.39382 5.71241
571 1 6.12966 2.03654 1.7747
572 1 5.49346 2.59626 1.30548
573 1 1.10131 2.96038 1.46914
574 1 8.21576 5.78732 5.49707
575 1 8.65238 7.59659 6.02326
576 1 7.28669 5.01226 0.259285
577 1 2.39625 8.89228 5.61659
578 1 2.3215 5.2414 5.75244
579 1 6.21222 0.172086 7.48563
580 1 7.67343 4.86993 2.08715
581 1 0.958583 4.38069 3.76585
582 1 0.819184 7.49422 1.60314
583 1 1.96438 0.46349 0.773602
584 1 3.14896 0.898588 9.03345
585 1 4.32956 7.87266 0.0676404
586 1 5.07562 8.35253 8.20302
587 1 6.4739 9.22059 1.09445
588 1 7.80296 8.59683 0.643574
589 1 7.65127 7.37975 6.28419
590 1 1.88059 2.13571 4.99848
591 1 8.86922 5.78911 7.28394
592 1 3.93259 0.799818 5.1768
593 1 4.77081 6.81115 7.03011
594 1 7.65955 7.5227 7.55823
595 1 1.72872 3.54628 6.19286
596 1 4.31973 6.88365 3.20925
597 1 6.83309 5.23315 6.1587
598 1 0.692035 1.48794 4.18914
599 1 4.26106 4.69959 2.17943
600 1 3.38112 0.0848642 8.5589
601 1 2.12297 1.65936 1.06109
602 1 6.11035 3.01647 7.39806
603 1 5.03487 6.43798 3.22321
604 1 9.35631 2.61017 0.174387
605 1 8.40135 6.1542 2.19599
606 1 1.88992 8.62416 0.630789
607 1 8.35354 6.26387 6.61058
608 1 2.52086 3.36321 0.307888
609 1 6.68593 5.57235 3.42185
610 1 2.4195 8.22363 3.19131
611 1 0.560798 9.13965 1.85968
612 1 8.35149 7.96315 1.60397
613 1 8.90742 5.66821 6.11421
614 1 2.1507 0.921292 6.47332
615 1 3.22055 1.43464 4.97274
616 1 2.06891 8.44965 7.02909
617 1 1.11472 3.0377 5.90937
618 1 4.53255 9.0724 2.89893
619 1 4.656 2.76004 1.39472
620 1 8.5666 8.05232 7.55028
621 1 4.69022 1.03263 6.45432
622 1 8.26615 8.48564 4.94426
623 1 1.95097 4.18046 3.49394
624 1 2.93885 4.91307 8.0202
625 1 4.65823 6.12194 2.48213
626 1 0.629469 6.65869 2.37496
627 1 0.635623 0.42592 5.40703
628 1 7.49379 5.41625 8.69246
629 1 7.35613 3.68682 8.41385
630 1 7.0128 5.34958 7.11854
631 1 3.78598 4.18031 4.59456
632 1 2.92526 8.62882 0.393905
633 1 3.96184 1.43531 8.18649
634 1 5.24744 7.63185 0.552373
635 1 6.27307 9.3211 4.59402
636 1 1.3113 6.93637 8.19433
637 1 5.1271 8.98956 3.6404
638 1 8.02995 8.03622 8.25336
639 1 4.97611 4.6806 4.37903
640 1 0.446983 4.92994 1.81826
641 1 6.67783 3.66474 5.50928
642 1 3.72433 1.5603 2.27484
643 1 2.57469 6.32684 4.81255
644 1 3.805 3.03294 1.27251
645 1 2.38649 9.19059 4.76847
646 1 3.55608 8.10432 0.917703
647 1 0.0590648 6.06003 4.15348
648 1 0.0319553 2.41961 8.41601
649 1 1.19623 1.92158 2.84776
650 1 5.34539 6.12511 7.14287
651 1 4.73982 2.30659 0.689789
652 1 5.3671 8.158 3.15369
653 1 2.81636 8.59074 4.03173
654 1 6.36369 0.551748 3.96835
655 1 7.16609 6.02518 8.12715
656 1 6.54905 6.85734 2.71256
657 1 4.65062 0.666807 7.9445
658 1 0.722323 5.5262 3.48779
659 1 7.07729 0.690818 2.67398
660 1 4.4234 7.89543 2.43216
661 1 0.153924 3.65468 5.58814
662 1 5.56229 5.67502 1.99092
663 1 2.15522 1.87289 6.80029
664 1 4.04047 2.45409 5.47239
665 1 8.78026 5.41962 2.6567
666 1 0.0305756 3.94785 6.85152
667 1 9.08425 7.00896 9.03293
668 1 8.02846 4.59787 8.19527
669 1 0.0444335 0.833979 5.76311
670 1 1.43981 6.93563 7.28326
671 1 3.67177 6.47738 6.19518
672 1 2.16799 1.15181 8.46954
673 1 1.83562 7.41165 3.46318
674 1 8.64034 9.29386 2.37084
675 1 9.20068 7.38294 7.79222
676 1 8.12275 9.01741 8.48514
677 1 9.1465 5.12594 1.2264
678 1 4.8233 8.95855 9.18173
679 1 2.53112 3.7206 6.84805
680 1 8.0892 4.04051 4.47898
681 1 3.94911 2.9256 3.9374
682 1 1.08242 3.1394 9.13976
683 1 6.41494 0.377353 8.28846
684 1 2.86996 0.338436 6.5199
685 1 1.5785 6.27724 4.97031
686 1 2.87558 3.92797 3.53156
687 1 7.8113 2.93911 8.62592
688 1 4.82661 4.01166 6.16117
689 1 2.36429 7.18741 7.8242
690 1 5.07282 6.35143 1.65894
691 1 8.4351 0.463497 6.04235
692 1 8.33838 6.61974 2.98922
693 1 8.11375 8.47707 2.6883
694 1 7.51923 9.32653 1.09078
695 1 3.59905 7.30034 4.9255
696 1 2.67759 7.09498 5.26047
697 1 1.83906 2.93965 4.6141
698 1 7.24291 8.28165 1.40657
699 1 7.97182 3.23421 0.869537
700 1 5.40771 6.57933 6.16156
701 1 6.72775 7.56413 1.0779
702 1 2.89839 7.52705 8.58513
703 1 4.37802 5.02745 3.25296
704 1 4.80396 5.36293 5.29819
705 1 2.82195 5.36616 0.258585
706 1 4.17885 6.30871 1.47458
707 1 6.46649 4.98339 7.62981
708 1 8.12953 2.14396 2.7908
709 1 4.44449 2.57523 6.34103
710 1 1.67892 4.03847 1.27884
711 1 9.30391 0.219884 4.80281
712 1 5.21255 0.59873 2.84493
713 1 8.76202 7.02116 2.05638
714 1 9.08913 5.06072 5.49279
715 1 5.2483 4.84555 5.96845
716 1 2.43853 5.55279 4.12015
717 1 1.22616 3.57195 3.68883
718 1 6.63847 3.83715 3.80576
719 1 6.3042 3.52838 0.246134
720 1 7.20867 7.48674 9.14373
721 1 7.09844 2.91867 7.72982
722 1 6.82573 8.80101 8.93328
723 1 7.20413 0.97642 1.74366
724 1 4.41967 1.64642 4.67166
725 1 9.32198 4.21475 2.18166
726 1 1.19609 1.00529 8.01154
727 1 4.26934 0.227804 5.74697
728 1 0.990675 4.60785 4.76358
729 1 0.20797 4.42619 5.20381
730 1 4.96691 5.74895 6.25649
731 1 1.91548 4.97457 0.72902
732 1 4.64051 2.33454 7.60019
733 1 8.51763 9.0392 5.98287
734 1 9.2153 4.31684 3.01008
735 1 5.42859 2.83653 5.8406
736 1 2.82877 6.40808 3.5393
737 1 8.80837 8.82089 4.27396
738 1 4.62644 1.47811 7.30251
739 1 6.08352 8.72166 3.83239
740 1 3.83816 1.07094 0.64063
741 1 6.99619 9.33661 1.89341
742 1 4.40652 8.71566 6.14332
743 1 4.06892 1.26934 9.09622
744 1 2.00739 5.38812 4.85257
745 1 4.62274 4.13345 2.71575
746 1 5.17969 4.8774 8.67781
747 1 7.7428 6.59065 3.69597
748 1 8.99376 7.95985 2.46642
749 1 1.09538 1.43058 4.94766
750 1 5.37616 0.399625 3.69511
751 1 5.66556 0.510101 5.01759
752 1 8.69295 6.83268 3.90331
753 1 7.03953 7.30681 5.44425
754 1 2.96273 8.44278 7.251
755 1 1.74006 5.3786 3.404
756 1 8.78188 1.31076 4.35672
757 1 7.96782 6.31665 1.41748
758 1 2.33261 4.52149 9.28934
759 1 3.19182 0.729425 2.20682
760 1 5.84952 5.28417 6.87576
761 1 1.71446 3.35075 0.739237
762 1 8.73212 4.39798 8.64779
763 1 6.82588 7.67036 2.57033
764 1 5.67625 1.55673 3.38467
765 1 4.78101 0.801085 1.98447
766 1 7.53019 5.43781 3.62015
767 1 3.76221 4.27731 6.00039
768 1 8.71381 4.17501 6.19004
769 1 7.60376 6.74152 0.335554
770 1 4.36517 3.6263 1.63439
771 1 3.80746 6.58538 7.15218
772 1 9.14651 8.68734 1.7902
773 1 9.25416 6.49299 7.87158
774 1 2.73108 8.71554 8.83118
775 1 5.69122 1.89464 5.08298
776 1 5.87847 3.54196 1.28338
777 1 1.91087 5.07885 1.8364
778 1 4.39506 7.56396 8.11939
779 1 2.90604 7.2741 1.56141
780 1 7.9917 4.52986 2.89773
781 1 8.6578 7.67804 4.61596
782 1 0.68114 0.982401 6.44272
783 1 5.51823 3.58641 6.86049
784 1 5.78904 1.40933 9.01318
785 1 0.10266 8.97826 8.74217
786 1 4.2464 1.74986 1.27741
787 1 8.3023 3.82831 3.60592
788 1 7.612 2.80191 5.33637
789 1 0.151685 1.16447 4.88893
790 1 6.23318 6.10863 7.93255
791 1 0.949232 3.92504 0.618505
792 1 3.38624 6.60871 1.24811
793 1 9.23497 7.29915 6.88156
794 1 1.46768 1.06679 1.06794
795 1 2.72805 2.7123 2.8681
796 1 4.80004 2.89095 2.25313
797 1 0.209343 0.953269 8.05105
798 1 6.56258 4.90815 9.12005
799 1 1.93576 6.12199 6.50504
800 1 7.77773 0.779697 0.0440807
801 2 2.17706 6.79878 0.171135
802 2 2.9246 6.35802 9.37975
803 2 0.562165 5.53276 6.36967
804 2 0.59508 3.50673 8.37776
805 2 8.94216 1.52071 8.25511
806 2 8.63119 1.65252 7.23346
807 2 0.809701 8.27797 7.65543
808 2 2.6389 7.04761 4.20594
809 2 2.81999 8.75323 2.33552
810 2 4.1725 0.5169 8.62256
811 2 2.60833 2.47959 0.663284
812 2 4.70073 5.39305 1.66882
813 2 3.6234 6.35659 2.39288
814 2 6.87974 3.86515 7.53547
815 2 8.35032 2.90746 2.2523
816 2 4.02607 2.80668 8.13026
817 2 3.84042 3.32956 2.24998
818 2 7.62198 7.10252 4.54803
819 2 1.07309 4.84087 2.95508
820 2 0.278313 6.34305 3.3236
821 2 1.04685 6.37477 6.03935
822 2 5.79205 2.75592 3.92267
823 2 5.56617 2.13663 2.68663
824 2 5.19864 3.94395 0.85207
825 2 3.71638 7.34094 6.16191
826 2 3.21947 5.51279 2.67831
827 2 4.77111 1.95242 1.97908
828 2 1.07896 6.19079 6.83642
829 2 2.62243 7.62422 0.730172
830 2 4.45804 1.88308 2.90295
831 2 6.4449 0.485577 5.65115
832 2 6.84761 1.12285 3.42657
833 2 2.33486 1.6214 9.24101
834 2 5.50204 3.12124 0.489112
835 2 1.51999 2.14739 0.20072
836 2 6.33091 2.40566 3.16124
837 2 6.64965 8.07074 4.77608
838 2 4.45849 7.76731 6.45022
839 2 3.82866 8.18747 5.65826
840 2 3.22837 5.04107 6.49808
841 2 0.317051 5.16121 2.76895
842 2 0.119267 4.0171 0.404253
843 2 2.86669 4.95346 1.22091
844 2 1.05451 0.082841 8.40267
845 2 9.26935 5.46256 3.50986
846 2 7.53202 3.23828 6.15691
847 2 7.05957 0.0411392 7.26361
848 2 3.5188 8.86018 1.40738
849 2 5.4916 3.8159 4.15469
850 2 7.98207 2.41563 7.18627
851 2 0.946604 8.98392 0.762414
852 2 4.88311 0.871552 0.971778
853 2 8.66456 9.21852 6.94462
854 2 4.59165 1.14154 3.62872
855 2 7.44284 7.93799 4.88528
856 2 9.23962 2.53343 2.77131
857 2 0.744197 4.91078 0.206853
858 2 4.88556 9.18504 1.94483
859 2 4.98839 1.18364 5.13884
860 2 0.911921 8.52801 8.53312
861 2 6.72323 7.09536 4.60554
862 2 4.73301 3.43694 3.76773
863 2 0.714944 1.65209 1.6974
864 2 0.717595 4.11993 2.61296
865 2 5.48885 0.903833 5.86141
866 2 3.01179 6.92409 6.906
867 2 5.16273 6.65492 0.237912
868 2 1.26511 2.71632 8.27821
869 2 8.49214 7.03963 7.27388
870 2 0.321004 2.50666 1.17264
871 2 5.29306 2.65826 8.06398
872 2 5.46049 9.01359 2.70788
873 2 8.34346 5.33204 1.47361
874 2 4.58141 6.6208 4.93823
875 2 7.1982 8.39916 7.41358
876 2 0.370352 5.98208 7.37116
877 2 1.94188 0.651765 7.66496
878 2 0.511255 8.91751 4.63477
879 2 0.489913 8.17232 1.01929
880 2 4.92828 0.0722111 6.39198
881 2 5.25411 2.59218 6.84521
882 2 5.27368 6.03896 8.20738
883 2 5.13845 3.96674 8.24037
884 2 6.00494 3.08167 2.19174
885 2 4.3217 0.843427 2.80314
886 2 3.00832 0.929857 8.01607
887 2 8.5925 5.76255 0.604521
888 2 6.62739 4.06314 8.88107
889 2 4.65953 4.24705 7.58806
890 2 1.01702 2.45898 4.28595
891 2 9.41259 0.0961171 0.156996
892 2 7.51959 1.99055 9.17244
893 2 4.85957 7.95449 4.11231
894 2 0.940957 5.75135 9.27156
895 2 6.84773 2.70266 9.00144
896 2 0.399345 6.31102 8.50921
897 2 8.74243 0.678515 9.28868
898 2 7.63849 7.35428 1.29557
899 2 6.21611 3.65696 4.69194
900 2 0.314235 1.48294 2.52964
901 2 4.12162 8.33114 4.39885
902 2 7.3685 3.71472 0.16532
903 2 1.41058 3.89218 8.40667
904 2 2.9478 0.591898 4.59014
905 2 0.106364 3.76744 3.75619
906 2 6.00217 4.28978 6.11748
907 2 4.58066 6.01147 7.62071
908 2 2.54923 6.29653 0.861146
909 2 9.35072 8.76606 2.80106
910 2 8.39426 3.68312 8.08034
911 2 6.25819 0.379771 6.56454
912 2 4.75005 0.566435 4.39532
913 2 7.37712 9.2465 3.3698
914 2 2.92481 3.49088 6.0981
915 2 6.32753 5.4695 5.29823
916 2 0.0186453 6.377 6.58448
917 2 0.10921 0.115572 7.67683
918 2 2.96985 3.13784 2.02435
919 2 7.52356 8.06392 3.22116
920 2 0.0806844 6.82499 1.60692
921 2 5.17467 7.18419 3.62288
922 2 9.30913 2.78521 5.97922
923 2 1.63736 3.79712 7.33957
924 2 2.9885 2.15743 6.78605
925 2 5.86484 4.12929 7.4475
926 2 8.78834 1.61708 3.17464
927 2 1.32452 8.65367 1.53134
928 2 0.555831 2.81898 4.91045
929 2 3.73786 4.83779 1.47585
930 2 1.301 5.63631 4.30133
931 2 7.8611 7.70661 0.531313
932 2 0.901648 6.36078 0.586704
933 2 9.05801 5.03826 6.79905
934 2 3.78246 4.82667 5.18215
935 2 7.05352 4.6353 8.20913
936 2 3.8322 2.45437 2.00948
937 2 7.22392 1.31656 4.36269
938 2 6.93677 1.97915 5.20884
939 2 9.1464 0.48173 6.90489
940 2 4.90384 5.39725 9.39753
941 2 2.87121 6.47491 7.91453
942 2 7.36362 5.75124 1.91931
943 2 1.80642 8.9804 3.28204
944 2 0.19165 7.97507 6.16773
945 2 6.19011 8.1191 6.1147
946 2 0.17563 2.82759 3.61663
947 2 8.15369 1.86301 8.535
948 2 3.4968 3.96295 1.49945
949 2 2.13346 1.2971 3.35637
950 2 1.84682 8.07016 4.13128
951 2 9.24003 6.34197 2.64954
952 2 0.401939 7.07499 5.96908
953 2 3.43774 5.64346 1.0457
954 2 7.83881 0.523069 3.84466
955 2 7.71833 2.11805 4.28316
956 2 6.17461 6.22672 4.82474
957 2 3.71241 1.25591 3.29562
958 2 3.38143 7.84266 4.18042
959 2 1.8075 5.92977 1.11845
960 2 5.53928 6.71912 8.68948
961 2 6.31861 3.53061 8.20924
962 2 9.34171 5.00086 9.00647
963 2 5.5724 3.87291 5.3442
964 2 6.06027 0.0418201 2.13203
965 2 4.61746 9.20877 1.10271
966 2 9.24981 2.09181 4.78717
967 2 7.82502 9.03562 6.70048
968 2 6.2134 7.1907 5.76551
969 2 3.0055 4.67998 3.9876
970 2 5.53228 3.12868 3.04041
971 2 5.75932 3.9077 8.99416
972 2 7.22713 9.13756 0.222663
973 2 6.57559 5.43014 1.09761
974 2 3.64491 6.49034 4.40152
975 2 2.10936 4.60767 2.54068
976 2 7.7094 6.53157 5.74222
977 2 6.87687 4.9675 2.7312
978 2 1.45562 8.44266 9.29814
979 2 0.753918 3.74184 6.41575
980 2 8.35462 6.6335 4.84992
981 2 3.44408 9.31306 5.75741
982 2 9.11517 6.98128 5.23868
983 2 2.24185 0.919621 1.76733
984 2 1.49181 7.10914 0.771193
985 2 0.957863 4.86966 8.48352
986 2 6.10329 0.696611 2.9776
987 2 2.40123 3.6476 5.36083
988 2 2.90122 2.75292 9.00255
989 2 0.730238 4.20014 7.74746
990 2 7.07292 7.00675 8.07502
991 2 1.74883 7.95928 1.1217
992 2 7.88005 8.32232 3.98533
993 2 1.47417 1.85135 7.45912
994 2 2.38779 5.28457 6.7214
995 2 2.56693 4.56404 4.89073
996 2 6.93809 0.694206 0.787735
997 2 9.03143 3.37048 3.00397
998 2 6.24942 1.12312 4.80611
999 2 5.91458 7.37304 2.06752