#bin. KALJ data file T=0.5

1000 atoms
2 atom types

0 9.4 xlo xhi
0 9.4 ylo yhi
0 9.4 zlo zhi

Masses

1 1.0
2 1.0

Atoms

1 1 1.98922 0.745481 5.93046
2 1 5.66528 5.64035 5.60081
3 1 2.13093 0.825208 4.34865
4 1 6.70462 6.18141 8.95563
5 1 7.11043 8.91477 1.18999
6 1 0.954378 5.22265 4.14171
7 1 1.47859 5.12429 8.19336
8 1 2.82443 4.55722 4.90176
9 1 2.55777 3.96876 6.32105
10 1 2.67119 1.93832 9.34416
11 1 6.98562 8.21287 9.02465
12 1 6.28444 8.36473 6.24237
13 1 4.09227 6.71576 3.68098
14 1 4.91193 2.0208 7.14059
15 1 4.43128 4.42233 5.9319
16 1 3.00817 5.19379 8.47309
17 1 2.98871 7.87997 6.66236
18 1 7.68817 6.00497 0.592466
19 1 7.79107 0.985616 6.48779
20 1 7.43197 2.14485 7.307
21 1 7.83227 6.22662 3.32827
22 1 9.04504 2.76762 7.84434
23 1 4.6478 2.18175 0.899797
24 1 6.01914 6.68029 8.35592
25 1 4.79205 5.68396 3.69823
26 1 3.29349 3.79166 6.76515
27 1 7.12891 1.18786 0.955533
28 1 7.023 6.8935 1.38401
29 1 4.66761 0.162672 9.13347
30 1 6.03983 4.24841 0.418549
31 1 5.65309 1.16533 6.24314
32 1 7.73554 4.42289 5.8141
33 1 1.5096 7.73193 6.42825
34 1 3.25749 1.35236 0.313504
35 1 4.6049 2.9778 2.10217
36 1 6.24802 9.33728 2.56484
37 1 7.83235 3.82948 7.12692
38 1 4.22659 3.78642 4.3619
39 1 2.14991 7.95075 4.18452
40 1 2.94251 5.17378 4.11707
41 1 5.71941 3.01219 4.24753
42 1 8.68385 6.26518 0.936343
43 1 2.16324 3.15586 1.50743
44 1 1.41764 5.95807 4.26685
45 1 4.21923 4.13429 3.54702
46 1 5.11729 7.62528 0.778285
47 1 5.27297 4.66919 7.00244
48 1 8.34069 8.18674 7.59514
49 1 8.88802 5.07643 2.42262
50 1 9.08527 4.92705 5.95026
51 1 7.8606 5.93054 1.63693
52 1 2.16927 5.27433 6.33517
53 1 1.1984 1.50979 5.80811
54 1 6.53479 8.98686 8.66589
55 1 6.98748 8.6979 5.57961
56 1 8.14531 4.84784 2.85244
57 1 6.86397 1.42683 9.34637
58 1 2.74102 1.08729 7.47426
59 1 4.94255 3.075 5.86794
60 1 7.89744 4.26795 8.33641
61 1 6.41995 2.91356 6.50609
62 1 0.175018 4.41545 2.2619
63 1 7.23006 4.14192 7.73998
64 1 4.98377 8.01324 9.13535
65 1 2.16844 3.07369 6.73624
66 1 8.52558 0.528285 6.81933
67 1 0.386087 0.652629 1.87243
68 1 2.43584 6.50939 2.95079
69 1 2.75862 7.62292 5.51899
70 1 6.47947 5.09112 9.03324
71 1 3.85747 6.30717 2.61291
72 1 7.19122 2.66435 0.819836
73 1 1.15675 4.02165 4.66284
74 1 6.89306 0.442894 2.84347
75 1 7.87466 2.98049 9.26302
76 1 4.38879 3.30357 2.97002
77 1 2.29558 8.46729 5.12343
78 1 4.13313 1.46767 9.34459
79 1 0.24521 2.51817 3.74762
80 1 4.2346 0.791757 4.75811
81 1 4.69052 4.76095 0.834814
82 1 1.37977 4.66949 7.37441
83 1 7.12454 3.41996 6.57058
84 1 7.43254 4.93408 8.80634
85 1 8.79787 5.39573 0.0532764
86 1 4.7913 7.08891 7.06628
87 1 4.39907 6.8744 4.56318
88 1 0.249882 2.27996 2.88819
89 1 8.15972 3.00934 5.61527
90 1 6.7274 0.379562 0.926542
91 1 4.91685 5.15715 5.26168
92 1 2.09569 4.97079 0.557286
93 1 8.00398 6.38937 7.0957
94 1 2.78326 1.24757 2.00815
95 1 5.73117 2.72975 6.03058
96 1 0.368762 3.28765 5.05868
97 1 4.67815 1.79281 1.74145
98 1 4.68942 9.25328 2.74464
99 1 3.08206 1.58955 6.90998
100 1 1.86903 2.82092 4.96247
101 1 8.84337 6.57997 6.64791
102 1 7.05335 4.76022 4.82322
103 1 1.41602 4.06033 3.88874
104 1 5.96408 2.50947 2.36955
105 1 4.28394 4.95733 2.82145
106 1 4.13997 3.46466 6.06781
107 1 7.2021 3.80522 9.01682
108 1 4.80811 5.01111 4.26469
109 1 1.62368 8.92165 1.19311
110 1 9.23296 1.59888 3.35481
111 1 0.44897 3.47021 1.1486
112 1 0.654806 9.28246 8.19903
113 1 8.71064 2.61407 8.69465
114 1 5.82291 5.32315 6.53341
115 1 3.61401 3.41651 3.66125
116 1 5.24255 0.80579 1.59699
117 1 0.158704 4.96039 0.703782
118 1 5.97023 7.81757 0.654897
119 1 7.16804 5.42317 6.30268
120 1 3.98169 2.51459 5.51405
121 1 7.55176 0.266127 8.01501
122 1 3.53074 4.63141 2.35359
123 1 6.38869 7.2226 6.42923
124 1 7.97933 4.78123 7.49176
125 1 6.15851 6.88459 0.920437
126 1 3.69662 2.3312 4.68366
127 1 6.75105 6.42151 3.18395
128 1 3.29559 1.54584 2.7805
129 1 8.07855 0.09629 6.11638
130 1 1.89349 6.31634 2.04081
131 1 0.406312 6.11169 4.82511
132 1 9.12049 0.642977 9.33562
133 1 6.15618 8.3237 3.15381
134 1 5.23311 3.68339 9.26041
135 1 3.5749 3.84492 2.91728
136 1 7.22442 0.905575 4.19489
137 1 4.02234 3.00681 6.83745
138 1 7.75936 2.64137 4.05532
139 1 0.0520872 6.72715 0.340996
140 1 6.64617 8.3251 3.90531
141 1 0.744642 4.56746 8.05995
142 1 1.46404 9.31819 8.62645
143 1 2.65042 5.87068 1.09786
144 1 5.09034 1.41742 0.7506
145 1 6.01394 6.54201 5.76052
146 1 1.67383 1.77902 0.0427922
147 1 8.01337 6.19976 5.28282
148 1 1.29683 4.39363 9.04092
149 1 5.20509 6.46779 7.56006
150 1 5.76067 1.25708 4.4817
151 1 9.31368 2.41819 0.771943
152 1 3.32083 2.21819 6.09298
153 1 9.16455 0.320676 8.15437
154 1 5.95685 2.6228 8.30042
155 1 1.83237 2.43805 1.0882
156 1 3.41805 4.18169 5.92323
157 1 3.1708 7.07736 6.97212
158 1 7.209 7.7286 5.00743
159 1 6.97341 3.67059 4.54593
160 1 0.758337 6.57978 3.92222
161 1 0.851398 9.35677 5.09308
162 1 8.29226 3.62992 1.71403
163 1 2.33336 6.01259 4.04402
164 1 0.255311 0.366106 3.93492
165 1 7.20013 0.30149 6.11892
166 1 2.44535 2.98353 7.74922
167 1 0.075852 3.86555 7.74776
168 1 7.30851 6.21806 2.32791
169 1 8.12399 7.36186 7.92483
170 1 2.70791 6.76777 4.33011
171 1 4.16339 6.97657 5.41471
172 1 4.85867 0.533202 7.59507
173 1 6.20034 5.13646 7.40668
174 1 1.76204 0.178091 2.65534
175 1 5.80255 7.97823 4.1128
176 1 7.1791 5.28134 0.257214
177 1 3.21022 8.15419 7.45332
178 1 1.85053 7.44963 1.71852
179 1 2.67064 9.01513 7.37293
180 1 5.40342 7.10289 0.132668
181 1 2.99304 3.32108 1.22261
182 1 1.32283 3.58905 0.148559
183 1 9.27518 3.25808 4.25306
184 1 6.40701 1.94217 5.9042
185 1 8.39986 0.381149 1.52278
186 1 5.31016 8.29738 2.27262
187 1 3.95491 3.05583 0.580614
188 1 4.75181 2.11222 8.25691
189 1 6.01199 7.348 4.7264
190 1 5.37869 8.83513 7.43528
191 1 9.41196 9.24721 4.65667
192 1 2.99703 5.56082 6.09284
193 1 4.29755 6.02592 7.63172
194 1 6.71114 3.17712 8.53794
195 1 0.32811 7.01196 7.07289
196 1 6.80899 3.89689 5.97632
197 1 8.90817 7.205 0.776233
198 1 2.22291 1.32829 3.66107
199 1 7.58889 6.69125 8.056
200 1 0.740805 0.156383 6.43235
201 1 8.4646 0.55078 2.80645
202 1 5.01349 5.57153 1.38781
203 1 0.661806 0.634273 0.260395
204 1 5.2099 2.13738 5.5265
205 1 4.74712 2.68275 4.65891
206 1 9.14192 2.45796 5.92102
207 1 2.6084 7.71214 9.15179
208 1 9.28644 8.06293 6.9639
209 1 5.38167 2.16191 9.00573
210 1 5.61328 5.98155 3.81817
211 1 4.40988 4.06521 2.19558
212 1 2.57487 0.132588 5.48175
213 1 0.972168 1.83021 8.45191
214 1 4.38504 7.23009 1.24381
215 1 1.18493 4.63132 0.571365
216 1 8.91417 3.42287 0.840159
217 1 1.71583 9.09634 3.48947
218 1 2.88821 8.21954 8.33654
219 1 4.79213 0.53556 3.3264
220 1 6.19484 4.23854 7.56225
221 1 1.61303 5.08386 2.18155
222 1 3.1705 6.8933 2.69088
223 1 1.91036 5.76681 0.307808
224 1 3.80158 4.39795 4.92811
225 1 7.70825 0.248052 2.34038
226 1 9.02228 7.53687 3.69589
227 1 2.69761 4.56361 2.05093
228 1 1.28901 3.05133 6.68234
229 1 6.89235 0.482125 8.75757
230 1 4.00348 7.89487 7.74929
231 1 0.91229 9.06579 4.26927
232 1 8.28126 7.8695 4.8969
233 1 7.42333 5.03373 1.26052
234 1 2.02018 1.95528 5.44448
235 1 0.911052 1.43499 3.04504
236 1 9.39051 1.4629 1.60646
237 1 3.44822 0.705071 2.49615
238 1 7.39318 8.84272 2.93935
239 1 4.60162 9.39475 8.27648
240 1 4.06422 4.21786 6.95005
241 1 3.89739 0.438283 7.82767
242 1 3.6873 6.0318 4.10224
243 1 1.8568 3.93593 2.03932
244 1 2.7631 3.52076 8.41755
245 1 6.05444 2.44501 0.231513
246 1 7.04666 7.99487 3.06237
247 1 1.09661 6.93372 2.01839
248 1 4.70123 8.78743 0.181643
249 1 9.09653 1.01052 7.41308
250 1 5.62121 8.14961 1.46473
251 1 6.42095 1.92277 4.93449
252 1 1.79036 5.13337 9.01096
253 1 4.31853 7.84488 3.65669
254 1 0.173133 2.41668 1.81916
255 1 3.12553 8.60049 5.61897
256 1 6.00169 5.9386 7.78923
257 1 7.14836 1.52451 8.10478
258 1 6.46871 7.8559 1.36854
259 1 7.62897 1.6359 5.34664
260 1 5.3771 9.08233 4.91552
261 1 4.22487 3.02738 4.07492
262 1 9.37753 6.614 3.18676
263 1 1.80828 8.90724 4.55226
264 1 5.86372 0.135251 8.3308
265 1 1.04807 6.1498 5.45875
266 1 2.37864 8.14723 1.42382
267 1 1.73568 4.41464 2.87049
268 1 5.17161 6.72688 3.93752
269 1 0.471139 7.74041 4.26791
270 1 3.54308 6.91868 6.02331
271 1 3.09825 8.83315 9.36987
272 1 7.66428 8.92554 9.351
273 1 0.411931 8.6728 7.32674
274 1 8.74363 1.04282 5.79776
275 1 6.31062 5.91117 6.16909
276 1 1.59967 2.8074 7.77471
277 1 3.67288 5.46167 6.67256
278 1 2.29573 2.22496 1.82693
279 1 7.32703 9.34096 4.03438
280 1 5.90648 8.89493 4.06122
281 1 1.69327 0.522316 0.667404
282 1 8.18181 6.15785 4.19577
283 1 1.24811 6.81815 8.33513
284 1 4.78663 3.73861 7.35759
285 1 9.2876 4.1618 6.41222
286 1 8.00782 7.03102 0.452909
287 1 3.17422 4.36867 0.29502
288 1 2.13314 8.31741 7.6825
289 1 5.74752 5.96887 0.999319
290 1 6.85775 5.48564 1.76736
291 1 3.44825 6.66868 4.86141
292 1 2.06163 8.16751 2.38329
293 1 5.29397 8.80034 8.76604
294 1 3.83906 5.27511 7.95563
295 1 5.1009 2.93711 8.64944
296 1 1.51968 3.81531 1.03334
297 1 6.43 4.51881 4.24585
298 1 5.9567 6.37057 4.76278
299 1 7.14532 5.00455 7.23909
300 1 5.41568 0.0959215 5.78777
301 1 1.55939 1.33129 2.34441
302 1 3.85872 8.64102 3.9448
303 1 4.30448 6.58074 8.3589
304 1 2.79768 2.5085 2.68578
305 1 1.12597 8.37723 7.76912
306 1 1.38682 7.10571 5.7838
307 1 0.526334 1.6336 0.983228
308 1 1.32897 2.54945 5.88746
309 1 0.626548 0.659906 7.36947
310 1 2.82442 2.38391 5.03225
311 1 9.3426 0.0164691 7.05664
312 1 3.13048 6.6729 3.54857
313 1 3.60524 5.04799 5.53351
314 1 4.24231 8.86057 6.07025
315 1 7.52951 7.85706 1.8729
316 1 8.10055 5.15682 6.29531
317 1 0.427804 4.13045 0.393232
318 1 1.14556 5.77955 2.47017
319 1 2.39901 2.80436 5.95868
320 1 3.59845 9.33512 5.30374
321 1 0.451862 7.16932 0.999525
322 1 2.74703 4.76938 1.01569
323 1 7.46806 7.85808 7.28394
324 1 4.34973 0.483679 5.62118
325 1 8.8954 8.81231 5.35797
326 1 0.679092 7.54439 6.25037
327 1 0.777921 4.45762 6.35442
328 1 4.76982 8.05326 6.95696
329 1 9.31265 9.2269 0.38047
330 1 7.1387 4.66867 3.68202
331 1 3.59233 6.47882 9.1275
332 1 8.41891 3.23943 7.4474
333 1 5.64793 2.0712 1.22783
334 1 1.07459 0.971202 6.62094
335 1 7.8995 6.36928 6.08846
336 1 7.82383 3.22734 8.29841
337 1 9.21029 5.58723 8.15618
338 1 0.934008 7.83987 2.38974
339 1 7.6037 0.364297 1.03033
340 1 2.28288 7.15684 6.33194
341 1 5.35171 6.04142 6.31659
342 1 8.47138 7.5346 1.69802
343 1 4.53787 2.30334 6.27652
344 1 5.79835 2.10843 6.76008
345 1 3.08953 8.6772 1.72066
346 1 0.235064 8.312 8.92511
347 1 5.74167 8.1373 5.12482
348 1 5.94132 6.43765 6.85864
349 1 8.64142 4.0531 7.58097
350 1 3.17198 3.66359 4.73739
351 1 5.25099 7.59881 3.40656
352 1 0.108399 0.536 5.55995
353 1 9.18758 6.1448 7.31954
354 1 8.33419 1.30114 0.0829557
355 1 6.65048 0.689448 3.65567
356 1 6.69941 7.77729 8.04603
357 1 3.6871 1.49306 7.76183
358 1 6.05647 3.41107 7.20044
359 1 8.67389 4.68026 4.09639
360 1 7.58153 6.93482 3.85673
361 1 6.84331 3.06289 3.51095
362 1 1.1852 3.25364 5.37479
363 1 5.18247 0.602847 5.01913
364 1 6.29371 2.3846 7.45677
365 1 0.734019 7.53827 8.60903
366 1 7.71213 4.05581 2.76967
367 1 8.64348 5.56271 3.49793
368 1 8.39998 3.23258 3.60189
369 1 0.540506 8.49998 4.99743
370 1 4.5521 5.96643 6.71157
371 1 7.05792 6.67037 0.28663
372 1 6.30818 3.70566 5.28012
373 1 8.62636 7.7562 8.47195
374 1 0.756385 2.47966 1.13322
375 1 3.36399 4.25504 4.16963
376 1 6.85608 5.98055 7.02601
377 1 0.434613 3.5838 5.96846
378 1 4.2444 6.04229 4.89978
379 1 0.855884 4.99776 1.36722
380 1 8.37036 5.2983 8.4817
381 1 8.78587 3.9368 2.66229
382 1 8.00639 1.66502 3.84231
383 1 0.64563 1.81066 7.08329
384 1 8.43646 2.26585 3.23144
385 1 5.33712 0.959328 8.2669
386 1 3.83506 0.490581 0.303176
387 1 8.78187 2.46484 4.16176
388 1 0.901073 3.49576 7.31539
389 1 9.26295 4.69794 3.08887
390 1 0.364533 8.39726 2.98753
391 1 2.07693 9.07336 2.0139
392 1 6.31216 6.21776 1.66667
393 1 2.34489 4.86807 7.5507
394 1 0.0120179 0.765209 3.04636
395 1 1.18677 8.93427 2.12242
396 1 6.63365 1.18643 6.28382
397 1 4.49068 4.34342 8.82617
398 1 2.43664 8.58417 3.44651
399 1 3.86934 8.63056 0.348342
400 1 1.30589 2.75742 0.450103
401 1 0.518129 8.0091 0.694701
402 1 7.49982 3.49278 1.11609
403 1 8.41518 6.7457 3.03835
404 1 8.88076 2.77484 5.08443
405 1 6.16434 0.704639 2.17996
406 1 5.9614 9.1579 6.68994
407 1 2.11299 5.70942 2.78356
408 1 1.35146 7.30499 0.731475
409 1 5.51434 4.46515 8.80814
410 1 1.13491 6.48723 1.1564
411 1 1.8571 1.34631 8.66599
412 1 7.5408 5.348 5.43279
413 1 1.08551 0.789506 8.35915
414 1 9.00997 1.61065 4.22542
415 1 1.39696 2.1279 3.65991
416 1 6.1301 0.966495 1.3008
417 1 6.08345 8.95906 1.50024
418 1 1.9528 6.74814 3.78281
419 1 7.49303 1.93327 6.46747
420 1 1.44324 8.4279 2.92033
421 1 7.85082 6.69325 8.9463
422 1 1.71543 1.13074 5.03128
423 1 1.20118 2.22947 1.95056
424 1 9.17577 0.566734 0.992019
425 1 5.95078 4.55232 2.42537
426 1 8.39773 0.391815 0.529058
427 1 8.80726 6.83248 8.53905
428 1 2.97296 3.55018 2.20564
429 1 5.17363 2.91615 0.275259
430 1 5.80266 8.69777 0.579298
431 1 3.56937 3.00391 2.42621
432 1 4.68592 8.58566 5.29238
433 1 4.5441 9.17839 1.62548
434 1 8.95145 4.03462 4.95432
435 1 4.89371 4.1367 2.95526
436 1 3.41647 3.32638 7.62131
437 1 1.09695 5.05585 2.98135
438 1 0.469756 4.49522 7.16925
439 1 5.67387 6.70801 3.24009
440 1 2.28257 5.30344 5.30166
441 1 4.66039 0.560808 0.542931
442 1 8.20499 7.59834 6.6297
443 1 8.49172 8.27296 4.13561
444 1 7.15181 2.17854 3.44656
445 1 5.25679 2.35567 3.73182
446 1 8.28797 3.73673 8.9284
447 1 6.82124 7.62104 0.402592
448 1 8.36149 9.32203 7.55879
449 1 7.89733 4.38507 4.54261
450 1 8.24492 8.23666 1.13037
451 1 4.40753 0.224256 6.51221
452 1 4.8152 1.21052 4.05178
453 1 6.82813 2.23515 8.4798
454 1 7.20154 7.0176 6.75281
455 1 7.30821 1.24089 7.14414
456 1 0.712151 6.2779 7.4013
457 1 6.86879 6.81105 4.98058
458 1 6.75353 2.25695 1.61855
459 1 2.3133 4.48134 3.80371
460 1 6.48931 7.41115 3.60602
461 1 9.03417 1.69104 6.69569
462 1 0.403857 0.946937 8.87921
463 1 1.57577 8.15188 0.63281
464 1 4.69799 8.39489 7.96987
465 1 1.77252 2.11127 4.51365
466 1 1.34933 1.56411 1.09158
467 1 8.52528 2.2199 0.219092
468 1 1.8693 4.12928 8.02884
469 1 8.68866 5.80868 6.25035
470 1 8.49548 0.398872 5.32746
471 1 8.7466 8.00357 6.01738
472 1 3.407 7.52898 0.277996
473 1 0.473332 4.52533 4.38138
474 1 9.22562 9.2775 3.1401
475 1 3.75447 6.83035 7.58986
476 1 0.739148 2.63649 7.82616
477 1 0.996689 6.6969 2.96091
478 1 4.87894 1.04963 6.73722
479 1 5.62446 9.11625 3.15536
480 1 3.84193 3.33074 1.56734
481 1 4.41063 4.41888 7.78498
482 1 2.27689 3.25775 0.575293
483 1 1.23562 7.18802 7.4834
484 1 4.45866 5.75818 0.376309
485 1 2.05748 8.29752 8.74016
486 1 8.66779 6.37121 -0.00492998
487 1 5.63725 7.23725 1.78998
488 1 5.97869 5.69919 0.133873
489 1 4.58152 1.37656 7.77214
490 1 4.33855 0.871354 8.6056
491 1 8.98479 0.0533731 6.14924
492 1 4.5098 2.29161 9.30313
493 1 6.31485 7.17796 7.33906
494 1 2.80304 2.22604 1.07281
495 1 3.71746 6.39351 6.82146
496 1 4.98702 3.8156 6.42977
497 1 3.64729 4.98954 0.801728
498 1 5.39919 4.9447 3.10647
499 1 4.3029 5.40063 5.99258
500 1 3.19154 5.67264 4.98011
501 1 3.99074 8.50326 3.04896
502 1 1.76219 4.27865 6.65383
503 1 9.04534 5.41951 1.31963
504 1 4.30469 4.85437 1.63515
505 1 6.02318 2.66952 3.23325
506 1 1.84016 5.2881 3.57576
507 1 8.94685 3.52199 8.41621
508 1 1.82792 4.60871 1.3787
509 1 6.70663 3.87116 1.10475
510 1 8.34179 1.42154 2.99715
511 1 8.31277 1.94296 5.98137
512 1 4.50686 3.97537 1.31578
513 1 0.607915 8.5193 1.50029
514 1 2.42181 5.39565 1.94548
515 1 0.665461 9.24644 0.87282
516 1 2.58035 1.61594 4.57047
517 1 0.309313 8.99499 5.7652
518 1 8.36515 8.38553 9.11451
519 1 0.141351 8.28384 6.17227
520 1 2.88886 6.70678 0.457767
521 1 5.06726 3.38066 3.68234
522 1 7.37519 7.81296 3.91697
523 1 0.852582 5.81168 3.36233
524 1 7.20678 1.91587 4.45297
525 1 3.69418 9.19156 2.25014
526 1 6.32632 8.87203 7.58725
527 1 5.77502 0.286997 7.39167
528 1 2.94792 8.72204 2.73321
529 1 8.06278 3.70726 6.13997
530 1 3.05674 7.2614 7.8105
531 1 5.66745 4.4554 4.88649
532 1 1.03653 7.69313 1.40601
533 1 7.11337 1.64206 2.44949
534 1 2.03289 1.13149 1.52586
535 1 9.04134 0.840967 4.79295
536 1 2.29366 2.07721 7.65281
537 1 8.54215 7.51791 2.60894
538 1 3.87157 5.27693 4.57498
539 1 4.86067 6.93773 2.42968
540 1 2.12449 6.70335 0.105987
541 1 1.14788 6.78698 6.65804
542 1 1.58395 7.57928 9.2529
543 1 8.11647 4.12259 3.67354
544 1 8.39567 7.11589 5.61667
545 1 3.20209 6.20711 8.40904
546 1 2.2258 0.931039 2.84199
547 1 8.1089 2.23264 4.76463
548 1 5.88406 1.41908 0.203229
549 1 4.89844 8.31599 4.26363
550 1 5.94016 3.14575 1.54642
551 1 6.24579 7.54248 5.59091
552 1 7.80924 9.04861 1.73554
553 1 4.39074 6.59083 6.15647
554 1 9.12805 8.08021 1.2508
555 1 5.94624 3.28795 9.1545
556 1 7.80594 7.06122 4.83388
557 1 1.17613 6.58776 9.35547
558 1 9.13787 8.13167 0.266093
559 1 6.22384 3.68175 3.91349
560 1 8.42901 8.91746 0.419459
561 1 8.76837 4.41655 1.87622
562 1 5.17982 3.76583 4.46577
563 1 0.147467 6.44455 5.78867
564 1 2.87508 0.151012 2.14762
565 1 8.57396 7.05203 4.2045
566 1 7.2426 3.22196 7.49857
567 1 6.79162 6.33355 7.95117
568 1 2.7618 0.352769 9.22904
569 1 4.42765 5.17423 7.23101
570 1 3.59865 8.46043 4.84456
571 1 3.68614 6.04407 5.71487
572 1 5.12357 5.98331 2.93994
573 1 0.11374 7.88019 8.00371
574 1 8.42012 4.94033 5.04079
575 1 5.26292 3.95385 1.74452
576 1 1.67284 2.89017 3.93197
577 1 4.76893 1.73196 4.82017
578 1 8.23598 0.276161 8.95576
579 1 5.08589 1.3854 2.63825
580 1 1.11722 8.55866 6.27394
581 1 4.20531 7.89492 0.42305
582 1 3.10953 7.88759 4.11702
583 1 7.33661 4.29414 0.580629
584 1 7.13587 4.75508 2.61496
585 1 8.86475 6.37104 4.98675
586 1 5.64276 9.33456 -0.0037279
587 1 7.66923 3.70986 5.13329
588 1 6.0758 8.44515 9.09176
589 1 2.80394 9.1644 6.2401
590 1 6.7136 5.90095 0.778906
591 1 5.38726 3.35154 2.46211
592 1 2.82565 6.14825 6.77472
593 1 6.71788 9.33866 0.198125
594 1 5.56133 0.628193 0.734237
595 1 3.54502 9.18759 3.30563
596 1 5.07022 4.90622 2.26986
597 1 8.30925 5.25438 0.786247
598 1 4.08878 5.71725 8.77126
599 1 7.1322 7.91751 6.23055
600 1 -0.00645134 6.10462 3.91422
601 1 7.54663 3.54097 4.02123
602 1 3.84093 1.40253 6.01587
603 1 3.88967 6.6086 0.691433
604 1 0.579562 5.40535 5.88666
605 1 9.36782 3.28495 7.02295
606 1 3.91076 2.33418 3.67887
607 1 1.44577 0.514575 3.46214
608 1 3.7189 2.8072 8.2497
609 1 2.17962 3.78291 4.97324
610 1 5.84892 7.50929 8.64994
611 1 8.43665 0.795294 8.03882
612 1 0.0799202 6.96121 4.60629
613 1 2.87146 7.76619 2.25102
614 1 3.26832 5.07006 1.64211
615 1 9.08214 4.82623 7.86945
616 1 2.45529 9.14124 8.50489
617 1 3.04026 9.10112 4.58613
618 1 8.95791 8.3332 3.14123
619 1 3.95633 5.6889 1.26959
620 1 3.91416 8.51416 6.90006
621 1 5.32276 2.9481 6.96403
622 1 5.90338 4.48636 1.51961
623 1 7.23458 6.21797 4.25488
624 1 1.49463 0.619703 9.20207
625 1 5.00952 5.28536 9.16621
626 1 6.61706 4.28204 8.49969
627 1 0.797574 0.351792 2.61623
628 1 7.63561 7.98297 0.148278
629 1 1.9208 6.06172 5.97699
630 1 7.25003 8.47262 8.17812
631 1 1.68857 0.223852 6.74561
632 1 8.16861 4.7215 9.36146
633 1 4.10474 4.93943 0.014713
634 1 7.22831 2.74162 5.97037
635 1 8.12859 0.285669 4.5066
636 1 5.3355 9.32128 1.03516
637 1 6.20793 0.466124 6.0087
638 1 7.92066 8.71906 4.62609
639 1 3.68018 2.04194 8.60809
640 1 8.94258 3.51089 5.61627
641 1 1.85145 9.11952 5.8461
642 1 5.0351 1.02521 9.16565
643 1 3.52955 0.350297 6.15928
644 1 0.339025 2.52937 6.53817
645 1 3.58132 2.51816 9.36875
646 1 0.203889 5.20956 6.73706
647 1 5.04235 7.0143 8.6952
648 1 2.41363 4.54048 8.99722
649 1 6.41079 4.86098 0.926997
650 1 6.5168 1.78022 0.889577
651 1 4.07631 7.69492 4.72989
652 1 1.41428 4.45545 5.77726
653 1 4.17116 4.09241 0.260779
654 1 0.642383 9.36159 9.04666
655 1 2.88594 2.55946 8.64838
656 1 1.71866 9.20336 7.69056
657 1 5.08444 3.12184 1.22907
658 1 3.64984 0.206499 8.92923
659 1 3.39275 5.85419 0.547387
660 1 7.76368 1.86192 1.62971
661 1 5.37063 8.00066 5.99721
662 1 4.83391 5.1525 8.1408
663 1 6.62239 8.49972 0.460431
664 1 4.48915 9.04752 7.372
665 1 3.02158 0.625172 8.25594
666 1 8.64112 5.34918 7.22009
667 1 4.34047 8.66751 8.83075
668 1 0.301333 6.26366 1.07699
669 1 2.27236 3.17473 3.08664
670 1 3.41842 1.12268 8.8658
671 1 3.82906 8.79176 7.92145
672 1 0.804703 7.90231 7.04595
673 1 7.87535 5.11783 3.81793
674 1 0.182125 7.51303 1.85549
675 1 8.67475 3.22768 6.46331
676 1 7.35305 8.01458 1.02711
677 1 6.27583 6.86667 9.28517
678 1 5.17269 6.08591 8.32876
679 1 3.46606 0.335551 1.47399
680 1 6.80813 8.68591 4.74216
681 1 1.48389 0.318244 1.69683
682 1 5.51845 5.0567 0.577072
683 1 6.12504 1.59942 2.81063
684 1 7.27932 7.16873 5.76665
685 1 3.28901 3.42276 9.38626
686 1 2.60736 5.98387 9.06294
687 1 7.58264 4.23112 1.76146
688 1 6.91814 9.03817 6.73601
689 1 2.71507 0.572494 6.72943
690 1 1.03976 2.54745 9.00741
691 1 3.06963 2.80917 3.9887
692 1 1.39543 7.97548 5.50486
693 1 0.436091 3.12326 0.063507
694 1 8.16748 7.69049 3.52339
695 1 9.08275 0.297919 2.19939
696 1 3.71578 7.7807 5.77347
697 1 0.462583 1.21079 5.15785
698 1 5.62127 7.97493 7.05109
699 1 4.00264 0.695434 3.83462
700 1 1.44246 3.5834 2.79343
701 1 9.10839 8.92103 1.53496
702 1 0.940707 2.71376 4.42882
703 1 0.171175 8.90586 2.29161
704 1 7.65693 8.759 6.42562
705 1 4.22629 2.20313 2.47661
706 1 5.51712 1.84082 7.8942
707 1 6.54767 1.48931 7.31847
708 1 7.31126 3.19474 2.60992
709 1 5.68396 1.23706 5.3568
710 1 2.57335 0.0790217 3.08067
711 1 1.66862 7.29353 2.77469
712 1 3.89833 7.2775 1.99049
713 1 5.51522 4.78329 5.8149
714 1 2.63802 6.94295 1.83948
715 1 2.59858 4.8475 2.90499
716 1 7.4606 0.47518 0.0953623
717 1 7.64875 7.84303 8.55125
718 1 0.770213 5.32217 7.52134
719 1 7.68477 1.89165 9.1264
720 1 2.33903 5.76541 7.9378
721 1 5.40903 9.17781 2.05768
722 1 8.49189 6.18847 7.81073
723 1 1.30677 8.95955 0.112645
724 1 0.554934 7.46877 3.34507
725 1 6.58367 0.494558 6.93232
726 1 2.86106 0.584629 0.673353
727 1 0.498171 4.24847 5.40096
728 1 5.22167 5.5778 7.24392
729 1 6.05918 6.73775 2.43152
730 1 4.8513 7.8006 1.75797
731 1 5.66308 7.5411 2.63807
732 1 1.18159 5.44891 6.70434
733 1 8.1667 3.71305 0.506541
734 1 9.17784 3.98631 3.78743
735 1 7.67885 2.31092 8.3653
736 1 8.81405 2.53735 6.92723
737 1 1.24736 6.80079 4.64636
738 1 5.7757 0.443815 4.08074
739 1 6.95554 1.00131 1.78798
740 1 1.19145 2.69108 2.96758
741 1 7.10996 8.60228 2.06246
742 1 5.1076 8.85701 6.44148
743 1 4.37991 9.02631 4.56164
744 1 8.58383 8.64414 6.94053
745 1 1.74053 2.35663 8.53052
746 1 2.33843 0.106266 3.98558
747 1 3.15956 2.42911 7.68227
748 1 5.60883 2.14514 4.4849
749 1 7.68854 0.275124 7.0731
750 1 0.209173 5.67528 2.71137
751 1 6.777 2.45605 2.62456
752 1 3.42274 4.69722 3.43962
753 1 4.14374 1.4658 1.00077
754 1 8.24647 1.20428 2.13402
755 1 8.56855 1.93986 1.25831
756 1 0.727997 3.34018 3.81537
757 1 8.29914 6.59078 2.14369
758 1 8.74814 7.06488 7.47485
759 1 1.68346 5.86635 7.31494
760 1 9.4036 7.53927 2.74427
761 1 1.18068 3.38211 8.61197
762 1 5.8793 3.71304 8.32183
763 1 1.41203 1.31993 4.008
764 1 3.05015 4.69064 6.65291
765 1 5.97866 3.78952 6.43887
766 1 1.61081 0.888248 7.50116
767 1 5.73309 4.94552 3.8895
768 1 0.896859 4.06529 1.6663
769 1 6.18523 1.62561 3.76504
770 1 2.0335 7.04526 4.93474
771 1 4.26781 1.45773 3.35707
772 1 3.2134 0.839582 3.52763
773 1 9.03082 6.8134 1.67373
774 1 1.11173 5.57249 0.750787
775 1 3.52817 5.69918 3.31556
776 1 8.62911 2.46592 2.19391
777 1 8.0941 1.11786 1.10591
778 1 2.1973 1.06586 0.204187
779 1 3.04167 9.20787 0.899499
780 1 0.0119595 8.54664 3.98938
781 1 4.26708 7.33113 9.07456
782 1 3.24991 7.44787 1.19505
783 1 7.90245 8.22354 5.71075
784 1 5.28589 3.92349 5.6359
785 1 9.19515 7.71036 5.05765
786 1 1.76282 0.26134 5.10021
787 1 1.89914 5.0427 4.48148
788 1 7.19575 5.55665 3.47602
789 1 2.94578 5.18793 0.140594
790 1 0.118277 2.13952 4.62462
791 1 5.33632 6.28122 2.01149
792 1 2.03112 0.600472 8.299
793 1 5.97725 5.31689 1.92064
794 1 6.97133 0.060681 1.93651
795 1 6.7093 3.94421 2.962
796 1 1.05049 1.8337 4.86959
797 1 8.33651 5.8144 2.63996
798 1 3.61208 1.49495 5.0968
799 1 6.01397 1.6492 1.97554
800 1 1.09524 8.56097 8.70732
801 2 7.57399 7.0811 2.77924
802 2 2.33509 7.43409 7.31011
803 2 8.21904 1.20897 4.65449
804 2 5.72995 0.847988 3.19559
805 2 4.89724 6.16353 5.5092
806 2 2.82142 1.6996 8.36074
807 2 8.21405 2.87671 0.89328
808 2 0.0323541 2.16739 9.09218
809 2 4.17402 3.22269 9.20166
810 2 0.0587642 6.1906 8.74962
811 2 9.05135 1.45032 8.52297
812 2 4.46034 6.35095 1.8622
813 2 6.69261 0.20808 5.29002
814 2 2.01927 7.47686 8.19221
815 2 6.23721 3.65688 2.29734
816 2 2.54384 6.8266 8.76377
817 2 7.63924 8.78801 7.33108
818 2 1.03835 5.63981 9.21439
819 2 8.83503 4.30614 0.352426
820 2 6.45017 4.60617 6.69263
821 2 4.72164 1.42284 5.80821
822 2 6.13344 8.96356 5.47582
823 2 9.19024 3.04871 3.23779
824 2 8.83723 5.48279 4.45064
825 2 5.37784 4.46438 7.87696
826 2 3.35913 3.06612 5.81752
827 2 0.364944 1.18955 8.06127
828 2 8.12018 5.02176 1.98371
829 2 2.95948 1.86707 3.8244
830 2 9.20814 7.24728 6.10622
831 2 2.04506 6.49024 6.86034
832 2 6.77631 3.37957 0.412015
833 2 0.733351 4.38485 3.43971
834 2 6.58318 2.82261 5.27938
835 2 6.47572 0.0782243 4.38944
836 2 2.26685 8.26764 6.01651
837 2 6.28388 8.3252 2.20575
838 2 5.98977 0.758535 8.98237
839 2 5.29156 7.05896 6.13675
840 2 8.09518 8.80099 8.27713
841 2 7.95948 8.67606 3.54201
842 2 2.40726 7.60586 0.636384
843 2 3.74065 1.29481 1.88687
844 2 8.20504 1.9538 6.98388
845 2 7.88342 6.8802 1.39553
846 2 0.630695 2.43947 5.39429
847 2 1.38942 7.64067 4.6431
848 2 8.19317 3.2485 2.605
849 2 7.61026 9.23548 5.32717
850 2 6.70042 5.9276 5.12852
851 2 6.83204 7.39263 2.24529
852 2 4.19507 3.47299 5.18395
853 2 2.20253 6.60378 7.78772
854 2 2.41004 3.97353 7.23457
855 2 4.48855 7.83245 2.69192
856 2 0.533653 6.33804 2.00596
857 2 3.42613 4.50997 7.49843
858 2 0.660792 7.21372 5.28084
859 2 8.42741 1.96208 7.95422
860 2 0.954347 0.635507 4.43921
861 2 7.7792 2.86913 6.802
862 2 3.8086 2.45697 1.20697
863 2 5.31299 0.544288 2.41791
864 2 5.9867 5.88966 2.9738
865 2 3.93415 8.10748 1.55123
866 2 1.88572 6.28878 8.6377
867 2 0.299764 3.83927 2.95395
868 2 0.312775 2.93796 8.52909
869 2 3.70342 7.54235 3.09244
870 2 0.352091 1.52162 6.08749
871 2 5.83478 5.2053 8.43478
872 2 6.46389 4.89704 5.69265
873 2 4.40638 0.874851 2.55711
874 2 0.624272 1.52808 0.145425
875 2 1.00289 0.664256 5.72497
876 2 2.77952 0.79877 5.01972
877 2 2.20155 3.14646 8.9695
878 2 3.16365 2.80401 6.78585
879 2 9.08961 1.42013 0.692908
880 2 0.857968 0.668509 1.15713
881 2 5.44809 3.08024 5.06191
882 2 8.36473 3.32755 4.55536
883 2 5.62459 1.16545 7.22
884 2 5.37429 6.91768 5.24006
885 2 9.02106 1.55193 2.36993
886 2 6.24291 0.959981 7.95918
887 2 4.62169 2.90379 7.72312
888 2 3.91953 1.92645 6.85622
889 2 6.39737 6.60082 4.03665
890 2 0.0475541 5.14357 4.98255
891 2 7.6165 5.63267 7.92515
892 2 6.42454 5.5167 4.25626
893 2 7.5188 5.81011 8.8518
894 2 2.30223 9.01857 0.474164
895 2 7.71307 1.03958 8.6606
896 2 9.02536 1.738 5.31831
897 2 1.51259 1.84919 6.63084
898 2 3.14165 5.5431 7.50579
899 2 3.02203 5.71278 2.49459
900 2 1.23231 8.35371 3.83975
901 2 9.38046 7.3172 9.04977
902 2 2.66555 4.01721 3.06454
903 2 3.448 4.13349 1.09715
904 2 0.760896 9.22964 3.31344
905 2 4.63141 4.30276 4.97304
906 2 7.26928 4.35693 6.59736
907 2 6.86489 7.32966 8.76506
908 2 7.49677 1.14472 3.0749
909 2 4.86573 8.45383 3.31757
910 2 8.51872 9.09928 2.7326
911 2 5.41413 7.42339 7.70647
912 2 1.19783 5.26185 5.28859
913 2 7.74596 0.264309 3.32899
914 2 6.88679 3.10741 1.644
915 2 5.76934 3.97124 3.17522
916 2 2.85621 1.48538 5.69244
917 2 2.69109 6.618 5.69133
918 2 4.95896 9.21252 3.75512
919 2 4.64724 8.47706 1.05506
920 2 6.13073 1.73847 8.66129
921 2 4.55302 7.5696 6.17525
922 2 3.78911 3.79666 8.4791
923 2 6.97321 2.69015 9.26348
924 2 2.06095 8.75472 6.77659
925 2 3.40787 6.1476 1.77919
926 2 0.312854 5.72645 0.254789
927 2 6.7154 4.53533 1.87752
928 2 8.03882 8.21587 2.79032
929 2 2.09574 4.08651 0.388105
930 2 7.82343 1.90696 0.722747
931 2 0.709678 3.05549 2.17077
932 2 7.03672 6.40881 6.19432
933 2 7.55098 2.85256 5.01698
934 2 7.65815 5.42669 4.59372
935 2 9.08335 8.77472 7.96973
936 2 4.44612 8.62125 2.27425
937 2 8.53322 0.837286 3.80589
938 2 6.77452 5.24704 8.14808
939 2 3.5915 8.09429 8.96945
940 2 9.26685 1.99375 7.53313
941 2 2.28507 4.40868 5.59817
942 2 7.62233 0.755224 5.39743
943 2 3.03207 8.17361 0.777089
944 2 0.362601 6.02152 6.59363
945 2 5.04599 5.99016 4.66541
946 2 8.48704 7.39206 9.26758
947 2 5.08031 2.42727 2.78715
948 2 3.95372 7.46977 6.815
949 2 3.09158 4.30079 8.60427
950 2 1.72893 3.55063 6.1131
951 2 5.0743 6.73503 1.22887
952 2 6.60249 2.53811 4.2325
953 2 3.45007 0.452907 4.51606
954 2 3.3561 7.21187 8.72048
955 2 2.37863 0.176948 1.38283
956 2 8.41133 4.37396 6.64786
957 2 9.41194 4.25606 1.19703
958 2 0.55954 1.71559 3.91554
959 2 2.09251 6.75033 1.09772
960 2 4.63648 6.84769 0.374965
961 2 0.281632 4.92767 8.77022
962 2 5.68032 8.1979 8.16957
963 2 1.85667 5.59058 1.32651
964 2 4.16441 9.2881 0.916313
965 2 0.695128 1.54437 2.20028
966 2 8.27012 4.40389 1.09387
967 2 6.55961 7.94467 7.0888
968 2 0.258887 3.88663 8.87345
969 2 5.96218 3.28066 0.648361
970 2 4.93539 3.67504 8.2527
971 2 6.40206 5.01764 3.08983
972 2 2.60866 7.46331 3.4228
973 2 8.9189 3.2189 9.33639
974 2 3.90695 1.5358 4.20277
975 2 9.32582 3.40853 2.03575
976 2 3.6439 8.14979 2.35638
977 2 6.58974 9.08038 3.3766
978 2 2.55825 3.43556 4.06401
979 2 4.96906 6.21161 9.27703
980 2 6.54872 1.03572 4.91767
981 2 1.92214 2.33515 2.691
982 2 8.50829 8.41869 2.01336
983 2 0.738061 5.73639 8.35567
984 2 3.946 0.992504 6.99777
985 2 0.277848 6.84587 7.99447
986 2 2.03308 6.05791 5.04221
987 2 4.34813 0.668597 1.62742
988 2 8.6035 9.23801 3.83382
989 2 7.7473 2.43607 2.67681
990 2 3.07343 1.35221 1.15954
991 2 8.79078 4.47685 8.69064
992 2 4.20306 5.54856 2.19392
993 2 7.69435 2.77264 1.79521
994 2 2.13464 1.27003 6.78164
995 2 1.4165 1.89614 7.65546
996 2 1.43774 7.4168 3.63313
997 2 2.36767 2.4141 3.58138
998 2 9.42808 0.847474 6.55112
999 2 4.83976 7.72951 5.19721
1000 2 9.19471 9.11097 8.858