#bin. KALJ data file T=0.5

1000 atoms
2 atom types

0 9.4 xlo xhi
0 9.4 ylo yhi
0 9.4 zlo zhi

Masses

1 1.0
2 1.0

Atoms

1 1 3.65115 0.433588 0.810455
2 1 8.86379 3.80756 0.524532
3 1 4.9486 7.79452 6.69841
4 1 6.09901 9.14318 5.6248
5 1 6.49932 0.422542 7.82424
6 1 1.72236 1.08243 9.15801
7 1 3.93254 6.23037 1.54692
8 1 2.54681 0.784032 6.57877
9 1 0.417251 3.57363 5.24333
10 1 5.73044 6.50224 2.09975
11 1 8.34293 4.28934 7.14154
12 1 2.22938 6.59766 8.57536
13 1 0.889886 3.20847 2.87639
14 1 8.93184 3.02443 1.95033
15 1 0.335184 2.97767 4.06749
16 1 0.445313 2.56744 5.93559
17 1 0.494889 9.37435 2.90659
18 1 6.34196 8.07372 0.390174
19 1 8.11969 8.02457 0.118877
20 1 6.09055 7.60978 8.20153
21 1 2.86166 3.20108 4.95241
22 1 9.2019 7.93074 7.96035
23 1 1.64744 0.442928 0.444623
24 1 5.9069 8.56305 3.0897
25 1 2.27712 1.74277 7.4985
26 1 8.94401 0.969298 9.05854
27 1 1.50643 6.249 5.72481
28 1 2.97535 1.99123 8.10487
29 1 5.74389 8.41624 8.0091
30 1 1.68954 7.65934 7.98633
31 1 6.55869 2.10724 0.226396
32 1 1.81448 3.20632 6.264
33 1 7.45462 0.357528 0.752323
34 1 0.225968 3.15573 0.510108
35 1 9.23432 9.21013 6.58669
36 1 3.72409 5.65803 3.0688
37 1 1.11869 1.37635 8.20457
38 1 6.51025 1.91368 5.40067
39 1 7.20488 2.40005 5.7371
40 1 9.22321 6.95197 7.89608
41 1 5.51788 3.94697 6.37599
42 1 1.79205 8.81152 2.80679
43 1 4.3024 2.68775 6.07036
44 1 1.21903 5.1357 8.81096
45 1 0.0480001 4.0896 7.555
46 1 0.148146 5.19402 5.4095
47 1 2.23892 4.75375 1.45225
48 1 4.18812 2.32598 4.62889
49 1 2.25435 0.102603 2.63309
50 1 3.69576 1.41548 5.70464
51 1 8.33154 9.0341 8.48301
52 1 5.37056 2.89187 6.19911
53 1 6.98237 8.38356 8.30286
54 1 0.0974387 4.59286 1.89775
55 1 4.0263 1.38051 8.60457
56 1 2.29622 1.57671 4.10634
57 1 2.98263 8.92638 5.85887
58 1 6.46386 6.83154 2.99962
59 1 0.876652 5.98014 6.31306
60 1 4.35334 3.16404 5.2098
61 1 5.07354 3.73541 5.07347
62 1 8.83612 0.526002 8.31434
63 1 2.18829 2.3059 8.61993
64 1 2.38511 6.18047 7.40485
65 1 5.21533 1.36075 8.26491
66 1 4.55753 9.15105 5.0243
67 1 1.20865 6.0923 4.34344
68 1 6.06887 1.98818 2.81196
69 1 2.18869 3.73419 4.2864
70 1 6.4858 4.0167 6.17379
71 1 6.81639 2.28481 6.83874
72 1 1.17135 7.41928 1.98195
73 1 1.84819 5.58117 3.73222
74 1 2.73971 8.37569 6.44598
75 1 3.90477 0.529649 1.81727
76 1 1.99169 7.4282 0.365754
77 1 4.2092 6.18179 7.32042
78 1 6.49049 2.7018 2.96613
79 1 3.36223 5.52785 3.8945
80 1 0.932695 8.05776 0.778303
81 1 8.97933 3.37561 3.02306
82 1 4.76477 1.20947 5.97623
83 1 9.31563 0.301202 3.55257
84 1 8.22656 1.08011 7.50181
85 1 1.20226 7.88579 9.37196
86 1 1.95484 0.504427 8.33585
87 1 2.43366 8.19293 7.93642
88 1 0.212113 2.71606 2.54626
89 1 5.13393 0.466436 8.05982
90 1 3.75527 5.80921 5.42332
91 1 4.03128 1.69811 6.49564
92 1 2.00848 3.78152 9.11751
93 1 7.50179 7.52846 7.03801
94 1 6.50169 7.70866 6.79581
95 1 6.3704 7.7314 2.79796
96 1 7.82802 8.77318 6.08403
97 1 1.82414 5.90438 2.76501
98 1 3.84251 1.95503 2.97098
99 1 1.00814 0.663741 3.75442
100 1 0.136631 1.46075 8.42826
101 1 3.93712 3.47421 6.70037
102 1 6.73152 9.01816 0.489418
103 1 0.20753 4.98022 7.52676
104 1 5.33496 8.8112 0.265843
105 1 1.03238 0.420547 9.09481
106 1 0.0740744 1.12239 2.21679
107 1 2.54441 4.64645 4.67443
108 1 0.618798 5.52962 0.269982
109 1 4.07855 7.27201 6.91752
110 1 0.873492 5.33222 3.83887
111 1 8.39866 6.95174 7.15278
112 1 6.35518 8.26294 5.04491
113 1 7.95125 1.97436 5.90009
114 1 4.16357 9.14886 0.246705
115 1 8.20491 2.17835 8.93936
116 1 2.31387 6.25758 0.168028
117 1 8.80786 7.89046 3.49304
118 1 2.15701 4.51637 7.40935
119 1 3.90229 7.93921 8.51713
120 1 5.91937 8.46667 7.15807
121 1 1.66332 6.30338 6.65253
122 1 1.63136 2.64892 2.91106
123 1 4.99917 2.7244 7.80675
124 1 3.26429 7.5935 6.93144
125 1 6.49199 0.484953 0.764741
126 1 7.26739 8.19701 5.55875
127 1 0.889532 7.99346 8.25677
128 1 1.06175 9.07175 8.31741
129 1 5.89984 4.95514 0.164434
130 1 9.38934 6.62808 9.12529
131 1 7.57435 4.00122 8.1775
132 1 0.0840842 1.82694 4.11706
133 1 1.87905 2.03062 1.63786
134 1 8.02947 5.77203 5.74165
135 1 5.207 0.535952 5.17723
136 1 6.00681 8.52954 4.14331
137 1 3.28743 2.85243 2.77457
138 1 0.254814 8.2567 3.16119
139 1 9.23686 7.38738 0.721904
140 1 5.23462 4.34655 0.54091
141 1 3.83106 2.83024 7.5952
142 1 3.75326 4.24971 1.46464
143 1 5.36212 1.71589 5.38849
144 1 7.50101 9.33136 7.97058
145 1 1.56069 9.03531 9.07335
146 1 8.58463 0.618036 6.78853
147 1 9.26874 7.96697 2.20474
148 1 6.93879 0.738359 8.65641
149 1 0.180667 0.462103 0.036359
150 1 6.52328 6.98132 1.90846
151 1 3.914 4.62969 2.28952
152 1 3.94804 3.77518 7.77404
153 1 1.00593 4.54031 2.06815
154 1 5.24699 9.14454 4.53685
155 1 2.25443 0.559771 3.52166
156 1 3.50735 3.91137 5.15436
157 1 0.138362 4.24513 5.88672
158 1 6.09427 5.57278 1.82008
159 1 3.7549 7.85382 0.968482
160 1 1.38761 4.54432 0.0749696
161 1 7.9412 8.1124 1.38138
162 1 5.22709 6.162 2.90581
163 1 2.34787 5.46084 0.89835
164 1 0.600412 0.416313 5.47202
165 1 1.86368 2.55967 7.32834
166 1 7.17548 1.48989 6.02018
167 1 6.44586 2.9455 7.68397
168 1 1.14844 4.65655 3.28716
169 1 8.17348 7.34646 2.72981
170 1 6.58124 5.99778 4.58036
171 1 6.09768 9.37962 4.65263
172 1 5.95064 3.46856 3.61701
173 1 8.57821 1.64587 4.44232
174 1 7.25183 6.96014 4.52139
175 1 6.86548 0.305712 4.33316
176 1 9.01003 5.25556 1.92302
177 1 1.03057 2.65256 2.06051
178 1 4.52845 2.43857 7.0267
179 1 5.14493 2.16299 8.84436
180 1 0.822428 1.17456 6.27416
181 1 8.48593 7.79198 7.38306
182 1 0.622134 0.608404 7.00615
183 1 7.27931 0.0890443 9.07267
184 1 1.66114 2.91759 3.97813
185 1 4.54248 8.23168 9.20866
186 1 4.97104 5.79216 8.66937
187 1 9.34525 8.28067 0.306076
188 1 2.07357 5.135 8.3017
189 1 1.19741 8.30405 4.10385
190 1 9.24603 2.92606 8.15469
191 1 5.21402 0.748505 9.1801
192 1 1.95354 7.95913 7.16217
193 1 4.12784 2.39036 8.75243
194 1 2.80971 0.376677 8.05886
195 1 4.15453 6.4054 2.79329
196 1 3.04603 4.1874 6.30159
197 1 4.25792 7.42448 7.86932
198 1 6.40984 3.0452 6.20621
199 1 9.09709 9.16169 4.83117
200 1 2.03432 0.960276 4.70755
201 1 5.43373 5.81233 3.79777
202 1 0.308172 3.39391 2.02865
203 1 9.03947 5.81314 2.77431
204 1 2.66348 5.74241 1.66321
205 1 3.28039 4.36303 3.13704
206 1 0.837758 1.93191 5.37372
207 1 4.30984 0.900573 6.71851
208 1 4.51637 4.5599 0.997933
209 1 6.65127 3.31512 4.12597
210 1 0.652822 7.62601 6.52643
211 1 7.18748 8.42534 9.34414
212 1 8.35789 0.900878 3.5403
213 1 2.78972 7.89003 0.649423
214 1 8.49764 7.62876 5.38292
215 1 2.29788 1.35642 8.40381
216 1 2.72668 6.09897 2.61664
217 1 4.59593 0.245458 5.84936
218 1 3.72737 0.543652 7.37528
219 1 5.05307 5.92805 1.98304
220 1 0.201949 6.22177 0.506468
221 1 7.78116 6.39607 7.71927
222 1 7.49989 8.62999 2.08877
223 1 3.75281 0.295076 8.30658
224 1 2.45084 2.96781 3.28383
225 1 5.34154 3.36367 0.363086
226 1 3.46205 0.412349 5.47018
227 1 0.59446 9.37682 6.31771
228 1 3.3631 5.88825 7.0472
229 1 7.58371 4.54578 9.19935
230 1 7.55769 2.56623 1.26139
231 1 7.47328 4.69735 7.36649
232 1 0.902754 5.28834 6.98866
233 1 5.40266 0.498272 6.34259
234 1 8.39098 8.61762 6.78623
235 1 4.88725 8.34976 4.62254
236 1 4.0511 7.03576 3.81012
237 1 6.72185 2.25614 1.10626
238 1 3.41005 2.06209 9.00687
239 1 1.46736 4.58119 6.74999
240 1 0.277917 8.07395 4.08974
241 1 7.2167 4.86502 3.333
242 1 0.338595 7.65372 8.91334
243 1 3.70634 7.90445 3.0558
244 1 7.03585 5.92281 7.17756
245 1 1.44768 0.233499 1.83987
246 1 8.11715 2.86306 5.78443
247 1 1.1165 7.93226 2.79662
248 1 5.20007 6.97543 3.4418
249 1 2.6146 3.97987 5.39701
250 1 4.87291 4.40917 6.7172
251 1 1.74638 3.68906 0.649573
252 1 3.79091 9.28832 3.40828
253 1 4.61641 8.21883 1.50115
254 1 1.90014 7.75813 6.15239
255 1 3.53304 2.29958 5.9324
256 1 8.36384 0.14285 7.6615
257 1 6.52836 6.63139 7.93515
258 1 6.8947 7.98586 1.99194
259 1 6.71463 3.58683 7.03212
260 1 7.99104 2.03221 2.44604
261 1 0.826628 3.7261 -0.00049309
262 1 1.14182 1.10878 0.602326
263 1 4.41027 6.49992 9.19832
264 1 4.54207 4.35761 3.60237
265 1 9.38168 8.0448 5.89136
266 1 1.03468 6.03862 0.925902
267 1 1.67773 6.67567 3.7309
268 1 1.30666 2.0353 8.80118
269 1 2.56055 7.58972 1.48579
270 1 8.87148 7.38834 6.17765
271 1 5.61753 2.95244 3.02725
272 1 8.55512 8.57659 0.757942
273 1 7.9954 6.95105 5.90141
274 1 5.04335 4.63161 4.35803
275 1 7.45357 2.57442 7.39419
276 1 9.19659 2.91729 4.81542
277 1 4.52765 3.13433 8.4108
278 1 1.8928 0.945921 1.14028
279 1 0.918539 1.49287 3.62382
280 1 6.32519 3.58518 2.44484
281 1 0.98132 2.34812 3.57822
282 1 8.57462 6.65852 0.310232
283 1 6.79527 2.21299 4.51169
284 1 9.27231 3.51529 8.87041
285 1 7.15419 7.55077 0.490353
286 1 3.18841 6.08314 9.11889
287 1 3.92342 6.03247 8.62543
288 1 7.47141 1.65683 7.03374
289 1 8.14795 1.76136 3.59851
290 1 4.22351 4.73579 0.114005
291 1 2.99203 2.16563 7.13328
292 1 7.83959 5.98005 9.38654
293 1 8.1244 2.26325 6.92866
294 1 6.47183 7.52243 1.20169
295 1 8.63626 6.62116 8.58509
296 1 1.37964 9.25678 3.84275
297 1 6.25099 1.17713 3.661
298 1 6.69049 8.86067 7.62585
299 1 5.40505 8.76766 1.87056
300 1 7.51033 3.1346 8.24425
301 1 4.81798 5.0662 1.73813
302 1 7.60709 4.24179 3.88228
303 1 4.1505 4.86171 7.73233
304 1 1.37849 5.21054 6.10246
305 1 9.08215 2.0965 5.29674
306 1 6.41977 2.06213 1.88323
307 1 4.83143 3.957 7.64835
308 1 3.91973 0.0099532 6.70249
309 1 3.44283 6.65733 2.27164
310 1 0.222437 6.62245 6.177
311 1 6.41347 1.5025 8.46004
312 1 2.49018 5.53455 4.3571
313 1 8.58888 3.02209 7.40141
314 1 4.7393 5.99306 5.50815
315 1 4.825 6.81663 5.9825
316 1 7.44344 7.82777 2.69915
317 1 0.872677 6.31753 9.15322
318 1 7.05656 6.67299 0.921724
319 1 7.72456 9.30074 1.49426
320 1 1.36219 4.28174 8.64401
321 1 4.69678 3.09113 3.28907
322 1 6.88491 6.89045 6.99911
323 1 7.80011 3.98608 1.84285
324 1 2.66857 5.86265 8.20851
325 1 4.60347 2.12415 3.36513
326 1 9.1209 0.42285 2.56372
327 1 6.56117 5.72348 8.02386
328 1 6.35788 8.76558 1.25945
329 1 5.85743 5.90137 8.75096
330 1 0.314817 5.95846 4.47451
331 1 8.93448 3.06172 1.0809
332 1 1.44783 7.09388 8.91487
333 1 1.59971 2.81666 8.03486
334 1 7.05873 6.29896 1.94458
335 1 8.3245 5.58821 1.15843
336 1 8.15209 4.7989 1.60223
337 1 1.14629 2.82019 4.69997
338 1 5.4344 0.910728 3.25014
339 1 6.02744 4.76523 7.30375
340 1 7.68235 2.14758 0.399923
341 1 2.21777 2.77139 2.05363
342 1 0.1707 1.72342 5.92884
343 1 0.365125 6.36712 2.46694
344 1 3.21715 6.01983 6.08872
345 1 4.16835 0.518062 3.98631
346 1 1.5726 3.50843 5.09569
347 1 1.077 0.874464 1.45587
348 1 2.57787 2.88972 6.509
349 1 2.64873 0.691916 1.61112
350 1 8.73856 5.25491 3.45959
351 1 7.69734 0.908232 4.46081
352 1 6.01545 6.5482 1.17763
353 1 9.01354 9.0712 9.26496
354 1 5.53043 8.53861 5.23596
355 1 1.41885 5.20184 2.65077
356 1 6.56485 9.02009 6.46264
357 1 2.23766 7.32873 3.22445
358 1 3.50963 0.718972 6.32599
359 1 1.51819 5.82284 7.55526
360 1 4.64325 1.44019 2.53696
361 1 6.33024 7.00768 4.45345
362 1 4.01129 8.20638 7.15302
363 1 8.74492 3.91013 8.18715
364 1 4.20527 6.366 4.73878
365 1 3.21638 7.69345 7.91971
366 1 3.14396 2.10759 3.56408
367 1 2.8675 9.38175 6.88039
368 1 4.84299 6.38096 7.94584
369 1 3.80488 9.32982 4.57771
370 1 7.12786 4.87955 8.16891
371 1 6.27844 8.6597 9.14704
372 1 7.1125 3.53587 1.21624
373 1 6.72676 1.9254 7.72802
374 1 8.5361 2.24546 1.28353
375 1 9.23482 0.996214 7.42653
376 1 7.74183 6.3916 6.75015
377 1 7.62547 4.61747 2.47316
378 1 8.93186 5.6789 0.304697
379 1 9.06751 4.63589 2.75673
380 1 8.23704 3.80082 4.52291
381 1 5.08243 7.49371 8.07753
382 1 0.779747 6.591 7.32385
383 1 3.36079 5.25546 8.66184
384 1 7.93689 1.03818 6.22862
385 1 3.29999 7.62864 9.23983
386 1 2.06901 0.623337 7.3137
387 1 7.25518 3.50885 5.88546
388 1 3.69431 3.29397 4.46056
389 1 8.59399 3.17764 9.29024
390 1 5.13991 8.09215 2.78559
391 1 6.38136 1.3919 7.05177
392 1 8.89168 6.53497 5.56666
393 1 3.5037 7.50165 1.97231
394 1 1.60579 8.1415 4.91312
395 1 7.78925 8.43787 7.6598
396 1 0.431357 0.366212 4.49085
397 1 0.479322 0.451346 0.998064
398 1 0.108096 2.38008 1.45507
399 1 6.72933 5.71666 3.57653
400 1 0.975698 2.37096 1.12201
401 1 1.59522 1.0742 5.77332
402 1 6.21256 9.10188 8.37063
403 1 0.805028 1.33073 9.07843
404 1 8.32497 4.92511 4.25573
405 1 2.10339 9.13368 7.33902
406 1 2.77801 4.75256 3.85524
407 1 7.15465 8.48108 1.13365
408 1 8.72377 4.22399 3.75455
409 1 0.420196 1.84454 2.77452
410 1 1.5584 1.88712 0.341639
411 1 4.59995 7.90541 3.74795
412 1 0.767464 8.53558 8.99002
413 1 3.15131 5.24355 0.0929023
414 1 2.51363 8.17784 5.21969
415 1 5.94585 0.643675 8.40884
416 1 8.59131 6.11856 7.54785
417 1 2.53259 3.08949 7.53459
418 1 3.63132 3.45052 0.58959
419 1 0.542495 2.4308 7.82505
420 1 8.33119 6.02291 3.31346
421 1 4.18092 5.64508 2.24575
422 1 7.65094 5.53528 1.70979
423 1 6.06855 5.86643 2.95462
424 1 2.42878 5.5172 6.36738
425 1 8.52158 4.20161 6.16233
426 1 3.10098 2.30044 4.3792
427 1 2.99932 1.47711 6.52997
428 1 1.37759 0.437502 4.72971
429 1 8.01205 6.98321 9.2422
430 1 3.22687 9.3722 9.22374
431 1 8.5057 6.08807 6.63014
432 1 0.817969 8.83702 4.75121
433 1 9.07811 2.26093 3.15233
434 1 2.67276 0.192277 0.862745
435 1 0.0740676 6.06714 7.8103
436 1 2.59329 1.47312 1.93581
437 1 8.18243 4.51676 0.473375
438 1 3.07945 3.55876 1.634
439 1 0.841896 1.6218 1.99246
440 1 4.57405 3.05708 4.15766
441 1 5.57262 8.28689 1.09768
442 1 0.536412 7.17711 0.183613
443 1 2.00533 1.92045 5.27763
444 1 3.05869 5.97523 0.840727
445 1 3.93493 6.9919 8.54365
446 1 0.923727 4.62916 5.57722
447 1 6.31164 7.06484 0.474116
448 1 5.74873 3.12131 4.64262
449 1 7.28008 7.18482 1.62097
450 1 3.83769 8.3711 3.75533
451 1 5.99619 6.53895 6.99369
452 1 2.68341 8.30882 8.80444
453 1 7.2078 4.3822 5.68277
454 1 1.73294 2.89942 1.20359
455 1 6.98991 2.30639 8.80228
456 1 4.37887 7.82552 2.3031
457 1 8.83324 5.73768 5.13932
458 1 1.02256 9.09618 1.10573
459 1 3.81178 4.78477 5.40005
460 1 8.04664 3.03562 1.95341
461 1 5.44203 1.15039 0.596053
462 1 2.33175 5.19517 2.48732
463 1 4.81944 5.50794 0.0867601
464 1 8.6885 1.34562 2.59826
465 1 4.79688 1.614 4.45479
466 1 3.47935 6.72526 7.57136
467 1 3.5336 5.62924 7.86599
468 1 6.39323 6.58375 8.8282
469 1 8.27323 9.1871 2.38385
470 1 5.19964 5.62193 0.983378
471 1 8.24211 4.99995 6.32974
472 1 5.74797 3.95182 7.3819
473 1 7.01682 3.71429 3.13924
474 1 1.87704 8.46172 0.722577
475 1 3.06109 7.95272 4.47692
476 1 8.5636 6.41044 1.51743
477 1 7.34717 1.49253 2.79768
478 1 3.68534 2.81069 9.4062
479 1 2.20328 9.37878 4.37021
480 1 7.73349 5.6078 3.94301
481 1 5.87837 2.41403 5.72814
482 1 8.70761 8.6926 7.72002
483 1 1.22702 0.56656 7.72472
484 1 0.592457 6.1071 5.37298
485 1 0.567844 6.66777 3.97457
486 1 1.57394 1.87396 2.50375
487 1 2.6971 8.40697 2.11517
488 1 1.58995 2.78727 5.52088
489 1 2.57488 7.08185 7.78645
490 1 0.396724 7.326 5.73182
491 1 2.08227 4.73801 3.23485
492 1 0.460002 3.7186 3.552
493 1 3.15274 2.21674 0.609186
494 1 7.25651 6.94928 8.45824
495 1 8.28553 8.12545 2.2648
496 1 8.05314 1.18188 9.36002
497 1 8.01682 3.35246 1.02378
498 1 0.231303 4.12539 4.30126
499 1 0.521223 3.29231 7.5434
500 1 6.64774 3.93869 4.93473
501 1 8.35871 2.69585 8.30285
502 1 6.2222 8.65904 2.27028
503 1 2.06411 6.32618 4.6578
504 1 5.23057 6.35111 4.50349
505 1 6.44799 3.11014 8.60896
506 1 8.05813 5.84271 8.48034
507 1 2.54537 3.92687 3.39967
508 1 1.13154 6.84403 4.84228
509 1 8.85771 2.51467 4.09643
510 1 8.96292 6.61932 4.22477
511 1 6.39039 8.02386 6.0475
512 1 8.22048 0.754101 1.60283
513 1 1.15299 9.18539 7.2658
514 1 3.57472 2.19349 2.17295
515 1 6.36816 2.37319 3.75544
516 1 7.40724 4.39296 0.9842
517 1 0.729313 7.70507 4.86641
518 1 1.14228 6.84686 2.77625
519 1 4.24606 5.53554 0.976384
520 1 3.45392 7.98008 5.51806
521 1 9.02259 5.14685 0.99769
522 1 1.43958 2.02821 4.50242
523 1 5.93822 1.12328 1.63817
524 1 2.55952 1.81836 -0.00188793
525 1 5.0456 2.29373 2.50381
526 1 7.68918 8.11956 3.58811
527 1 5.61663 2.47117 1.85493
528 1 9.17031 6.66864 6.89842
529 1 9.18076 1.99581 0.74115
530 1 0.596901 8.34299 1.57027
531 1 7.72448 3.47167 7.3845
532 1 8.64257 4.76791 5.49853
533 1 5.92364 1.37691 6.29685
534 1 8.88584 2.51632 6.32084
535 1 2.63666 5.55467 3.32997
536 1 9.06975 4.08382 5.02925
537 1 6.40869 6.97579 6.02751
538 1 0.633118 3.5985 8.51188
539 1 5.4903 1.08558 2.37376
540 1 3.66893 8.43144 0.29584
541 1 6.54332 4.28578 4.09214
542 1 8.62982 5.78366 4.23118
543 1 8.20365 4.78291 8.10087
544 1 7.5113 0.696721 6.96133
545 1 7.1315 6.46478 3.78997
546 1 0.46847 4.21856 2.76497
547 1 7.99719 8.1375 8.64418
548 1 4.99705 2.52959 5.43623
549 1 1.06553 7.44895 3.68919
550 1 7.41714 5.33256 6.4978
551 1 6.62874 2.88757 5.09504
552 1 6.15916 4.94695 8.23141
553 1 7.23709 1.55955 3.92938
554 1 1.3027 3.67681 6.88825
555 1 7.23138 8.29436 6.76991
556 1 0.6022 1.47807 7.4266
557 1 1.5503 2.95576 8.9838
558 1 2.33151 4.69105 5.97713
559 1 1.73214 4.73944 4.12023
560 1 4.06337 5.4047 6.17679
561 1 3.57869 4.35167 8.65895
562 1 7.01175 5.18729 4.38854
563 1 2.57748 4.66783 0.52958
564 1 1.98556 8.99412 1.80302
565 1 2.58992 4.4547 8.40051
566 1 1.03731 6.05237 3.2239
567 1 0.259984 4.08779 1.00903
568 1 1.68684 1.13381 3.27393
569 1 2.3462 7.16803 6.97153
570 1 7.90269 0.0245216 5.24883
571 1 3.61792 9.16985 2.394
572 1 4.49566 4.38541 5.70715
573 1 4.78208 0.190722 3.39498
574 1 5.74643 4.33455 4.79509
575 1 5.67171 9.26954 7.69132
576 1 7.12703 7.44629 6.1968
577 1 3.96107 8.99488 7.60273
578 1 3.04272 5.00616 6.88095
579 1 8.97554 8.3306 8.83163
580 1 7.20266 0.749886 2.16126
581 1 3.41234 3.26909 5.93769
582 1 3.53876 3.78801 2.44361
583 1 2.38814 5.53119 9.02465
584 1 5.42551 7.46911 1.22463
585 1 5.70192 4.50389 2.16319
586 1 4.83488 8.04216 0.715098
587 1 4.08865 1.43122 0.871855
588 1 8.69063 3.80261 2.30396
589 1 1.13825 6.89602 6.25143
590 1 2.3617 0.925503 0.385896
591 1 6.408 1.12745 2.78453
592 1 4.56459 1.39249 0.00423407
593 1 6.18887 0.336611 2.17429
594 1 8.9759 2.03532 2.24364
595 1 1.54576 7.41876 1.1503
596 1 8.08045 5.47526 2.66177
597 1 9.36009 9.09337 8.34687
598 1 5.87465 1.8844 0.94254
599 1 2.82666 1.10298 7.49061
600 1 2.33912 7.51451 8.9459
601 1 8.13756 4.66475 3.20108
602 1 4.46325 1.03157 7.87
603 1 8.15141 3.68539 5.46129
604 1 8.09168 7.8343 6.20401
605 1 5.49763 3.31705 2.15496
606 1 3.40228 2.8545 8.38932
607 1 5.05058 2.06365 0.537576
608 1 2.57167 3.53702 2.48292
609 1 5.63047 7.73009 4.73342
610 1 5.70842 6.07099 7.7564
611 1 6.40803 0.0604408 9.24669
612 1 1.74735 7.92248 3.56826
613 1 8.50641 2.37401 0.272196
614 1 8.02711 6.51573 4.07003
615 1 5.45008 3.17765 8.67151
616 1 6.70219 4.31435 2.41217
617 1 6.73347 7.35986 5.29088
618 1 1.49452 8.49601 7.62111
619 1 4.74525 7.39956 8.939
620 1 7.90306 1.86731 7.84751
621 1 0.706892 6.92763 1.01784
622 1 1.05474 2.68389 7.0571
623 1 1.63782 8.64966 6.68498
624 1 5.64298 5.83415 0.22539
625 1 8.85364 1.42057 1.60096
626 1 4.79531 4.54481 2.75095
627 1 3.66878 7.20039 4.60587
628 1 7.44936 9.31072 2.96817
629 1 3.30023 1.48152 4.90665
630 1 8.1321 2.77352 2.92389
631 1 4.41094 3.75392 2.53753
632 1 0.148208 8.81963 2.29348
633 1 3.12986 1.26549 3.12639
634 1 7.00857 5.35766 5.61822
635 1 8.22598 8.52142 5.32496
636 1 5.95124 7.57543 3.69936
637 1 6.05247 2.84919 0.012154
638 1 0.279097 1.35623 1.35895
639 1 8.43267 1.33359 5.40639
640 1 4.54355 4.02504 8.52909
641 1 3.76788 1.48213 7.3558
642 1 3.61671 2.85266 1.28145
643 1 3.44489 6.77596 6.65462
644 1 1.90288 7.39636 4.43778
645 1 2.37073 5.26215 5.30018
646 1 2.51515 8.83233 0.148291
647 1 5.44593 6.70494 0.403547
648 1 2.85732 3.9579 9.15697
649 1 3.33314 6.22788 4.4384
650 1 3.89984 2.50958 3.71394
651 1 6.57868 0.107763 2.93707
652 1 6.33764 1.06853 4.56191
653 1 5.7459 6.91829 5.23995
654 1 3.87998 4.45164 6.54702
655 1 7.76346 2.36013 4.25358
656 1 6.89947 0.58538 6.03537
657 1 9.29007 7.69013 7.09753
658 1 5.60169 6.10937 6.116
659 1 8.1788 7.51401 4.2078
660 1 1.57452 1.40644 7.00742
661 1 0.654588 5.33768 1.95821
662 1 6.22728 0.912051 9.31604
663 1 8.41686 8.49017 4.17359
664 1 7.38652 3.78803 0.374097
665 1 3.19454 0.525553 3.6098
666 1 4.55087 5.21985 3.25389
667 1 4.79315 7.06287 4.87663
668 1 8.53925 9.35734 3.2009
669 1 0.126781 5.7762 6.91725
670 1 2.19647 5.36228 7.23306
671 1 2.24915 8.41993 4.37382
672 1 7.81263 9.02702 0.472484
673 1 1.0731 8.87764 2.28163
674 1 7.35205 2.45422 3.36826
675 1 5.96729 4.78802 6.27075
676 1 8.69596 1.51637 6.85418
677 1 5.00632 6.87414 7.08078
678 1 2.7462 2.62815 1.32469
679 1 5.32782 5.28612 2.51399
680 1 5.37308 9.35524 8.81411
681 1 0.511289 5.24849 2.93922
682 1 1.80005 4.48679 5.0407
683 1 2.22447 4.62107 9.12846
684 1 7.28017 5.17298 0.441615
685 1 1.95223 7.32418 5.40151
686 1 7.49419 1.74102 1.54483
687 1 9.31115 2.09958 9.11569
688 1 2.92562 7.38848 5.96085
689 1 5.23223 3.79088 4.12425
690 1 5.09859 4.65041 9.01903
691 1 4.67292 6.34986 0.635577
692 1 8.30041 5.10071 9.07879
693 1 5.06151 5.15632 7.9871
694 1 0.923633 7.70833 7.40326
695 1 3.80044 8.46553 4.66359
696 1 6.93366 7.86042 4.53388
697 1 0.143417 7.17486 1.73143
698 1 8.13603 7.18515 1.86706
699 1 2.89915 3.00911 4.03998
700 1 8.94525 5.39789 8.19281
701 1 3.07823 5.19451 5.84706
702 1 7.72957 7.59781 4.9761
703 1 5.53313 2.56556 7.08601
704 1 3.23572 4.83516 7.89981
705 1 6.40991 3.99052 8.09117
706 1 6.52308 4.78674 0.809643
707 1 2.88366 2.94745 9.1722
708 1 3.23367 1.24603 0.598911
709 1 8.84821 7.944 1.37369
710 1 2.90002 7.06882 5.06485
711 1 3.01642 0.512331 4.57797
712 1 7.68504 6.00672 4.81958
713 1 8.86888 6.94678 2.37429
714 1 5.97989 7.80967 1.93867
715 1 -0.00049594 5.94606 3.66873
716 1 2.95993 4.46695 2.15954
717 1 7.20674 6.01325 8.64936
718 1 6.56931 4.7499 5.0124
719 1 4.6808 0.641401 0.677044
720 1 5.51296 0.882053 7.30482
721 1 7.70013 2.90696 9.25385
722 1 6.83824 5.51472 2.50283
723 1 4.21782 5.29916 4.17643
724 1 5.46875 1.74665 3.79583
725 1 6.86702 7.81016 3.61359
726 1 3.18072 5.20417 4.93843
727 1 1.30592 6.09097 8.31091
728 1 2.49007 1.29323 5.66779
729 1 8.72977 8.73054 1.75758
730 1 4.5851 3.52556 6.17611
731 1 0.131512 8.89894 5.67142
732 1 1.46976 0.349373 2.95193
733 1 3.36343 3.52442 3.37421
734 1 5.38943 2.7576 3.85953
735 1 1.59122 6.79769 7.71939
736 1 5.61733 7.59917 7.26884
737 1 1.9712 6.6354 1.95734
738 1 2.67254 3.89362 0.841655
739 1 0.829539 3.26873 1.25357
740 1 2.31595 9.01227 8.32555
741 1 3.50315 1.27528 2.18811
742 1 2.06729 0.0232032 6.35194
743 1 1.89245 2.0263 3.41255
744 1 4.01395 0.701243 2.8076
745 1 5.39159 4.72892 3.44141
746 1 0.856633 6.52897 1.73557
747 1 4.65433 2.91818 9.37449
748 1 8.00617 0.787254 2.66933
749 1 8.85044 4.3713 9.2055
750 1 9.39496 4.98498 4.55574
751 1 4.34355 8.68072 3.00865
752 1 3.53317 2.81679 5.27785
753 1 0.486722 8.846 7.67719
754 1 0.392383 2.73203 8.91401
755 1 2.26072 8.89315 3.5797
756 1 7.69341 3.30996 3.78631
757 1 7.29826 6.99387 2.51611
758 1 3.17354 6.76555 1.36541
759 1 7.81527 5.03543 5.11812
760 1 3.16041 8.72691 0.994626
761 1 6.11651 0.782644 5.37989
762 1 4.89558 4.09927 1.83419
763 1 1.39057 0.952073 2.33927
764 1 2.93032 9.22637 1.85242
765 1 6.11544 5.08298 3.95947
766 1 1.61233 5.59578 0.10816
767 1 9.24741 0.0320216 7.39215
768 1 8.14589 0.338023 9.2585
769 1 3.79893 8.45431 1.84894
770 1 6.06034 2.14941 8.9675
771 1 6.65252 2.96248 1.70433
772 1 4.78417 1.49432 7.20816
773 1 2.43288 3.11543 8.40566
774 1 1.60685 8.30735 8.65263
775 1 5.59656 4.76311 1.28862
776 1 0.648156 8.62591 6.8158
777 1 2.43975 0.357143 5.47022
778 1 6.33598 5.48699 6.96098
779 1 3.58648 5.36574 1.60602
780 1 8.81578 0.635425 4.70303
781 1 8.62917 5.2275 7.23567
782 1 7.53191 5.88431 0.833452
783 1 4.48338 0.0853822 2.40503
784 1 6.83927 7.737 8.92955
785 1 4.26848 7.76468 5.05828
786 1 4.56802 8.83136 6.71651
787 1 4.43479 7.26114 3.07449
788 1 5.05235 7.757 5.68915
789 1 0.142615 6.04167 1.57515
790 1 6.33167 4.19275 1.52784
791 1 0.492907 5.20806 1.09481
792 1 5.30291 8.35499 8.77596
793 1 6.6347 5.88494 1.1606
794 1 6.95636 8.80907 3.7455
795 1 0.972371 4.19119 4.74331
796 1 1.4513 6.64715 0.39082
797 1 7.75659 1.16953 0.875545
798 1 9.198 4.46122 6.71888
799 1 2.83676 2.23494 5.33389
800 1 6.69943 4.71889 9.21946
801 2 6.03548 6.4114 3.69135
802 2 5.42862 3.6667 1.31491
803 2 8.66474 1.06048 0.660265
804 2 0.172407 4.70924 0.168581
805 2 2.33096 6.67337 6.00611
806 2 3.52554 8.81976 8.50771
807 2 2.10889 6.7696 0.95279
808 2 1.50121 0.0140273 5.58638
809 2 3.73444 0.885626 0.00172786
810 2 8.81398 0.278708 5.72906
811 2 3.87313 5.70491 0.0884833
812 2 5.73151 5.48956 5.29467
813 2 7.21488 3.50257 2.28433
814 2 0.385593 4.65569 8.31549
815 2 5.33085 8.42332 6.15523
816 2 4.23727 0.724384 5.032
817 2 6.6829 1.30471 1.15098
818 2 4.2134 7.55244 6.08997
819 2 0.618646 4.08733 6.5939
820 2 3.04894 6.99767 8.69979
821 2 7.3231 1.05299 7.74425
822 2 7.46789 1.52184 8.68335
823 2 4.51302 2.07498 1.54768
824 2 4.56844 7.20547 1.25595
825 2 3.12028 3.97982 4.32895
826 2 1.33443 0.425309 6.43557
827 2 7.41702 1.68675 4.91576
828 2 4.52469 8.50925 5.59771
829 2 8.54214 1.47775 8.40722
830 2 0.450331 5.01769 6.32885
831 2 0.182534 5.62677 8.89074
832 2 7.62431 4.1008 6.49577
833 2 6.87028 9.27301 1.87129
834 2 1.38804 2.00791 7.667
835 2 5.85567 0.203895 3.45584
836 2 2.38847 0.218745 9.0472
837 2 4.23316 6.99473 2.11918
838 2 6.31541 4.78028 3.09265
839 2 5.23298 0.686619 4.19705
840 2 1.94462 4.33454 2.28182
841 2 1.02026 3.37632 5.9214
842 2 7.29587 6.12565 2.97244
843 2 3.68849 8.33252 6.26022
844 2 6.54864 5.62503 0.0297806
845 2 4.09688 5.28737 7.02784
846 2 4.88426 8.50181 7.55034
847 2 5.91977 2.16638 4.67186
848 2 0.694335 1.20219 4.65427
849 2 5.47043 0.0291755 2.60607
850 2 6.16864 0.47423 6.65113
851 2 7.05826 9.03822 5.28868
852 2 8.72344 0.137454 0.56568
853 2 9.20791 8.2326 5.00939
854 2 5.79763 1.64611 7.56948
855 2 7.31879 6.57763 5.34147
856 2 4.62241 1.20324 1.57234
857 2 4.94624 5.53538 4.67174
858 2 6.87095 4.65303 6.60331
859 2 1.65847 4.04657 5.79038
860 2 7.46898 8.7723 4.51881
861 2 6.41355 6.15405 5.45686
862 2 4.25098 5.19571 8.65051
863 2 4.48406 8.83266 8.39558
864 2 9.1583 3.44271 5.82906
865 2 1.11968 2.01523 6.2747
866 2 1.02615 8.59853 5.75399
867 2 3.11234 8.50203 7.20261
868 2 3.0086 6.85539 0.461694
869 2 4.56623 6.26297 3.66071
870 2 8.11533 3.68422 2.92957
871 2 8.3281 2.91274 4.75813
872 2 0.233478 8.96584 3.98372
873 2 7.0674 1.3028 0.197713
874 2 9.01096 5.59522 6.03075
875 2 8.83942 7.57891 9.16263
876 2 2.58446 2.00925 2.65788
877 2 7.53737 3.31816 4.89152
878 2 5.21994 5.76449 7.01163
879 2 3.09725 0.949221 8.69323
880 2 9.24323 7.15757 4.88922
881 2 7.81797 5.49137 7.5501
882 2 8.19305 6.87196 4.90991
883 2 4.47116 8.91617 4.06358
884 2 4.61845 1.17425 3.52851
885 2 6.86465 4.96092 1.73977
886 2 4.29996 1.99698 5.51007
887 2 2.99923 8.67578 2.93739
888 2 3.3381 1.83052 1.3846
889 2 5.24199 7.1864 2.56856
890 2 8.94182 0.186574 1.52306
891 2 5.23726 8.62428 3.67019
892 2 4.42518 9.14258 1.22133
893 2 1.0329 4.33242 7.55199
894 2 4.30112 3.38564 1.21026
895 2 5.48074 9.11655 6.82358
896 2 4.00643 3.63455 9.0761
897 2 1.99208 7.84044 2.25218
898 2 9.01126 6.92872 3.32416
899 2 1.66344 3.68099 8.10901
900 2 3.88288 7.02449 0.692018
901 2 6.87074 6.29405 6.21801
902 2 3.82112 1.39716 3.8867
903 2 3.42953 5.01846 0.896337
904 2 5.07739 5.11402 5.73096
905 2 7.6412 7.01789 3.39077
906 2 8.52337 7.44255 8.31461
907 2 3.186 5.25109 2.4778
908 2 0.341593 7.29438 2.63465
909 2 0.514488 2.34465 0.395136
910 2 8.3155 3.26147 6.5458
911 2 9.36388 2.56518 7.088
912 2 7.0628 0.859715 5.17032
913 2 7.57119 9.17435 6.99879
914 2 5.36387 6.74903 8.83137
915 2 4.37165 0.36839 8.94747
916 2 3.25256 4.17875 7.16109
917 2 6.87856 2.84697 0.447411
918 2 5.34727 3.84287 2.97244
919 2 7.88066 6.35629 2.15089
920 2 8.16628 0.12148 4.27209
921 2 6.81357 7.88743 7.62361
922 2 0.397673 0.54085 8.13382
923 2 6.09456 3.03782 0.97009
924 2 5.19013 6.64966 1.44148
925 2 0.0380393 0.683622 6.19703
926 2 5.94411 3.7924 9.02168
927 2 2.21099 2.74896 0.488456
928 2 2.43629 3.09351 5.6366
929 2 0.444186 3.18334 6.60755
930 2 2.9715 3.88537 7.97946
931 2 2.45169 1.75438 1.05326
932 2 5.20286 1.90987 6.33947
933 2 0.965796 8.71751 3.33028
934 2 7.67219 0.19349 6.25797
935 2 2.12707 2.67185 4.74178
936 2 8.79204 8.55869 2.81285
937 2 9.37232 1.04219 5.21848
938 2 3.10733 7.18186 3.81831
939 2 9.05112 3.58347 6.87746
940 2 2.70721 7.04207 2.29199
941 2 0.315582 1.25471 0.500033
942 2 2.13762 4.00135 6.62369
943 2 8.78632 3.34257 3.95727
944 2 0.752997 5.53529 8.0181
945 2 0.589912 0.0402456 1.77006
946 2 8.12787 7.33634 0.647387
947 2 2.8332 9.0514 4.88421
948 2 5.694 2.40431 8.18131
949 2 7.63093 0.42825 3.67823
950 2 1.36101 3.9513 3.81532
951 2 5.84251 3.39794 5.49283
952 2 4.96618 2.77338 1.13301
953 2 3.83239 9.02254 5.45711
954 2 4.15072 2.52229 0.716561
955 2 1.73775 3.56295 2.97599
956 2 3.52416 2.72832 6.70187
957 2 0.668827 0.846288 2.93852
958 2 1.64917 8.20733 1.57479
959 2 0.784119 7.09637 8.1725
960 2 0.958523 5.09273 4.70723
961 2 2.0619 8.68739 5.7749
962 2 7.09588 6.62306 -0.00454913
963 2 9.31195 1.22857 3.35869
964 2 5.18635 0.322677 1.69261
965 2 5.52738 0.112357 0.750902
966 2 1.36272 5.1132 0.834522
967 2 1.21231 2.88422 0.412246
968 2 4.16181 6.33903 6.34616
969 2 4.45967 2.0417 7.89364
970 2 7.4591 2.92157 6.60876
971 2 6.38204 3.64282 0.395261
972 2 2.2011 3.63786 1.64053
973 2 4.13256 4.40004 4.52381
974 2 7.92314 0.718584 8.29824
975 2 1.34377 3.62612 2.00685
976 2 5.91379 7.55793 9.14235
977 2 3.4589 4.36992 0.334761
978 2 4.95081 3.23942 7.03846
979 2 3.05199 0.545641 2.656
980 2 5.61109 7.17909 6.36236
981 2 2.26073 0.955825 2.56829
982 2 0.524809 9.13003 0.282582
983 2 3.4295 6.51276 3.41509
984 2 9.39481 8.87535 1.16235
985 2 2.72714 6.16724 5.26936
986 2 3.81628 6.87354 5.61005
987 2 2.50343 6.42113 3.38541
988 2 7.07538 3.79914 8.85539
989 2 2.13937 2.12635 6.13415
990 2 8.13174 3.86049 8.80695
991 2 1.30078 4.23028 1.20925
992 2 3.0223 8.75225 4.03819
993 2 8.78648 4.15187 1.48761
994 2 7.22433 2.59186 2.3263
995 2 4.18938 2.82663 2.13758
996 2 0.217155 4.60397 3.56202
997 2 2.78806 8.00239 3.64659
998 2 4.81197 0.132264 7.31175
999 2 8.84304 2.01337 7.60139