#bin. KALJ data file T=0.5

1000 atoms
2 atom types

0 9.4 xlo xhi
0 9.4 ylo yhi
0 9.4 zlo zhi

Masses

1 1.0
2 1.0

Atoms

1 1 8.01962 6.43169 3.00374
2 1 6.52229 0.560307 1.11658
3 1 3.66053 0.628012 2.74087
4 1 0.641903 0.175204 8.34117
5 1 0.846753 3.06272 0.513365
6 1 1.64465 7.90748 3.14432
7 1 0.222165 3.8202 7.0066
8 1 0.671749 0.610233 4.10207
9 1 3.21121 4.75499 3.50189
10 1 3.5198 7.4755 1.90873
11 1 1.01917 8.29673 4.31698
12 1 7.70133 5.80997 8.06088
13 1 1.01651 7.9269 8.93515
14 1 1.50662 5.07992 2.87578
15 1 0.682991 2.49418 8.2812
16 1 2.90444 5.15249 1.01037
17 1 1.22811 8.65363 1.00961
18 1 4.92414 8.47489 4.8022
19 1 6.89989 7.45366 3.54762
20 1 0.240965 2.01267 1.40732
21 1 1.08648 3.14495 8.98488
22 1 2.61407 2.51421 4.0731
23 1 0.706811 5.33277 3.79334
24 1 1.96658 6.26069 0.848584
25 1 1.02962 3.63353 7.9827
26 1 8.46296 6.96953 5.98656
27 1 5.20932 7.31243 3.57818
28 1 3.30698 0.209452 4.63431
29 1 3.5649 4.30467 7.96163
30 1 6.45354 7.23027 6.25616
31 1 6.59263 5.9821 6.7814
32 1 4.57756 7.58838 4.38434
33 1 2.28636 6.34214 4.22513
34 1 7.35066 1.94885 2.01326
35 1 6.97098 5.55473 2.99571
36 1 2.50162 3.90343 5.2731
37 1 4.68724 4.67777 1.49004
38 1 6.17408 8.80105 0.57513
39 1 2.94676 8.60552 8.83022
40 1 6.78448 7.5505 9.11587
41 1 0.370521 7.04585 3.50386
42 1 2.34529 4.86353 3.1223
43 1 8.08647 8.91192 4.82226
44 1 5.44318 7.26545 4.51597
45 1 4.76063 9.31397 5.86164
46 1 2.2552 6.4755 7.09777
47 1 9.28505 3.02183 3.20068
48 1 4.34549 9.20729 8.06639
49 1 1.80338 8.73891 7.42877
50 1 5.22041 6.06257 0.217276
51 1 3.77867 2.45556 3.96004
52 1 8.94398 2.66213 4.19773
53 1 4.10686 4.99805 8.60996
54 1 5.88459 1.10962 6.34676
55 1 7.80573 3.30815 8.85624
56 1 0.103617 1.44136 8.29928
57 1 2.32645 7.21404 4.48649
58 1 7.52597 0.864555 5.54528
59 1 1.98601 3.68403 5.99917
60 1 0.277658 8.45198 0.0413542
61 1 2.653 4.80429 5.59232
62 1 6.72697 1.83933 6.35308
63 1 0.252616 0.110923 6.45853
64 1 8.38381 5.06453 0.65989
65 1 2.91715 6.11291 7.97281
66 1 5.79792 3.68406 0.636316
67 1 5.71291 2.62876 5.09455
68 1 2.88511 9.06373 7.09341
69 1 7.76048 3.44686 1.30126
70 1 9.01194 1.64054 6.9368
71 1 6.80952 3.30427 6.13414
72 1 1.28146 2.90189 4.77259
73 1 3.78799 4.74045 6.60851
74 1 4.86348 6.39933 4.67825
75 1 7.85871 3.36601 5.43681
76 1 4.728 9.0208 2.08743
77 1 5.55766 4.95776 5.98828
78 1 3.581 1.21629 6.21418
79 1 8.70006 4.68322 4.66193
80 1 3.21716 0.129778 5.48045
81 1 2.81936 2.45966 6.7056
82 1 2.20174 1.03719 6.77147
83 1 0.873604 1.17765 1.87888
84 1 8.768 7.14043 5.14422
85 1 1.75965 8.97086 3.87939
86 1 9.22209 7.08914 1.56892
87 1 0.44037 6.70696 2.21674
88 1 1.05715 9.25939 6.57137
89 1 1.91316 0.41599 3.12065
90 1 5.35605 3.41224 6.55284
91 1 3.38856 3.8211 5.30001
92 1 1.97695 3.49877 9.05843
93 1 1.10156 3.74985 6.18235
94 1 0.678985 2.8788 2.24235
95 1 8.14143 2.85237 2.16426
96 1 6.87203 1.21369 2.47866
97 1 5.78698 6.51973 4.62775
98 1 5.52876 2.92325 9.14957
99 1 4.0884 3.89542 5.91183
100 1 0.0532363 8.9337 7.19652
101 1 7.07039 1.89277 5.53479
102 1 3.16169 4.18345 6.05963
103 1 0.595739 7.40432 4.29532
104 1 9.28741 0.214567 1.68251
105 1 8.54274 8.57313 0.370635
106 1 3.03839 2.04026 8.86743
107 1 7.062 6.24819 0.409586
108 1 7.36555 3.23581 4.54791
109 1 6.06909 2.70924 2.2814
110 1 7.84308 3.99371 3.01998
111 1 2.25266 8.01585 3.80739
112 1 1.39777 1.41342 6.67879
113 1 6.87587 3.72665 2.99154
114 1 6.87487 3.2163 8.64673
115 1 0.832376 2.79725 6.3435
116 1 2.31369 6.90774 1.58952
117 1 2.87391 1.05273 3.05282
118 1 3.59783 9.05162 6.38358
119 1 7.26463 5.43085 7.30869
120 1 1.39394 2.12017 6.16512
121 1 2.62536 0.376634 7.55396
122 1 5.74834 5.69926 7.01583
123 1 2.03129 8.67844 9.11105
124 1 7.28884 8.04327 5.91187
125 1 6.3082 1.82466 2.13037
126 1 4.3944 4.03887 7.5696
127 1 6.55244 6.00136 4.9285
128 1 8.48382 6.99831 3.62786
129 1 1.42751 3.69695 0.434028
130 1 1.5171 9.11531 8.30772
131 1 5.01375 2.55208 8.0586
132 1 6.72043 7.25583 8.26361
133 1 1.16636 5.73206 1.22791
134 1 4.21029 3.27336 5.15902
135 1 1.15687 6.68678 1.42219
136 1 9.17869 0.461878 7.97681
137 1 1.42734 6.39388 8.04612
138 1 6.03324 5.77285 8.23876
139 1 0.291826 0.876085 7.03421
140 1 6.59993 4.26047 8.42477
141 1 2.6228 0.545866 2.32466
142 1 1.82523 8.02507 8.30266
143 1 1.61067 6.63587 6.33484
144 1 6.40564 7.29712 4.62374
145 1 3.74232 5.6644 4.44297
146 1 4.38828 3.99963 8.45105
147 1 0.889806 4.68679 1.86788
148 1 1.33896 6.08651 2.7264
149 1 8.33049 4.266 3.85723
150 1 4.74318 1.22166 4.85259
151 1 2.05436 5.83809 6.43169
152 1 7.29463 7.91291 6.92613
153 1 7.51252 1.86448 1.04173
154 1 1.18826 6.08962 8.83406
155 1 7.53839 6.90281 3.87379
156 1 7.15297 8.03867 2.43434
157 1 1.13795 2.33167 0.812802
158 1 8.89407 0.61425 5.01116
159 1 7.27145 0.625324 4.02845
160 1 0.171044 3.05152 8.78948
161 1 2.51815 0.859751 4.04563
162 1 2.03079 5.80012 7.76118
163 1 3.05515 5.76651 3.91986
164 1 3.68374 5.4497 0.692386
165 1 5.1476 1.69634 0.856584
166 1 4.50685 6.86116 2.07921
167 1 4.7121 4.26048 6.58705
168 1 6.66224 5.36051 3.94135
169 1 2.63764 8.99308 6.0089
170 1 1.94006 5.63579 9.12113
171 1 1.91798 6.60427 0.0432566
172 1 5.76143 3.22993 7.42018
173 1 3.98989 9.34116 9.24532
174 1 4.94634 6.40362 7.85963
175 1 0.897363 2.55117 3.90915
176 1 4.39739 5.83138 8.37137
177 1 7.19889 9.09646 7.77788
178 1 9.22223 2.68506 5.07616
179 1 8.37289 5.25694 4.02728
180 1 0.897369 5.46726 7.91011
181 1 5.58375 6.06718 1.08893
182 1 2.19486 6.2254 5.08188
183 1 0.728897 8.04683 2.40236
184 1 0.678546 0.0749309 1.06378
185 1 0.491255 6.85049 8.34073
186 1 7.76905 9.34202 5.66678
187 1 7.58165 2.96334 0.256053
188 1 7.16938 1.15762 4.8252
189 1 3.83477 7.47481 8.6528
190 1 8.47991 1.218 8.9129
191 1 3.42882 2.55987 2.78638
192 1 7.98197 7.8802 0.860481
193 1 8.19381 7.14334 4.49644
194 1 3.53592 0.939063 9.31709
195 1 7.43887 3.84434 8.18047
196 1 1.74285 7.58206 6.32899
197 1 6.96887 8.40309 3.70754
198 1 6.1394 0.264445 5.86399
199 1 0.639301 0.0356475 5.38049
200 1 3.67105 6.15637 1.36793
201 1 5.39939 2.37001 7.15641
202 1 4.75862 8.5823 7.58642
203 1 2.44375 6.62936 6.01013
204 1 8.49123 6.12813 7.59742
205 1 8.7614 7.64356 0.425707
206 1 7.53292 8.74816 3.03498
207 1 4.98836 4.42237 4.20673
208 1 8.51403 7.67031 7.5527
209 1 7.84819 3.27992 6.62443
210 1 3.44123 0.624867 1.63801
211 1 5.7749 0.199069 3.58068
212 1 5.35331 1.49169 1.78428
213 1 0.630307 9.03514 3.81154
214 1 7.61504 4.67605 1.17456
215 1 7.4436 4.74302 2.5942
216 1 0.261192 1.79371 4.76884
217 1 3.4635 2.72868 0.635949
218 1 0.551312 5.87943 4.72827
219 1 6.67633 6.33621 8.9102
220 1 2.12777 5.11426 8.37463
221 1 5.90217 4.65504 6.85387
222 1 8.82464 3.3782 1.24297
223 1 2.44016 3.6088 1.6432
224 1 8.53394 2.58317 6.92878
225 1 8.94039 8.97548 5.19993
226 1 5.27165 6.98175 0.47778
227 1 8.69763 7.7653 1.77447
228 1 3.40644 0.734534 3.81896
229 1 3.12946 3.69207 1.09665
230 1 3.80695 6.18802 7.31953
231 1 6.66309 4.23073 4.95962
232 1 0.645242 4.5441 6.35521
233 1 2.96043 0.87651 0.645737
234 1 0.683782 2.50204 5.33707
235 1 3.64843 2.76353 7.10427
236 1 5.54971 6.86561 8.5021
237 1 7.98457 1.02907 1.51344
238 1 9.14298 3.68303 3.8377
239 1 8.77031 2.04186 8.25438
240 1 5.46283 8.84278 8.8108
241 1 7.67601 7.076 1.92482
242 1 4.67623 2.76802 0.376957
243 1 6.87329 4.59169 4.15427
244 1 9.01192 3.96725 8.86535
245 1 5.4322 7.92086 0.39609
246 1 6.77232 7.50707 1.52261
247 1 9.1498 8.15127 1.06381
248 1 8.43756 6.76012 8.86776
249 1 7.20306 4.20554 0.522265
250 1 2.09131 3.4521 8.05526
251 1 -0.000304215 0.0960031 4.42896
252 1 4.01503 8.57101 4.63706
253 1 1.24172 5.95001 6.85737
254 1 7.66713 0.0292984 7.14848
255 1 3.29005 1.60281 1.36129
256 1 0.249294 6.47202 0.170499
257 1 2.53973 8.01028 2.68434
258 1 9.40722 0.189608 3.39174
259 1 2.45115 7.98144 7.68238
260 1 5.03767 6.99408 6.25325
261 1 5.42328 2.32064 1.46125
262 1 1.76522 2.81985 6.72091
263 1 1.54174 7.89721 7.38402
264 1 4.38965 2.37121 6.73563
265 1 8.52563 3.44082 7.30938
266 1 0.0583363 7.11955 5.91937
267 1 1.61803 3.88141 4.66931
268 1 0.8738 8.49813 7.72853
269 1 4.15849 4.30203 4.87281
270 1 5.45219 1.56393 8.73734
271 1 0.943616 7.15251 2.82475
272 1 6.42238 9.11252 8.91826
273 1 5.32684 5.34311 4.46591
274 1 0.719741 7.79339 1.49752
275 1 2.73783 1.5481 6.12656
276 1 1.9175 3.29665 4.04141
277 1 5.28969 0.785284 4.076
278 1 5.83435 7.4079 2.17033
279 1 2.64896 8.89714 4.03083
280 1 6.08428 9.33893 8.0511
281 1 6.57471 7.96933 5.43141
282 1 1.19504 3.56276 1.53334
283 1 4.86013 8.45544 9.32182
284 1 7.59641 2.4237 4.89423
285 1 1.53815 2.78858 7.76858
286 1 6.43009 2.15381 1.208
287 1 0.863412 1.41778 5.53958
288 1 2.66903 6.07361 1.49062
289 1 7.0382 8.84484 6.89029
290 1 8.30361 5.5546 3.18012
291 1 3.98815 2.40147 8.43526
292 1 6.78889 8.99941 6.0307
293 1 3.54894 1.8147 3.25704
294 1 7.30728 0.882243 0.313392
295 1 3.99665 1.42922 0.398818
296 1 4.93426 7.92052 1.86286
297 1 5.8339 0.727524 7.5613
298 1 3.62032 9.11226 2.7094
299 1 7.88693 0.774207 8.06341
300 1 9.11312 9.01355 2.26874
301 1 0.0389037 6.0035 7.98292
302 1 1.80995 3.00089 1.05384
303 1 6.29521 6.03336 3.3478
304 1 4.75195 7.50874 2.65082
305 1 6.80116 2.66064 5.24731
306 1 7.08625 3.93182 6.93639
307 1 3.97596 1.09361 4.27168
308 1 4.82489 7.13175 5.17581
309 1 2.4759 8.79288 8.09395
310 1 7.72174 4.79942 3.41757
311 1 4.15818 8.46965 1.46489
312 1 3.31941 8.29294 2.25689
313 1 0.435078 5.60428 0.357601
314 1 3.40291 7.78968 7.80965
315 1 1.75856 4.30401 8.69425
316 1 2.46495 2.71685 7.44841
317 1 2.17806 2.63858 8.47316
318 1 0.851674 3.55969 5.12271
319 1 6.03191 3.72864 2.32907
320 1 4.11343 7.17121 3.76031
321 1 4.86843 5.37008 7.78197
322 1 3.33697 1.93437 7.84384
323 1 6.18029 3.57786 6.5707
324 1 4.20909 8.09233 6.41572
325 1 7.89564 8.88682 9.03621
326 1 5.21218 3.728 3.01635
327 1 7.85009 9.05154 3.85472
328 1 3.94832 9.28941 1.74421
329 1 4.01743 4.5732 4.0598
330 1 5.02267 4.58208 8.16992
331 1 1.16922 7.4144 7.95803
332 1 7.76708 4.63342 8.51927
333 1 7.7951 7.91997 3.98413
334 1 3.66608 3.99563 8.87176
335 1 2.52937 4.38052 4.37165
336 1 9.03845 5.3137 7.3334
337 1 1.53765 0.10865 0.650179
338 1 4.61091 3.21066 7.28126
339 1 6.13945 8.53819 3.5116
340 1 7.84373 7.99549 9.35767
341 1 1.51875 2.00047 8.43906
342 1 3.15703 6.92526 7.44707
343 1 7.64815 7.01036 5.94929
344 1 5.92743 6.3981 1.87335
345 1 0.831363 4.13556 9.06575
346 1 0.148369 1.42547 2.44718
347 1 7.98829 6.41515 5.29242
348 1 8.01282 0.675472 3.29796
349 1 6.72691 3.09336 7.60744
350 1 5.11402 8.02369 6.77676
351 1 5.7205 2.05866 0.132221
352 1 5.0958 3.7305 8.9991
353 1 8.17591 5.01504 6.01717
354 1 3.73304 1.96604 4.85255
355 1 5.28315 4.21699 7.32334
356 1 4.8322 9.01364 4.08332
357 1 4.92968 6.26463 6.88202
358 1 4.27557 8.4948 3.79302
359 1 3.28363 7.70505 9.28693
360 1 8.66841 1.15521 2.73324
361 1 8.50606 0.0370144 6.21579
362 1 6.94301 5.35963 9.0737
363 1 2.77488 3.47196 4.08817
364 1 4.67476 5.32757 0.682991
365 1 7.80871 9.11928 2.07688
366 1 6.09354 8.56141 6.29994
367 1 2.55298 2.52138 1.4312
368 1 7.63935 7.45508 3.01249
369 1 0.254667 7.74543 8.26181
370 1 1.91153 1.5978 1.63488
371 1 1.51507 0.560175 1.38005
372 1 8.78599 7.80309 5.87103
373 1 1.91313 1.28079 5.64143
374 1 9.23192 6.63637 4.34578
375 1 7.53877 7.31633 8.61303
376 1 5.6936 9.01289 2.85216
377 1 8.48189 3.1957 9.40707
378 1 0.839222 4.35846 5.39931
379 1 2.35929 4.51699 6.46598
380 1 3.86018 1.01297 5.20146
381 1 4.0799 7.0347 6.8758
382 1 6.75653 1.40424 9.03487
383 1 4.77667 0.231771 8.92134
384 1 0.0690196 8.33451 6.46035
385 1 8.89648 0.977254 3.56324
386 1 7.4304 5.61514 6.35654
387 1 5.8296 5.29196 3.72555
388 1 1.75067 2.51345 3.76033
389 1 4.02119 6.6847 7.96826
390 1 2.427 5.3693 4.79762
391 1 2.97665 6.69241 0.0441744
392 1 3.77142 0.56345 8.56637
393 1 7.68921 1.7275 2.87955
394 1 6.25648 1.70522 7.14555
395 1 1.9263 1.21213 2.67784
396 1 7.4799 0.350314 1.19854
397 1 2.08226 4.96376 0.863119
398 1 4.80135 2.14291 2.46456
399 1 6.07433 0.908687 1.81791
400 1 6.30615 4.35245 6.01744
401 1 6.73994 3.32533 0.100209
402 1 5.42425 2.0775 4.2885
403 1 2.76556 4.47714 1.60342
404 1 9.22906 9.27841 0.609975
405 1 0.54217 1.75534 7.54737
406 1 4.06034 5.17851 7.39218
407 1 3.28326 7.80241 5.89366
408 1 6.15598 8.22883 9.18265
409 1 7.92375 8.53535 7.4817
410 1 8.47204 0.379302 8.61066
411 1 1.42979 6.95359 7.24012
412 1 2.67134 1.08886 9.07104
413 1 7.43746 1.32789 6.36265
414 1 8.93885 4.31112 1.25374
415 1 3.39133 6.37893 2.22007
416 1 0.975104 7.04862 9.21392
417 1 0.373112 5.30946 1.26434
418 1 8.97174 2.32241 2.73671
419 1 8.20164 3.07009 3.05061
420 1 8.01628 4.16816 9.19218
421 1 4.48972 9.07781 3.04114
422 1 2.12236 1.50764 3.64034
423 1 3.14437 1.73309 2.39898
424 1 1.85094 8.27426 2.02443
425 1 8.17066 8.36467 5.51132
426 1 0.881305 5.61549 2.12571
427 1 6.17747 2.02703 3.8684
428 1 1.39005 7.40028 2.09965
429 1 1.46058 5.88496 4.13815
430 1 5.66757 4.31189 1.35724
431 1 3.12963 9.22994 1.92006
432 1 4.49833 6.28906 5.93166
433 1 5.75869 7.31342 7.75449
434 1 2.4164 6.30958 2.59193
435 1 1.06936 8.03004 5.62848
436 1 3.00821 4.35496 7.0939
437 1 6.3816 8.90066 5.07939
438 1 6.55488 1.11524 4.14544
439 1 8.66637 8.62052 6.81291
440 1 6.20781 1.28381 8.21459
441 1 2.87321 3.76987 8.36849
442 1 7.89946 7.53418 5.23258
443 1 -0.0286093 2.42998 7.30118
444 1 6.94353 3.01336 1.0394
445 1 8.98839 5.43932 2.73543
446 1 3.8624 7.03024 5.91955
447 1 3.36089 8.94948 0.514653
448 1 5.00802 4.86361 2.30594
449 1 6.74548 2.16204 7.92282
450 1 3.83375 5.73818 3.43854
451 1 0.981914 2.03853 9.19737
452 1 3.2005 6.78037 6.43242
453 1 6.55311 8.17535 4.45934
454 1 2.30102 1.81517 0.722351
455 1 1.44625 3.11067 3.09417
456 1 8.21336 2.44772 8.80211
457 1 1.91108 5.21245 7.01736
458 1 7.49589 4.74422 5.63655
459 1 3.09931 1.75205 0.22357
460 1 9.14104 5.64601 3.85119
461 1 0.728257 0.823401 6.18152
462 1 7.29614 7.49196 4.55651
463 1 0.263927 5.8232 8.86382
464 1 5.02127 0.574436 3.16159
465 1 2.26277 3.06396 4.85818
466 1 8.47065 5.06567 8.09208
467 1 3.25565 3.36256 2.41478
468 1 0.873991 8.27731 6.82215
469 1 2.15992 5.72169 3.42868
470 1 9.09929 5.4438 6.46543
471 1 0.316419 6.35122 1.1579
472 1 3.40458 2.94601 1.56383
473 1 8.56601 3.76248 6.343
474 1 3.98647 8.62121 5.5243
475 1 8.13167 5.35511 6.9677
476 1 6.22593 7.80443 2.94133
477 1 2.81753 2.04842 5.00203
478 1 8.97546 6.41275 6.59103
479 1 2.72738 5.22424 7.54737
480 1 6.3558 8.39627 8.38748
481 1 8.47265 0.942411 5.70064
482 1 0.520544 2.87141 1.31581
483 1 8.07239 7.88365 6.41398
484 1 8.84104 6.08 5.33288
485 1 8.12 3.92835 0.695155
486 1 1.49402 7.56744 4.16274
487 1 8.57029 0.313711 2.50105
488 1 5.23566 3.66455 8.02505
489 1 8.51661 7.9966 3.37151
490 1 2.75795 5.29542 6.55116
491 1 8.9084 0.859201 0.926299
492 1 2.38796 0.938943 1.22453
493 1 7.60032 0.437292 6.38414
494 1 6.96408 2.00757 4.46814
495 1 6.75551 9.31292 3.57144
496 1 1.6682 0.363507 5.94062
497 1 9.1885 4.5805 6.57552
498 1 5.02666 1.00949 9.31959
499 1 7.36608 3.75112 3.73629
500 1 3.88618 6.84323 2.91989
501 1 9.22034 4.86628 1.95326
502 1 9.22509 1.41379 0.0378649
503 1 2.42857 4.18119 0.724349
504 1 2.10744 8.80881 2.8849
505 1 4.54494 4.79071 5.83094
506 1 2.33674 7.33292 9.34766
507 1 4.71497 0.0939018 1.33336
508 1 0.0435337 8.03685 7.39419
509 1 4.46992 6.22719 0.785782
510 1 6.01773 1.11042 3.56245
511 1 4.54052 7.93615 5.5163
512 1 4.46487 2.92593 4.17135
513 1 2.01613 0.358663 4.82786
514 1 8.20996 7.93035 2.50998
515 1 3.61775 3.13313 5.82829
516 1 1.13361 2.36325 7.0517
517 1 5.82988 2.1493 2.92386
518 1 4.82285 3.72092 4.68826
519 1 4.58411 1.99384 9.39217
520 1 4.02287 2.31033 1.88113
521 1 3.24332 4.77373 0.159729
522 1 4.74286 0.398716 7.20814
523 1 6.69447 4.79073 7.22298
524 1 2.76413 0.121342 3.41437
525 1 0.109458 7.44014 9.31073
526 1 5.964 0.950186 0.17038
527 1 8.36091 2.19181 4.49326
528 1 2.70246 3.94035 3.33009
529 1 9.23662 7.19214 2.69674
530 1 4.07823 7.87031 3.14273
531 1 0.780195 8.30114 3.23391
532 1 8.71028 4.06846 2.99445
533 1 8.87653 3.42232 2.36441
534 1 8.54845 2.58428 5.83897
535 1 1.02267 0.574582 2.65195
536 1 6.69536 7.02602 2.2212
537 1 9.06614 5.07791 5.55232
538 1 8.79889 4.83788 8.91762
539 1 8.53874 1.8206 3.61994
540 1 4.04405 1.55207 8.70304
541 1 3.27905 7.22427 0.880626
542 1 3.8983 5.54902 5.42887
543 1 4.50717 3.81028 3.74434
544 1 8.22865 1.85894 6.49454
545 1 4.64003 8.24627 8.57205
546 1 6.98375 2.95342 3.75483
547 1 4.03775 6.59703 4.8059
548 1 5.67171 5.37569 2.86344
549 1 4.19045 0.162138 5.26668
550 1 7.71551 8.69958 6.41464
551 1 4.4461 4.03875 2.67784
552 1 6.89437 0.529209 8.23927
553 1 2.37022 5.18446 2.25217
554 1 3.96762 1.52275 2.4692
555 1 9.01477 4.34607 7.49433
556 1 7.8218 2.54972 3.83575
557 1 4.97875 5.1334 9.07045
558 1 7.49635 5.11479 4.33658
559 1 8.59148 3.55375 4.61105
560 1 5.63511 8.38657 7.72543
561 1 1.08012 3.84427 2.54533
562 1 4.32232 0.264526 3.66607
563 1 3.68598 1.74228 6.95771
564 1 4.80659 7.26263 8.15279
565 1 6.29859 0.268553 4.58982
566 1 6.38129 5.65738 0.85186
567 1 6.01305 2.29157 5.89481
568 1 0.64536 8.69686 5.96277
569 1 7.0563 1.36357 7.9245
570 1 5.68408 9.3594 1.19546
571 1 6.95677 8.97249 1.73767
572 1 2.26582 1.03072 8.28058
573 1 1.29671 0.602739 6.87154
574 1 7.09272 0.740773 7.26088
575 1 3.43106 7.69399 6.99611
576 1 7.76004 0.972229 2.35527
577 1 4.24579 3.27097 2.20644
578 1 3.77487 3.99763 1.79366
579 1 5.84537 6.63162 6.59857
580 1 8.27708 5.99852 6.06753
581 1 7.57322 8.2876 1.67434
582 1 3.23789 1.25318 8.42617
583 1 5.46569 7.8285 8.50195
584 1 0.407434 6.03375 5.68161
585 1 3.88441 5.82677 6.46006
586 1 8.38225 1.87288 1.80825
587 1 1.13256 1.45561 0.954019
588 1 7.04849 8.41664 -0.0328027
589 1 4.20059 8.1498 2.34523
590 1 4.78145 5.40607 3.64862
591 1 2.24507 4.03494 2.38108
592 1 1.68371 2.80864 0.0947736
593 1 0.473384 6.09844 3.03792
594 1 1.60138 1.15544 8.87908
595 1 1.34107 2.51059 1.74748
596 1 7.12778 6.8129 6.67143
597 1 3.37876 8.21032 4.07163
598 1 5.33796 6.38787 2.62391
599 1 5.4765 5.64496 1.9936
600 1 3.58397 2.86216 9.04787
601 1 1.29068 9.1717 2.79089
602 1 1.09917 3.35264 7.12929
603 1 2.35442 4.76588 9.31264
604 1 0.309078 3.7062 1.9118
605 1 7.39213 1.96364 7.03114
606 1 4.30232 7.78565 7.45903
607 1 8.76156 6.74842 0.335743
608 1 1.80612 3.18479 2.24433
609 1 5.23912 1.5976 3.50029
610 1 7.55551 2.82954 8.14245
611 1 3.93215 0.372104 0.645507
612 1 7.98151 5.06376 9.235
613 1 1.50573 4.68333 0.152886
614 1 8.40733 0.591683 0.179208
615 1 5.21227 0.72421 0.998637
616 1 6.83949 3.1406 2.10807
617 1 5.94476 3.93993 8.96361
618 1 7.37634 6.76237 1.09923
619 1 2.20949 1.67438 4.53843
620 1 5.13663 1.60327 7.75092
621 1 1.55775 7.10971 0.663973
622 1 8.86266 1.70472 0.933328
623 1 7.68236 6.19377 7.16984
624 1 7.48778 4.00491 6.08127
625 1 3.6939 4.73905 5.51735
626 1 0.670987 4.6096 0.508124
627 1 5.72059 5.03091 7.71398
628 1 3.80902 8.49366 8.20437
629 1 4.35986 1.01434 1.23486
630 1 2.17982 2.25081 5.70573
631 1 2.33711 3.19325 3.24881
632 1 1.84687 7.84197 1.11653
633 1 1.1886 6.15269 5.31505
634 1 4.67428 7.96409 0.905585
635 1 2.8243 8.19762 0.568813
636 1 4.43136 5.59873 1.56765
637 1 2.87818 1.10896 5.11009
638 1 1.2085 0.858111 4.92897
639 1 3.2158 3.49365 7.52358
640 1 8.74289 1.74061 5.27006
641 1 3.48966 2.19387 6.0318
642 1 5.46025 6.49118 5.76307
643 1 0.682232 6.57957 6.565
644 1 3.18332 5.4043 1.75158
645 1 7.05432 9.13539 4.38258
646 1 1.74584 5.00986 5.32726
647 1 6.62833 6.64519 4.07158
648 1 6.07419 3.46753 5.63324
649 1 0.305537 6.81849 4.98692
650 1 6.14165 6.8505 1.14866
651 1 3.28967 9.23334 7.93291
652 1 4.36727 1.99766 7.55945
653 1 1.33604 4.26186 6.88046
654 1 2.94733 2.85815 8.16395
655 1 0.979293 4.86777 4.62386
656 1 6.19535 5.13827 4.67376
657 1 9.19995 2.25738 9.23384
658 1 8.38526 8.76882 2.82085
659 1 4.83678 5.61031 5.55378
660 1 4.17605 4.89498 3.14118
661 1 5.93961 8.30177 2.23533
662 1 6.33701 2.38231 8.86996
663 1 2.82086 0.029569 1.02561
664 1 7.88164 1.71484 5.26761
665 1 2.47662 6.28796 8.77717
666 1 3.21335 8.50161 3.19251
667 1 2.73538 3.03219 5.65639
668 1 6.43719 0.0226755 7.18437
669 1 7.07086 1.22551 1.43526
670 1 4.47977 8.93075 0.595278
671 1 1.49395 1.58015 7.56029
672 1 5.47109 9.23572 7.33967
673 1 5.64227 8.96283 4.40934
674 1 6.48587 2.58737 0.35008
675 1 8.03951 6.22214 0.469541
676 1 8.30417 2.45836 0.493342
677 1 6.01853 1.40701 1.08618
678 1 9.2337 8.10682 2.44688
679 1 8.88499 1.36461 4.43925
680 1 1.76568 0.335283 7.67497
681 1 7.48121 5.98192 2.3969
682 1 4.32089 2.40083 5.36725
683 1 4.46529 1.14082 6.92305
684 1 8.4521 5.20394 1.63736
685 1 8.71924 8.73137 4.13652
686 1 9.18499 4.7813 0.526291
687 1 7.24116 2.49215 9.0147
688 1 2.90591 3.73778 9.29886
689 1 5.90359 3.83227 4.79913
690 1 6.57339 3.84674 1.14354
691 1 3.1069 6.84364 8.49878
692 1 7.25883 6.51385 4.67859
693 1 5.83546 8.10378 4.87602
694 1 3.57229 9.17984 3.79678
695 1 3.96897 3.62342 0.372564
696 1 7.45538 2.60547 5.99488
697 1 2.58418 2.75479 2.41072
698 1 4.7384 0.913352 8.33054
699 1 4.44586 5.62872 2.56105
700 1 2.07587 7.11768 2.75491
701 1 7.61337 3.55825 2.20548
702 1 2.78572 1.29681 7.51276
703 1 4.34315 3.12394 6.29463
704 1 0.325217 7.2024 0.751229
705 1 6.62645 7.04705 7.40568
706 1 0.519316 2.32604 2.93059
707 1 6.56239 5.28439 6.37351
708 1 4.15407 3.13257 3.1078
709 1 3.39466 5.30628 8.10195
710 1 8.4015 6.21435 4.14288
711 1 4.45175 6.41303 3.42933
712 1 1.02653 7.1168 5.54288
713 1 0.377913 0.931559 0.968972
714 1 8.32929 4.97947 2.48565
715 1 7.4832 5.89168 1.09544
716 1 1.89772 7.28186 5.26294
717 1 8.79243 8.53718 7.78399
718 1 2.15899 0.0530082 1.76004
719 1 7.40644 5.97988 3.82741
720 1 2.44495 2.10155 3.12037
721 1 0.0132317 0.462232 2.53698
722 1 1.68192 2.93672 5.67466
723 1 6.78179 1.95996 3.15295
724 1 8.75077 5.90214 8.6866
725 1 7.767 4.43711 4.84636
726 1 3.04384 4.72276 8.63025
727 1 6.90609 6.18555 7.73929
728 1 5.86846 6.76827 3.10263
729 1 3.26842 5.66223 9.12408
730 1 3.76698 7.63752 4.96326
731 1 8.12821 7.0159 6.8653
732 1 8.87305 8.04108 8.93815
733 1 3.16572 6.59552 4.57664
734 1 6.03081 3.12545 3.12156
735 1 8.00062 9.12257 8.19295
736 1 2.87667 5.85097 5.81156
737 1 5.78616 0.616829 8.70525
738 1 0.834837 7.89752 0.569658
739 1 5.9397 4.45054 4.1009
740 1 7.55637 7.05232 7.77824
741 1 4.12557 5.57874 9.2815
742 1 6.16819 2.96701 4.25949
743 1 5.23602 8.70806 1.4883
744 1 7.65444 1.61134 3.847
745 1 6.11474 2.65087 6.7032
746 1 6.20471 8.44063 1.4028
747 1 8.0079 0.958421 4.65809
748 1 0.500195 4.76224 7.39519
749 1 5.09524 1.92222 5.30375
750 1 0.968211 9.40269 7.45973
751 1 2.80739 8.50788 4.72942
752 1 9.04614 9.0615 8.55848
753 1 2.10733 8.20672 5.60175
754 1 6.31854 7.81389 0.718822
755 1 5.7127 5.54735 5.32635
756 1 3.79987 3.83947 6.76481
757 1 1.77805 0.996866 0.397095
758 1 4.49861 2.99156 1.30287
759 1 1.74285 4.8291 4.19336
760 1 6.10516 5.46301 9.27237
761 1 8.21045 5.35948 4.99192
762 1 0.562515 7.36822 7.24535
763 1 9.1755 3.86087 0.411806
764 1 5.43725 4.5417 5.15721
765 1 2.38122 7.12362 7.83643
766 1 0.00257546 1.48613 5.90017
767 1 9.21106 0.348317 9.15394
768 1 2.74441 8.27604 6.64981
769 1 6.88326 6.63633 2.99433
770 1 9.29763 2.83478 0.580658
771 1 3.05975 6.05373 6.9424
772 1 1.28999 5.58164 5.98022
773 1 5.38762 6.20023 3.753
774 1 6.97379 0.428437 1.92982
775 1 2.0123 1.99949 6.98979
776 1 0.305875 4.97331 8.97185
777 1 5.9628 3.07289 8.26464
778 1 5.22522 6.6862 1.49005
779 1 5.57572 5.23317 0.640155
780 1 1.54915 6.49743 3.56662
781 1 1.16828 5.07001 8.75177
782 1 3.06286 8.61952 1.30124
783 1 6.16578 6.34265 0.246163
784 1 0.398796 1.00468 3.3371
785 1 8.32588 6.12208 1.99378
786 1 1.54246 4.46815 6.04357
787 1 5.22227 2.915 2.55098
788 1 7.43359 0.28555 8.98243
789 1 0.129233 8.21591 4.11712
790 1 2.68548 5.94019 0.474032
791 1 2.65311 2.76136 9.25485
792 1 4.41102 1.64252 5.83863
793 1 1.04593 1.03973 8.16925
794 1 3.75863 1.00461 7.5755
795 1 4.44672 5.15936 4.79238
796 1 7.44232 5.71744 5.15405
797 1 5.52627 7.50905 1.21652
798 1 8.92352 2.51396 1.70338
799 1 3.21878 3.07585 3.44747
800 1 7.0277 4.16522 1.85921
801 2 1.73169 5.19725 1.71221
802 2 8.13997 4.26009 1.8667
803 2 0.674101 6.37256 7.48619
804 2 0.604359 5.24383 5.33464
805 2 6.12228 1.89189 4.94781
806 2 8.80575 1.28361 7.68621
807 2 0.314022 8.74501 4.82354
808 2 3.77427 6.3809 8.95642
809 2 2.57591 7.35892 6.86848
810 2 4.8707 5.15014 6.74056
811 2 5.64421 0.722773 4.87371
812 2 7.0024 5.14266 8.26488
813 2 1.25895 1.32159 3.44518
814 2 7.65142 3.32715 7.45327
815 2 2.60878 7.90129 1.63185
816 2 4.28183 1.10736 3.29926
817 2 0.123354 2.47877 6.00339
818 2 1.51595 1.94018 5.14589
819 2 2.39754 7.25432 0.780997
820 2 5.26542 0.556888 2.05219
821 2 0.402111 4.70422 2.73676
822 2 3.04778 0.0729293 9.25339
823 2 6.5302 1.08177 5.68617
824 2 9.09532 6.85081 7.47874
825 2 8.91613 5.77212 0.103984
826 2 9.09685 1.26646 1.67865
827 2 8.32726 7.05601 1.26618
828 2 5.8766 6.43815 7.64989
829 2 8.15497 0.870822 7.06099
830 2 2.8283 7.668 8.54273
831 2 8.97913 7.34709 6.75761
832 2 5.7177 7.33242 5.35994
833 2 4.00307 7.04703 0.207843
834 2 2.08756 3.77911 7.11913
835 2 3.62476 8.15716 0.823463
836 2 6.01781 7.5274 3.89532
837 2 1.5041 8.97263 5.56576
838 2 3.58421 3.89884 3.09111
839 2 5.46863 8.64323 5.62406
840 2 5.39013 2.76301 0.773288
841 2 3.47497 2.93575 4.70826
842 2 8.40085 7.10771 2.47007
843 2 4.53782 2.21788 3.56003
844 2 8.9399 6.34407 3.06542
845 2 4.58875 0.385003 4.49242
846 2 0.0470463 3.1022 7.88669
847 2 4.06007 0.363206 6.24384
848 2 7.67726 1.90997 0.136794
849 2 5.4586 4.37388 0.23113
850 2 0.439803 2.03668 0.482461
851 2 5.0362 2.44785 5.9416
852 2 3.78205 3.5245 4.19837
853 2 5.18994 1.7665 6.45856
854 2 4.22386 2.02637 1.06338
855 2 3.11803 7.28753 3.93157
856 2 7.09098 2.82411 6.81916
857 2 6.11129 4.01929 7.59821
858 2 1.37073 2.23163 2.99303
859 2 5.30422 2.7177 3.63181
860 2 3.0695 6.84655 5.48211
861 2 5.23017 5.91654 8.73313
862 2 9.31732 5.96548 1.90012
863 2 5.45401 0.0764605 0.28776
864 2 7.01523 1.11216 3.30218
865 2 2.89854 3.38971 6.67965
866 2 7.99333 1.99162 7.79687
867 2 8.34089 4.11594 8.02752
868 2 8.91958 5.74944 1.03289
869 2 1.21513 6.72402 4.51672
870 2 -0.00779519 4.08686 4.7357
871 2 5.21009 8.1134 3.99635
872 2 6.90851 6.29042 1.69186
873 2 5.1996 0.205048 8.09665
874 2 8.60638 4.21233 5.54754
875 2 5.96341 9.18207 2.04058
876 2 0.740945 1.15516 9.01533
877 2 6.36569 4.9268 1.36114
878 2 7.14606 8.59467 0.984661
879 2 8.44313 8.03442 4.70811
880 2 3.16494 4.51032 2.47463
881 2 5.9968 7.18245 9.35623
882 2 3.05993 6.45757 3.17663
883 2 4.05412 4.85559 2.24956
884 2 9.0184 0.797348 6.42044
885 2 1.68854 6.99706 8.63648
886 2 8.42365 0.163896 1.53034
887 2 7.19535 7.52043 0.540343
888 2 7.24266 8.56228 8.52271
889 2 8.42448 0.331142 4.0405
890 2 6.62736 8.81174 2.58827
891 2 6.34004 5.81595 2.40455
892 2 6.41152 4.72185 0.186686
893 2 0.73157 9.32525 0.0473254
894 2 3.95873 3.23811 8.16464
895 2 3.85815 0.165546 7.11977
896 2 1.56148 0.515801 4.02111
897 2 3.59877 6.30599 0.501469
898 2 9.39368 4.9909 8.19644
899 2 3.63616 4.67447 1.19872
900 2 4.55915 2.96265 8.95928
901 2 8.54551 3.10219 8.23173
902 2 3.0708 1.57877 4.22079
903 2 1.81608 8.61472 6.39048
904 2 2.37039 0.190746 8.60013
905 2 4.50823 1.9337 4.34756
906 2 0.27565 3.8262 2.90816
907 2 5.34688 3.19138 1.64936
908 2 4.99489 3.65012 0.890576
909 2 1.84981 8.10787 4.77953
910 2 8.15532 4.22853 6.95039
911 2 6.75872 0.762991 6.45363
912 2 1.12284 9.32155 4.49186
913 2 4.92163 3.92299 1.91405
914 2 7.12423 5.17365 0.497181
915 2 5.25066 8.23086 2.93836
916 2 0.568449 1.88006 6.59229
917 2 7.00215 0.185824 5.25698
918 2 8.65845 0.0539251 7.22811
919 2 5.47858 3.59587 3.90503
920 2 7.57808 6.33643 9.064
921 2 6.76876 8.31084 7.60323
922 2 4.73704 6.71872 8.85184
923 2 7.14275 9.3908 0.415499
924 2 2.0416 1.99946 9.21987
925 2 6.27326 6.10282 5.91884
926 2 5.29994 3.99755 5.93252
927 2 6.75504 5.26874 5.49597
928 2 8.58466 8.72488 1.53657
929 2 0.323095 4.17748 8.28294
930 2 3.10088 0.610658 6.76829
931 2 0.310123 0.958772 4.89569
932 2 0.794902 8.68124 8.68174
933 2 7.09225 4.07178 9.0808
934 2 1.69679 4.0718 3.57088
935 2 0.393096 5.73443 6.90662
936 2 7.9098 7.16618 0.190198
937 2 0.98551 3.53458 4.1837
938 2 7.47756 4.47829 7.57455
939 2 2.01967 -0.0152764 6.82495
940 2 0.662753 6.34325 3.94199
941 2 1.05757 8.81863 1.96459
942 2 5.07125 3.21367 5.38324
943 2 7.26051 5.21706 1.82179
944 2 0.503048 4.28736 3.90879
945 2 3.29838 5.47248 2.72705
946 2 1.30685 5.90984 0.321746
947 2 2.1337 8.72483 0.652594
948 2 4.59352 8.85148 6.70958
949 2 0.19926 7.9097 5.21398
950 2 6.93999 6.5566 5.51119
951 2 5.40745 0.343781 6.39116
952 2 2.6615 7.73737 5.09143
953 2 5.24311 1.02004 5.67416
954 2 6.51107 3.70081 3.94462
955 2 6.47033 0.397496 2.79553
956 2 4.91388 7.0844 7.24273
957 2 -0.0207868 3.43649 5.61611
958 2 7.40435 2.7554 2.75485
959 2 5.00651 1.32651 2.6383
960 2 8.99581 7.54675 4.0537
961 2 6.08696 7.7763 7.03057
962 2 6.42158 4.94008 2.31493
963 2 5.77741 4.79129 8.67984
964 2 3.8321 8.4662 7.19282
965 2 1.19273 1.71065 4.32902
966 2 0.202806 8.74809 1.56539
967 2 0.2276 3.20909 4.41065
968 2 2.47773 3.37533 0.59026
969 2 4.36576 0.521305 2.25816
970 2 3.93648 8.28993 0.00513093
971 2 0.111857 4.85947 4.44514
972 2 0.550124 4.08145 1.20754
973 2 2.36877 1.97437 7.9083
974 2 6.01217 4.45498 3.08971
975 2 2.28568 0.156787 0.198951
976 2 8.93195 4.88739 3.3464
977 2 5.02515 4.60712 3.21326
978 2 3.00298 7.2535 2.70489
979 2 1.66868 4.26837 1.60599
980 2 0.0915231 1.98184 3.80562
981 2 9.3028 8.71326 3.289
982 2 3.39156 4.79297 4.69964
983 2 8.04594 9.22063 0.751442
984 2 4.81377 7.53835 9.11916
985 2 7.44164 0.168523 2.81298
986 2 6.71777 1.67273 0.511759
987 2 1.82617 6.09011 1.82349
988 2 2.48397 4.31904 7.83258
989 2 9.23696 3.18134 6.55788
990 2 4.2362 4.6517 0.19741
991 2 8.12244 8.15743 8.46275
992 2 0.9936 0.657233 0.361501
993 2 0.747448 7.45032 6.30543
994 2 4.35282 7.22837 1.2074
995 2 2.58131 0.636132 6.01144
996 2 1.64398 7.77999 0.100086
997 2 7.69254 1.62436 8.6018
998 2 7.29218 8.62702 5.18662