#bin. KALJ data file T=0.5

1000 atoms
2 atom types

0 9.4 xlo xhi
0 9.4 ylo yhi
0 9.4 zlo zhi

Masses

1 1.0
2 1.0

Atoms

1 1 7.94591 6.53597 8.66033
2 1 8.21952 4.12414 0.222156
3 1 6.47118 6.63682 6.686
4 1 3.54422 7.90291 7.57873
5 1 0.831869 4.43855 2.94237
6 1 6.42783 7.42972 5.95606
7 1 5.63572 6.57034 2.70162
8 1 4.35912 7.05615 6.03343
9 1 8.89481 4.70348 7.79961
10 1 7.08443 5.3134 8.37915
11 1 0.836211 2.34451 1.58198
12 1 5.97416 5.91171 8.2058
13 1 2.99753 4.30448 8.60142
14 1 2.11523 4.73198 4.90022
15 1 4.08594 1.05936 5.63817
16 1 7.2443 3.38946 3.87766
17 1 5.1024 4.15286 6.14502
18 1 0.139657 1.61331 5.11948
19 1 4.31534 8.65726 7.54536
20 1 1.68882 0.209308 2.71001
21 1 7.52934 5.64151 0.418322
22 1 4.19215 9.32883 0.27087
23 1 2.0733 5.29577 6.35943
24 1 3.12851 3.98356 1.77685
25 1 3.48962 6.04557 1.28667
26 1 9.2127 7.35257 1.00995
27 1 4.66462 7.0379 3.06783
28 1 6.45894 7.13788 2.88759
29 1 1.94987 7.67748 2.83396
30 1 1.35932 2.43487 3.42513
31 1 2.31562 9.31553 7.64722
32 1 1.03933 5.97633 1.75776
33 1 2.70044 8.35026 9.07867
34 1 7.1705 9.15993 4.50064
35 1 0.892758 3.70264 6.9858
36 1 8.61629 3.93753 2.93487
37 1 1.52816 2.30773 8.07316
38 1 9.23521 4.69325 4.09824
39 1 1.38155 3.00909 8.685
40 1 6.04525 7.26545 2.01471
41 1 3.82585 7.88549 9.07315
42 1 4.58154 2.36308 4.14896
43 1 8.70631 1.59612 8.13361
44 1 9.07127 4.54686 2.39914
45 1 4.06169 6.78992 4.29174
46 1 2.49298 4.56341 2.49894
47 1 3.77542 7.6989 5.54725
48 1 0.724909 3.78395 7.96645
49 1 4.72127 2.81881 2.27858
50 1 1.52089 4.11884 5.06189
51 1 6.46453 8.75947 6.98367
52 1 0.972716 1.20041 5.99334
53 1 0.713711 7.09928 7.98102
54 1 1.62225 7.27915 3.87779
55 1 8.14768 1.38421 4.62997
56 1 6.6752 5.89487 7.3541
57 1 0.317086 4.6411 5.59623
58 1 4.759 8.3761 5.38842
59 1 3.14747 2.68317 6.2265
60 1 4.4976 3.82576 8.27408
61 1 2.9223 7.94816 2.3035
62 1 2.96356 1.4489 8.45063
63 1 5.10441 9.37329 0.0569721
64 1 3.94965 0.92335 3.73692
65 1 1.73671 5.45009 3.20158
66 1 1.72923 8.37143 9.08299
67 1 5.67377 8.80259 8.60655
68 1 4.90294 5.46733 8.37317
69 1 2.02516 9.19357 4.36966
70 1 0.248186 0.0363537 8.00768
71 1 0.139818 6.56217 4.98904
72 1 4.03304 3.89414 9.32724
73 1 5.1715 4.28146 2.92149
74 1 8.28667 5.0359 4.24392
75 1 4.95923 6.43786 5.51952
76 1 6.40668 1.54975 6.65112
77 1 7.59621 3.80769 8.48691
78 1 8.03319 6.0702 1.03151
79 1 8.68887 8.35481 3.40443
80 1 0.221423 6.42987 7.28122
81 1 1.2396 8.96437 6.45434
82 1 6.44009 1.01494 0.19233
83 1 0.750837 5.14153 3.77015
84 1 1.64274 2.81981 2.61471
85 1 7.27477 8.94234 1.03013
86 1 7.48063 0.263081 5.19836
87 1 5.08373 7.31218 2.07419
88 1 3.52048 4.7683 9.24634
89 1 3.78478 4.4864 4.23725
90 1 6.49895 5.45822 9.17462
91 1 4.6189 0.352306 3.36259
92 1 0.144547 4.41486 8.51077
93 1 5.39638 5.24323 1.3172
94 1 1.30094 6.52569 7.4368
95 1 8.52875 0.950495 0.516204
96 1 7.91079 4.10096 3.7614
97 1 4.46128 2.94207 0.317661
98 1 2.98052 4.78004 6.37461
99 1 6.40394 3.27717 2.40157
100 1 9.22302 8.59731 5.79382
101 1 5.04828 7.62971 0.585316
102 1 6.45141 0.587423 6.82523
103 1 2.96686 3.30518 3.97794
104 1 8.79078 1.25652 2.40763
105 1 9.15674 8.86325 0.078772
106 1 7.26252 5.16493 6.99365
107 1 1.70557 1.05165 2.71773
108 1 0.792344 7.35106 0.679454
109 1 5.29094 0.942549 6.8917
110 1 4.57206 4.7202 4.79808
111 1 5.16484 8.5762 7.90645
112 1 9.02459 3.23663 2.3873
113 1 5.06162 5.68608 4.32105
114 1 7.28401 2.78223 3.21753
115 1 6.3696 3.18745 7.75652
116 1 3.98025 5.52449 4.09836
117 1 0.318046 1.70314 0.809137
118 1 1.87008 5.5781 1.92235
119 1 8.82448 2.97607 7.37822
120 1 8.64123 3.83813 4.17789
121 1 4.85348 4.64438 9.33355
122 1 4.1228 5.02195 5.72117
123 1 2.36105 4.25534 6.61533
124 1 0.791405 0.881131 2.08315
125 1 3.62662 9.15581 7.59082
126 1 3.21921 2.4515 3.65465
127 1 6.47397 3.79263 1.43231
128 1 7.86666 9.12177 8.06446
129 1 3.8601 8.44647 5.0611
130 1 8.36597 8.07735 9.14242
131 1 5.7008 5.258 2.35238
132 1 8.22223 4.76405 5.34267
133 1 4.40769 1.55045 6.54504
134 1 7.71754 2.01816 9.26653
135 1 1.60202 4.33331 7.7674
136 1 0.0526891 0.199955 6.06352
137 1 5.26428 0.892451 9.34996
138 1 4.56849 0.465025 8.65071
139 1 6.98243 4.48046 8.57909
140 1 8.3347 1.30932 9.02689
141 1 8.82186 6.46777 0.844153
142 1 2.54773 5.45364 2.85588
143 1 0.716417 7.89555 4.42207
144 1 1.56016 2.40276 9.41257
145 1 2.84593 5.56192 4.43488
146 1 3.98811 5.47326 0.292572
147 1 7.45989 2.84144 8.80031
148 1 7.63754 6.3118 2.07654
149 1 1.89661 1.14035 1.71796
150 1 6.93819 0.299385 8.72083
151 1 1.67573 8.73972 0.91773
152 1 6.6165 5.87277 1.20924
153 1 1.83989 5.34552 4.15266
154 1 4.98023 0.514534 4.1904
155 1 3.00565 5.48029 7.0116
156 1 1.37962 3.04423 7.67423
157 1 8.8934 7.93006 7.39067
158 1 5.61285 5.29097 6.79649
159 1 5.17633 7.83914 9.04922
160 1 0.0918784 0.41494 0.473622
161 1 8.41994 0.774911 1.4884
162 1 7.48651 0.210228 2.46293
163 1 0.913221 3.09176 2.06205
164 1 1.10537 0.789317 7.43462
165 1 6.42027 1.53365 3.06227
166 1 3.12131 3.65582 6.82477
167 1 2.52282 7.24919 9.14495
168 1 2.03685 6.86112 6.94616
169 1 1.56047 0.703671 6.60981
170 1 6.88171 6.2843 8.28776
171 1 6.65506 2.31679 3.75082
172 1 5.5822 6.2309 4.87726
173 1 6.49058 0.238872 3.93929
174 1 0.967488 0.569844 3.0783
175 1 3.18608 5.12683 2.26397
176 1 7.13799 6.76073 6.01317
177 1 0.0791562 7.32616 2.06852
178 1 0.14637 9.06692 6.80761
179 1 1.98311 3.60786 2.97309
180 1 3.00724 1.24934 0.700647
181 1 8.88086 8.12355 4.26844
182 1 8.31897 8.45446 6.92929
183 1 1.2633 4.69639 9.43043
184 1 7.30582 7.97995 5.85644
185 1 1.13595 6.71405 2.99432
186 1 5.3863 1.83224 5.34715
187 1 8.28272 4.44322 8.46147
188 1 0.880337 9.24312 0.394152
189 1 1.23996 1.74262 2.24764
190 1 3.52076 2.14981 1.85592
191 1 2.64637 8.19986 6.72727
192 1 7.27225 2.25125 6.44779
193 1 2.55899 6.27953 6.32222
194 1 0.932378 5.89166 5.07027
195 1 7.51799 6.88111 7.96904
196 1 2.01906 4.49888 5.74957
197 1 3.62261 0.421198 9.04178
198 1 8.16051 3.09795 8.05089
199 1 3.45747 8.88979 9.15507
200 1 8.72026 7.34546 8.50602
201 1 9.14858 5.72605 8.88554
202 1 8.08061 6.34676 6.06133
203 1 2.37774 2.9192 9.09372
204 1 8.15771 3.27057 3.59672
205 1 7.62922 2.30416 1.91439
206 1 2.28259 5.90477 0.155173
207 1 1.12768 5.53142 0.600915
208 1 0.653478 5.99648 3.49264
209 1 6.475 8.62621 0.853594
210 1 4.91688 8.87452 1.04365
211 1 2.88598 8.02731 5.44372
212 1 2.06893 0.515284 8.33193
213 1 2.58933 8.97901 2.03423
214 1 9.20682 2.22857 7.74471
215 1 0.979731 1.52691 7.88452
216 1 0.224714 6.39032 2.01179
217 1 0.321479 9.18896 5.28669
218 1 5.52092 2.98705 0.0110907
219 1 0.921397 9.26027 2.29548
220 1 0.258534 2.37276 5.65389
221 1 0.853557 0.831773 3.96676
222 1 8.14794 2.50294 6.32329
223 1 0.940677 6.54069 0.381104
224 1 6.78847 3.82648 0.653151
225 1 5.16914 6.04801 6.51961
226 1 0.947483 2.42311 7.26215
227 1 5.98546 9.10748 7.71621
228 1 2.54974 8.8349 5.13121
229 1 1.39664 0.605883 0.823291
230 1 2.36611 6.83283 7.8452
231 1 3.53494 3.96706 0.898667
232 1 2.07079 6.53386 1.83743
233 1 4.57984 8.39485 9.37884
234 1 8.05349 4.5199 7.15263
235 1 7.5018 0.609605 0.569675
236 1 7.63325 5.50111 1.52036
237 1 2.67487 0.781006 8.97237
238 1 4.44324 7.6396 7.56946
239 1 0.886615 8.5189 3.79715
240 1 5.85605 8.09495 7.70568
241 1 1.37054 8.38651 1.81103
242 1 3.81861 4.39418 7.60947
243 1 0.83231 1.35564 8.81593
244 1 5.5462 3.72185 3.84001
245 1 0.143523 0.264099 4.13066
246 1 1.72926 0.951501 3.62427
247 1 9.33996 0.767985 1.29572
248 1 4.14371 2.2728 6.97788
249 1 1.20637 6.52516 8.86612
250 1 5.03389 0.17536 2.64124
251 1 3.34177 1.23742 4.45888
252 1 0.966619 6.93793 4.59149
253 1 1.79528 6.27491 4.61365
254 1 2.54338 4.13668 7.89768
255 1 2.60006 3.27895 5.72457
256 1 0.198854 8.60484 2.0151
257 1 5.25246 0.164642 8.07552
258 1 7.35148 0.841084 6.99274
259 1 1.31062 4.6944 8.50054
260 1 5.56508 1.44876 0.723327
261 1 8.08008 7.65245 4.87048
262 1 0.760461 3.11601 5.25827
263 1 4.99348 8.60461 1.88351
264 1 0.0699915 8.14268 6.4669
265 1 3.65083 1.85099 6.2924
266 1 0.0543141 0.291535 2.33997
267 1 2.13743 2.11283 8.78954
268 1 6.76176 8.98307 2.01811
269 1 2.84301 4.48507 4.4155
270 1 8.36518 6.37824 2.77208
271 1 0.202029 5.33584 4.59301
272 1 8.62135 3.66186 6.74691
273 1 2.97888 7.82725 8.24508
274 1 8.6785 9.25967 6.52726
275 1 7.97672 7.41678 0.288099
276 1 6.68686 6.62841 3.71408
277 1 9.10013 6.38824 4.0919
278 1 5.66263 7.54201 4.26554
279 1 0.172108 1.57399 1.89917
280 1 4.26896 9.09209 6.68495
281 1 2.68161 9.14625 0.0395678
282 1 2.26305 0.277019 3.76625
283 1 8.95102 2.42459 0.878362
284 1 4.4548 8.43646 3.39265
285 1 6.79744 6.55048 2.20419
286 1 6.77698 2.38115 1.61192
287 1 4.42321 8.77209 2.55644
288 1 1.07947 2.16196 5.29136
289 1 6.36012 5.37667 5.26231
290 1 6.286 1.30102 5.15133
291 1 2.03158 9.12514 8.67759
292 1 7.23489 6.4044 0.671601
293 1 2.8736 5.478 8.91603
294 1 7.49434 4.66781 0.43014
295 1 3.7927 6.7294 5.15308
296 1 4.41833 2.68852 7.85449
297 1 0.0614215 8.76003 4.39616
298 1 5.98407 3.65481 6.15898
299 1 9.2569 7.22532 4.49075
300 1 2.26356 6.83077 3.15972
301 1 3.71707 5.68476 8.65045
302 1 5.86572 5.31679 3.37678
303 1 2.43485 1.64318 4.14144
304 1 9.35902 6.53251 8.40144
305 1 8.25926 5.42829 6.42558
306 1 8.58331 0.616451 4.17607
307 1 8.60988 3.85949 7.79345
308 1 3.81953 1.37892 2.35618
309 1 2.39531 0.585923 6.98431
310 1 4.80172 4.25093 1.23006
311 1 6.84452 6.22599 4.52465
312 1 9.11116 8.6481 8.46817
313 1 8.11659 8.65483 0.489997
314 1 1.91132 8.34852 7.14697
315 1 7.09936 5.82375 5.35754
316 1 3.36127 8.39141 1.6006
317 1 5.63423 4.02004 0.960561
318 1 7.2512 1.09816 9.2525
319 1 6.15638 1.76917 2.13118
320 1 0.452483 9.12656 2.99501
321 1 5.98325 3.72049 0.201661
322 1 8.73929 2.63857 3.31537
323 1 9.33374 2.49053 4.74391
324 1 6.53702 4.66952 5.98093
325 1 4.0101 1.68912 7.72104
326 1 5.34947 4.88557 3.92382
327 1 7.10282 7.68285 0.771547
328 1 8.50471 1.64107 7.11877
329 1 5.94027 7.18898 8.77102
330 1 3.18297 7.36664 0.21101
331 1 9.13282 8.8557 7.55419
332 1 0.638258 5.28377 8.70146
333 1 5.59539 2.5044 3.76137
334 1 5.35998 6.09555 3.45174
335 1 3.88057 3.1896 8.56655
336 1 3.69198 3.18066 2.09669
337 1 6.07807 7.21875 5.01465
338 1 2.11756 5.42626 0.967714
339 1 2.70337 5.79386 1.58856
340 1 9.21604 3.80953 1.6282
341 1 5.27239 9.21824 7.15484
342 1 5.97129 4.38846 3.28326
343 1 6.48245 8.00273 3.28533
344 1 7.03657 7.41564 5.10545
345 1 8.20676 5.08826 0.921605
346 1 3.75288 0.0106579 3.36952
347 1 4.04278 0.801843 7.32486
348 1 1.75669 3.33997 0.352723
349 1 8.26889 2.96754 1.44196
350 1 3.38374 5.56961 6.04628
351 1 1.47812 4.78365 2.32042
352 1 1.87523 2.22876 1.66824
353 1 7.03098 0.00905794 7.81927
354 1 3.03742 9.4026 8.32745
355 1 1.86491 1.1314 7.38122
356 1 7.85115 8.931 4.91754
357 1 8.57224 2.853 4.37639
358 1 0.592416 8.62956 8.27234
359 1 5.61483 0.896591 1.97103
360 1 6.13359 2.77161 5.13046
361 1 0.0255437 1.1512 9.24906
362 1 2.30926 8.57407 5.967
363 1 0.52644 4.90536 6.80753
364 1 2.83594 7.10555 5.34459
365 1 3.16469 0.412996 3.87385
366 1 4.51831 7.89022 1.39263
367 1 7.79451 7.15442 2.38436
368 1 4.3456 2.3349 1.04786
369 1 6.26054 9.26519 4.90542
370 1 0.0411259 0.740825 7.42484
371 1 6.18798 4.18802 2.22029
372 1 4.04536 0.574689 6.51959
373 1 6.14597 2.4789 2.96099
374 1 7.34342 8.32589 3.48245
375 1 4.28902 9.32202 5.6264
376 1 3.53028 9.22231 0.810021
377 1 1.99204 3.71377 8.68681
378 1 3.8909 3.6696 3.64516
379 1 6.69386 4.13854 4.16918
380 1 8.86591 5.35655 5.36411
381 1 2.58963 1.40747 5.28431
382 1 2.81717 2.00977 0.324047
383 1 8.3142 2.3376 8.64998
384 1 8.3844 8.43116 2.18687
385 1 5.11067 1.82771 6.13943
386 1 6.66942 5.68667 2.11161
387 1 3.46435 5.86552 2.91232
388 1 5.18392 7.43182 5.29282
389 1 0.251732 0.348606 8.97226
390 1 7.79684 4.4093 2.58077
391 1 1.61187 6.9503 0.740964
392 1 3.53778 6.57392 3.48443
393 1 1.44481 5.04617 7.02257
394 1 6.32204 3.78263 7.05446
395 1 4.83645 3.30207 6.42336
396 1 9.02558 4.47361 4.95623
397 1 5.83775 1.32257 3.7583
398 1 7.07952 1.43199 6.09642
399 1 4.12632 7.30479 2.03609
400 1 0.93372 2.69692 4.49163
401 1 1.47449 8.92326 7.99369
402 1 4.14458 8.68249 8.51403
403 1 3.47352 0.826282 2.88041
404 1 5.7227 8.61023 1.35647
405 1 5.55418 5.07258 4.95734
406 1 5.88394 2.6774 2.0086
407 1 1.07512 0.383409 8.26642
408 1 3.84552 1.40482 1.30096
409 1 6.56096 2.69248 7.01689
410 1 0.109026 7.75886 8.47101
411 1 6.53157 2.40457 8.27339
412 1 1.94211 3.59451 7.1306
413 1 3.29131 2.81307 0.261537
414 1 5.35683 3.86024 8.7367
415 1 6.08466 4.04507 7.94888
416 1 1.7491 1.46492 5.03132
417 1 2.12607 8.18165 8.18802
418 1 7.91086 2.26053 4.75748
419 1 9.28734 2.27223 2.50015
420 1 7.57782 5.43111 2.93684
421 1 3.49382 6.61521 0.663332
422 1 3.36528 8.22192 3.48418
423 1 2.59227 0.719106 2.88833
424 1 0.0933413 7.23868 6.88445
425 1 7.65 5.90545 7.98992
426 1 6.72198 5.4198 3.56878
427 1 7.94164 0.980375 5.51972
428 1 3.10829 0.417321 0.441351
429 1 0.543947 0.780873 6.70362
430 1 6.02177 7.39693 0.287268
431 1 2.89237 7.30607 6.83597
432 1 7.92734 0.468524 8.6071
433 1 7.97664 6.93368 1.21776
434 1 8.62068 1.95054 4.15784
435 1 7.99872 0.318551 3.21422
436 1 3.97396 0.382152 1.35587
437 1 8.03054 8.55881 1.44765
438 1 4.79044 5.56317 9.28414
439 1 3.78681 2.43447 5.65337
440 1 4.24968 1.35723 8.63548
441 1 7.6324 0.55433 4.31152
442 1 5.80172 8.36576 3.85415
443 1 8.76291 4.40509 0.911746
444 1 9.32962 1.18214 3.81167
445 1 6.52867 5.50371 6.29346
446 1 7.04052 0.815495 3.31524
447 1 5.80275 1.1745 6.16177
448 1 1.87287 0.455295 5.28469
449 1 5.18481 6.48897 7.91497
450 1 5.72599 8.73179 5.67846
451 1 2.28427 0.750756 0.682066
452 1 6.59206 0.512597 2.47625
453 1 3.29999 5.14441 3.44684
454 1 3.31485 0.177359 2.08362
455 1 2.60544 0.633468 4.7654
456 1 4.35013 3.78709 2.691
457 1 1.34245 6.90882 6.34595
458 1 7.30757 4.06349 1.78895
459 1 2.71724 8.21714 4.40789
460 1 4.93214 1.39591 3.67594
461 1 1.19414 3.90298 9.14539
462 1 1.52527 3.97089 1.31901
463 1 8.14429 3.45517 5.84046
464 1 2.92539 8.54055 7.66605
465 1 8.0503 2.88287 2.529
466 1 5.32111 3.9547 7.07934
467 1 8.03142 1.42839 1.88436
468 1 8.00028 8.88807 3.92823
469 1 0.564938 1.70706 4.20487
470 1 2.32601 7.2157 4.48529
471 1 4.18024 4.16846 6.28033
472 1 0.292941 5.61573 5.69486
473 1 0.428776 2.56881 0.696627
474 1 0.127706 1.08508 8.24589
475 1 0.609208 4.31269 1.70665
476 1 5.83494 6.80181 5.93237
477 1 5.41373 4.49767 1.9595
478 1 0.379219 7.30457 6.11025
479 1 1.24233 4.56062 4.32082
480 1 8.05352 4.34976 6.2267
481 1 3.11327 2.32388 8.85716
482 1 1.4355 7.38353 9.29691
483 1 2.39667 2.99152 8.14667
484 1 9.0804 2.47245 6.72551
485 1 9.39437 2.91005 1.56407
486 1 0.747184 2.29096 2.68473
487 1 4.73492 0.999919 1.87394
488 1 9.09623 4.99729 6.21188
489 1 7.44661 4.02605 5.66029
490 1 0.485664 2.92804 6.67642
491 1 8.01994 1.13636 3.66764
492 1 0.705353 2.04799 6.32869
493 1 7.37175 5.85975 6.32836
494 1 6.63862 2.95211 5.96231
495 1 4.04549 7.06453 6.97128
496 1 5.75738 5.83422 5.69137
497 1 0.217699 5.7958 1.10689
498 1 2.79287 6.20112 2.35911
499 1 2.07493 7.72387 5.15164
500 1 2.92136 6.39914 7.19655
501 1 8.69387 5.74746 4.6174
502 1 7.43686 7.48069 6.71725
503 1 0.27155 3.10695 7.65088
504 1 7.18547 2.81049 7.83263
505 1 7.54426 2.7105 0.440062
506 1 5.48102 3.48632 2.74906
507 1 9.01213 8.95988 2.82459
508 1 3.07265 1.99087 2.83626
509 1 2.93893 1.17656 2.14734
510 1 1.94801 2.79319 6.49924
511 1 2.74141 3.53505 2.40309
512 1 1.51293 3.26521 4.71325
513 1 7.27585 1.51583 4.694
514 1 9.4039 5.45531 7.97807
515 1 3.01846 4.75472 5.41284
516 1 2.29858 1.76311 2.33519
517 1 6.9406 8.26327 9.23704
518 1 5.33775 6.0989 0.890926
519 1 4.8339 4.74238 6.86512
520 1 7.55865 4.40918 4.52752
521 1 7.01966 5.03651 1.01856
522 1 5.46756 0.239599 0.837697
523 1 1.69887 8.7585 2.69419
524 1 6.73786 2.19909 5.16963
525 1 3.04689 5.55012 0.615587
526 1 4.89062 6.75315 4.41296
527 1 5.0659 1.72874 4.50006
528 1 0.323473 2.19072 3.44838
529 1 3.41039 8.82977 5.8242
530 1 4.41846 6.03091 3.45423
531 1 8.01457 7.14206 5.80454
532 1 8.23034 8.12517 5.8806
533 1 7.25245 9.26803 3.56994
534 1 7.43229 6.95118 4.29022
535 1 5.80593 6.24455 7.34318
536 1 0.998964 4.9949 5.05287
537 1 1.02449 1.51819 3.34208
538 1 1.20875 8.74881 4.60035
539 1 3.95682 3.05765 6.40846
540 1 0.485669 6.95627 9.00274
541 1 3.58161 3.20264 2.92536
542 1 0.6495 3.87216 4.71405
543 1 5.32014 3.41232 7.96588
544 1 1.66041 8.89053 5.37976
545 1 1.36459 2.63537 0.891078
546 1 8.56379 3.46229 9.04811
547 1 8.67772 3.31208 0.592653
548 1 8.94082 0.978125 4.86427
549 1 6.63944 7.44562 4.24564
550 1 8.9137 6.8149 5.993
551 1 2.44998 2.09514 7.54979
552 1 6.27347 2.93283 1.18098
553 1 9.02011 2.94441 8.30513
554 1 3.4436 7.55597 4.74299
555 1 0.759651 8.42895 5.37296
556 1 4.88667 0.173935 1.61492
557 1 7.8838 6.84981 3.40725
558 1 2.78225 3.07842 7.24888
559 1 3.4834 5.71489 7.71375
560 1 5.87886 9.34611 2.02707
561 1 8.24967 5.96654 3.64511
562 1 3.04861 1.53728 6.96573
563 1 0.0677666 4.07816 7.41631
564 1 3.74362 3.12323 7.32111
565 1 4.99074 4.58992 7.96836
566 1 7.11985 8.93066 5.8459
567 1 3.09323 2.43645 1.1234
568 1 4.05364 8.95256 1.50257
569 1 2.34095 4.91206 8.42345
570 1 0.221882 3.5523 8.72136
571 1 4.97583 3.98713 5.12752
572 1 2.62789 2.78912 3.03367
573 1 6.31783 1.94726 7.57023
574 1 1.98157 1.03715 5.97806
575 1 7.85346 8.81709 2.91726
576 1 4.76254 7.94659 2.57549
577 1 3.15289 0.675803 1.39589
578 1 6.3175 3.23204 3.61371
579 1 5.51889 0.269895 3.54085
580 1 2.01314 2.96189 3.68396
581 1 2.42773 0.453506 2.04008
582 1 7.52772 2.47839 4.01917
583 1 3.39154 3.11697 5.16767
584 1 2.32132 4.95626 7.41009
585 1 6.06886 8.09596 9.08991
586 1 4.321 6.39646 8.21305
587 1 8.89755 4.01528 5.82513
588 1 1.76575 1.37158 8.49364
589 1 8.77883 6.06194 7.7188
590 1 0.618225 6.17747 4.32321
591 1 6.29821 0.0895898 1.1494
592 1 7.30997 1.90397 8.18321
593 1 2.80054 8.93308 3.26729
594 1 5.18652 2.86644 1.0144
595 1 5.64097 5.40007 8.96178
596 1 0.889876 6.67862 5.6528
597 1 0.752524 6.13668 8.06872
598 1 6.1708 6.41184 0.434263
599 1 3.63829 1.7272 5.14982
600 1 5.04936 8.39189 4.48506
601 1 3.85392 5.00918 6.71534
602 1 1.09584 0.316126 5.86485
603 1 8.89899 5.93499 6.11799
604 1 2.99264 1.32339 3.53323
605 1 8.88602 9.32526 3.6525
606 1 5.61877 6.36305 8.77118
607 1 4.84073 2.27619 3.21627
608 1 1.10468 5.09638 5.94943
609 1 3.29738 8.92718 4.40099
610 1 0.829773 7.64569 3.20376
611 1 2.04657 1.69998 0.779173
612 1 0.494921 6.9323 3.80287
613 1 0.0926151 3.66764 0.200634
614 1 9.33059 3.30284 3.29366
615 1 2.00297 4.54037 0.722911
616 1 7.2717 7.35362 3.28962
617 1 5.44266 7.66976 1.4286
618 1 6.07485 1.9496 1.15809
619 1 3.73796 0.777604 8.2323
620 1 7.17431 1.64393 3.70827
621 1 5.84886 7.26787 6.82625
622 1 8.82399 9.26929 1.70393
623 1 8.7923 7.03224 3.48312
624 1 5.74291 8.20496 4.99205
625 1 3.2268 6.7767 1.70868
626 1 1.57626 0.126728 1.72737
627 1 0.903381 1.19516 4.83472
628 1 8.05046 5.59588 5.55426
629 1 6.36883 4.82329 1.66418
630 1 5.05916 1.97577 8.2838
631 1 4.42687 6.5107 0.390161
632 1 2.40616 2.8178 0.681086
633 1 5.81003 3.00759 6.9477
634 1 2.08161 7.54575 6.27034
635 1 6.25868 4.74069 6.97216
636 1 8.29078 8.29087 8.22706
637 1 4.73263 6.95594 1.17585
638 1 7.02219 6.28348 9.22972
639 1 5.8196 2.20812 8.90595
640 1 4.18986 4.606 8.63968
641 1 7.61211 3.55776 2.98771
642 1 3.77771 2.6036 4.53279
643 1 4.16305 1.4614 4.37405
644 1 6.81274 2.94617 4.56591
645 1 8.73025 6.71815 1.74333
646 1 6.85038 7.02005 1.36433
647 1 7.90495 5.03036 7.82085
648 1 4.00692 2.26461 8.55771
649 1 4.68497 6.1029 7.35735
650 1 2.70107 2.26952 5.49885
651 1 8.90744 2.89244 5.98172
652 1 7.28035 3.14504 1.17496
653 1 7.49411 5.03296 6.10746
654 1 0.173111 4.86947 1.07765
655 1 9.13679 5.92111 2.95359
656 1 3.32174 0.126683 5.04016
657 1 2.09941 5.84235 7.08123
658 1 0.898491 5.64386 2.59309
659 1 5.79031 0.924658 2.90871
660 1 7.62678 1.87081 7.16668
661 1 7.80309 3.47097 4.72881
662 1 4.27541 0.769258 0.0911685
663 1 0.533917 4.21829 3.80254
664 1 4.00777 8.41103 0.763115
665 1 8.08583 5.75912 7.20932
666 1 8.28234 0.24932 7.40665
667 1 6.71579 9.08492 0.216285
668 1 2.8648 0.990708 6.29711
669 1 3.85033 6.90804 9.16831
670 1 3.60712 7.64708 6.37526
671 1 5.16533 7.66157 6.12254
672 1 0.893559 4.24567 0.760545
673 1 0.0477097 7.64038 3.70722
674 1 1.8164 8.60305 3.57523
675 1 7.01211 1.48581 2.20627
676 1 8.6817 6.75203 5.08842
677 1 3.99868 6.00171 6.73542
678 1 1.16133 9.18102 8.95174
679 1 3.11449 6.50879 8.34924
680 1 3.46404 6.58699 6.17356
681 1 5.56418 2.82125 6.053
682 1 4.62306 1.93545 2.28117
683 1 5.32838 9.26346 5.01372
684 1 7.3848 5.982 3.92991
685 1 3.53933 8.81691 2.71532
686 1 4.08656 0.434505 4.54601
687 1 5.73944 8.32648 6.71438
688 1 8.39508 0.172844 5.32261
689 1 9.18001 2.04277 8.78213
690 1 6.25981 0.715263 8.04368
691 1 6.56542 4.85348 2.62999
692 1 8.21099 7.28054 7.34867
693 1 0.937039 3.87942 5.70676
694 1 2.18676 6.34613 8.75656
695 1 0.224217 3.87289 2.68829
696 1 3.95113 4.05023 5.09996
697 1 0.807365 8.68283 7.33148
698 1 2.89997 3.85844 5.07587
699 1 9.33422 7.77275 5.33434
700 1 2.64367 6.13208 3.62109
701 1 7.91235 8.00064 2.90432
702 1 4.21614 5.89702 5.79963
703 1 1.4804 1.63328 4.12286
704 1 0.345905 4.77698 0.138364
705 1 5.99524 5.78763 4.27582
706 1 1.36876 0.0543453 3.88724
707 1 6.60472 0.527962 5.86172
708 1 7.66214 9.16926 6.96252
709 1 3.57954 4.3098 2.72631
710 1 6.55415 9.14874 2.95772
711 1 8.84051 0.832204 6.87809
712 1 7.90936 3.87516 1.113
713 1 5.73208 6.18263 1.84059
714 1 0.290865 5.05169 1.97896
715 1 2.27614 8.13875 1.44389
716 1 7.46175 8.42101 2.29411
717 1 1.93797 6.79658 5.48053
718 1 7.2732 1.76493 0.530264
719 1 6.12649 2.06522 5.892
720 1 8.9117 4.62023 9.1378
721 1 6.58831 1.16082 4.12241
722 1 7.36098 3.64978 9.31137
723 1 2.58192 6.69518 0.61218
724 1 4.94829 2.81986 5.40754
725 1 5.6158 1.2106 7.67496
726 1 1.26289 3.66723 3.74573
727 1 1.72921 5.48214 8.72989
728 1 4.64103 1.13715 2.81531
729 1 7.59039 5.45523 4.73077
730 1 5.77622 0.660054 4.57173
731 1 1.85065 2.77759 5.48743
732 1 4.1307 4.18622 1.94058
733 1 1.46827 8.19673 5.89388
734 1 4.63659 5.25006 0.932229
735 1 1.27784 3.96321 2.32003
736 1 8.44611 5.71717 2.08106
737 1 6.7976 2.02924 9.02511
738 1 3.80247 5.73454 2.017
739 1 0.447481 5.85397 0.127429
740 1 9.03277 1.72526 6.30524
741 1 8.24175 4.51605 1.70944
742 1 1.75697 7.20633 8.39351
743 1 3.77762 3.08739 1.147
744 1 0.613497 8.44214 9.12162
745 1 1.59928 8.03608 4.35386
746 1 1.74296 1.99714 6.02296
747 1 2.36122 4.88968 3.60248
748 1 4.82434 6.84738 8.81155
749 1 4.1819 4.39819 3.39951
750 1 8.56169 1.66737 3.29571
751 1 2.59775 0.217734 5.84682
752 1 8.23984 2.26786 7.71919
753 1 7.21338 6.28558 2.94631
754 1 8.82687 1.52894 1.11761
755 1 4.15318 0.346249 2.32429
756 1 0.69789 4.84262 7.81655
757 1 2.62977 1.64239 1.52206
758 1 0.739153 8.55832 1.21168
759 1 4.80949 6.12437 2.40742
760 1 6.62809 8.45634 5.19525
761 1 6.7578 0.619761 4.74608
762 1 8.48458 5.66669 0.290134
763 1 6.48291 1.38011 8.51207
764 1 0.290867 1.75802 7.13458
765 1 2.8885 4.6614 0.943836
766 1 3.86345 7.82397 2.8083
767 1 8.54318 0.265466 9.21091
768 1 9.37185 4.91313 3.10552
769 1 8.59083 7.60438 2.23867
770 1 1.543 7.50104 7.46589
771 1 1.42943 1.75525 6.93708
772 1 6.72964 8.09097 6.55844
773 1 2.19666 7.62223 0.649078
774 1 5.85421 3.06784 8.61502
775 1 7.8539 2.13085 2.9364
776 1 4.5553 3.64244 7.35481
777 1 9.05825 8.01903 1.60155
778 1 8.86488 6.67784 9.26829
779 1 6.67281 3.04555 9.30641
780 1 7.29364 3.6803 7.56814
781 1 3.26568 7.06791 2.73399
782 1 0.318784 1.29307 2.80361
783 1 4.32124 7.49335 8.45038
784 1 7.52408 6.49082 7.02445
785 1 4.44862 6.12345 1.35001
786 1 6.8507 7.53492 7.54509
787 1 6.58083 8.61202 4.1731
788 1 6.25668 4.83583 0.704536
789 1 6.75443 3.50536 8.48835
790 1 5.54818 5.3008 0.414347
791 1 5.64683 0.298092 5.68468
792 1 7.64867 7.60713 8.61304
793 1 5.87232 6.82964 1.12228
794 1 4.76898 1.22707 0.773805
795 1 7.47711 4.98232 3.73412
796 1 5.00508 6.99147 6.89021
797 1 7.80828 6.37929 5.01777
798 1 4.9236 2.79867 7.16798
799 1 2.03635 5.52267 5.41436
800 1 4.99487 0.801484 4.99399
801 2 6.0001 2.15354 4.46144
802 2 7.67945 3.69724 6.70985
803 2 7.03185 4.29557 6.64901
804 2 4.81614 5.47587 5.26776
805 2 7.12532 4.5615 7.68434
806 2 9.07425 5.45454 3.74158
807 2 6.57653 6.49708 5.3885
808 2 1.33677 4.93492 1.34013
809 2 2.27503 4.69 1.5839
810 2 7.7484 1.01305 2.77452
811 2 8.5749 6.57527 6.8769
812 2 6.87216 7.24156 9.36766
813 2 2.75165 2.43237 2.02319
814 2 8.56077 8.47811 5.02582
815 2 3.11056 7.25624 3.87389
816 2 4.03194 7.40776 0.519263
817 2 0.862107 7.87637 6.70942
818 2 2.98973 2.19813 4.52075
819 2 4.3011 6.10965 4.86083
820 2 1.71906 6.26299 3.67244
821 2 1.26821 7.41513 5.50523
822 2 2.48953 3.6668 1.02856
823 2 9.01057 1.86778 0.218827
824 2 4.45291 7.58684 4.62662
825 2 7.38065 3.0415 5.54164
826 2 3.44761 1.24493 9.21992
827 2 0.930102 3.07984 0.135468
828 2 2.77056 6.17374 5.34318
829 2 3.372 7.47137 1.13019
830 2 9.22738 2.7094 9.34012
831 2 3.24627 0.162582 6.70618
832 2 3.73117 5.01407 1.38436
833 2 4.96328 5.19309 3.11903
834 2 4.21144 9.05101 4.15055
835 2 4.70617 8.01204 6.87058
836 2 2.40741 7.61767 7.49798
837 2 4.06742 4.55959 0.59152
838 2 3.85726 2.00674 0.13495
839 2 6.7788 5.21598 4.47036
840 2 0.00806484 7.85335 2.90946
841 2 9.26305 8.97524 0.997359
842 2 4.26934 3.50173 5.64057
843 2 7.03519 4.19812 3.16361
844 2 7.11123 4.83546 5.18862
845 2 8.97335 1.01547 5.70184
846 2 3.06258 8.45636 0.450362
847 2 7.23722 3.23863 2.13818
848 2 7.42214 8.21607 8.07549
849 2 4.0181 2.68231 3.45188
850 2 3.38367 3.74354 7.91675
851 2 4.81671 5.36828 6.21692
852 2 2.26194 4.74433 9.29377
853 2 5.75828 8.84864 3.0059
854 2 0.650022 3.5651 1.19036
855 2 8.07757 2.00771 0.840802
856 2 0.315973 6.36813 6.32653
857 2 8.96795 0.676743 3.09196
858 2 8.25175 6.74241 4.26337
859 2 4.02686 6.52699 2.59893
860 2 0.268871 0.646946 5.19522
861 2 1.83282 0.389937 9.29341
862 2 5.15241 3.45414 1.69118
863 2 1.19931 1.43692 1.10274
864 2 1.36424 5.51469 7.82121
865 2 8.98012 3.27081 5.09494
866 2 1.72888 6.11151 2.62
867 2 5.53216 1.34055 8.68327
868 2 1.55987 7.38414 1.96292
869 2 1.70918 4.34972 3.43039
870 2 1.10468 8.17551 0.369005
871 2 0.887075 3.33684 2.94959
872 2 2.38548 7.88971 3.60668
873 2 4.22167 8.35225 6.08551
874 2 0.190012 3.44122 5.92
875 2 1.71011 1.38988 9.38698
876 2 5.23389 5.43114 7.52451
877 2 5.87854 4.2398 5.4541
878 2 4.75263 3.28124 3.45633
879 2 5.13935 2.16997 0.325979
880 2 7.98607 8.95499 5.81269
881 2 1.6469 0.711701 4.40678
882 2 9.05333 6.98987 7.67518
883 2 3.8381 1.77755 3.26394
884 2 4.70006 4.01748 4.12697
885 2 8.42888 4.9252 3.22921
886 2 5.32541 6.71479 0.255201
887 2 6.26572 8.13627 1.96658
888 2 3.70452 5.02209 4.89122
889 2 2.57006 9.11191 1.0395
890 2 4.06077 5.19985 2.79408
891 2 6.03982 3.51297 4.52612
892 2 1.82545 3.60226 6.01189
893 2 5.005 2.83307 8.74637
894 2 5.085 9.16788 6.24066
895 2 3.90801 2.45093 2.62281
896 2 7.54523 9.01135 9.23645
897 2 5.20004 3.21875 4.59757
898 2 6.86355 1.24142 7.69225
899 2 6.1378 1.85678 0.229793
900 2 1.15885 5.93527 6.40963
901 2 4.73387 0.991463 7.87894
902 2 6.73051 7.67061 8.44685
903 2 5.57978 8.33213 0.503044
904 2 6.13866 6.96009 7.8257
905 2 6.66166 2.44735 0.60558
906 2 3.33319 2.53902 7.91488
907 2 8.57999 5.27731 8.40927
908 2 7.46094 8.24447 4.4442
909 2 3.36024 3.9781 5.94752
910 2 6.11908 4.90957 8.33128
911 2 3.015 6.53524 4.62125
912 2 3.47222 8.65896 6.76935
913 2 6.29037 7.72547 1.09985
914 2 5.387 1.67524 2.52472
915 2 6.64548 3.61117 5.28837
916 2 1.43919 4.27691 6.51353
917 2 4.24284 5.18387 7.72009
918 2 1.00078 7.7816 8.59442
919 2 2.48777 5.77794 8.02949
920 2 7.21107 4.92427 1.94234
921 2 2.28598 9.07726 6.76286
922 2 5.22413 2.11449 1.49503
923 2 4.52409 2.45034 6.16399
924 2 7.86912 2.92397 7.15919
925 2 0.945041 1.0713 0.269671
926 2 0.734308 2.0629 0.043792
927 2 8.52097 0.0560632 0.739002
928 2 2.17389 3.77934 4.40075
929 2 8.5754 1.91589 5.26753
930 2 1.09036 2.88135 6.00094
931 2 8.00776 6.39202 0.200884
932 2 1.64835 6.11718 1.08929
933 2 4.84615 0.784505 6.0962
934 2 4.49833 1.81542 5.39054
935 2 0.163842 6.83139 2.89001
936 2 5.53697 7.88391 3.13609
937 2 0.160166 4.17923 6.52094
938 2 4.84091 7.52233 3.75912
939 2 1.43017 -0.011742 7.20589
940 2 0.388124 3.27267 4.10069
941 2 0.607735 2.40891 8.55744
942 2 3.54387 5.85167 5.12079
943 2 2.24017 1.84083 3.24391
944 2 2.53335 3.84623 0.0380693
945 2 4.53155 5.03678 1.88435
946 2 6.18679 0.994026 1.24006
947 2 5.54094 7.00502 3.50185
948 2 7.55596 2.08798 5.61594
949 2 5.83387 4.60711 9.29797
950 2 8.18368 3.62646 2.12783
951 2 7.47722 8.26091 7.08128
952 2 8.02125 1.45323 6.26365
953 2 2.26823 1.60663 6.61094
954 2 3.21984 4.95442 8.00468
955 2 5.63142 4.94309 5.94883
956 2 8.48318 7.47199 6.51946
957 2 7.01625 8.23057 1.4946
958 2 7.80511 4.98527 8.90768
959 2 9.03045 5.40918 7.11049
960 2 2.54982 3.03094 4.71078
961 2 0.0323137 7.77403 0.0812164
962 2 6.02213 0.310556 9.14633
963 2 6.51599 8.5558 8.36205
964 2 8.61683 2.12619 1.90608
965 2 3.0608 3.46704 8.83574
966 2 0.951878 6.83392 1.50391
967 2 3.6115 7.07004 7.95578
968 2 0.943774 0.224949 4.68301
969 2 4.82847 1.78855 7.30364
970 2 7.88458 0.354522 6.16538
971 2 5.68314 2.07922 6.8993
972 2 6.29429 5.97857 2.89111
973 2 8.64337 9.28732 4.57966
974 2 0.442337 7.86046 7.59709
975 2 8.7073 7.97749 0.697219
976 2 5.57473 2.51464 7.89385
977 2 7.36648 1.24241 1.37943
978 2 7.86315 7.76021 1.76952
979 2 4.29522 3.35454 4.59415
980 2 6.9698 0.458729 1.63335
981 2 0.814153 8.27836 2.59464
982 2 4.80613 3.85793 0.472459
983 2 3.24719 6.19882 9.28999
984 2 0.753217 0.0999935 1.34579
985 2 7.84144 0.0381507 1.58168
986 2 2.71518 4.03867 3.32268
987 2 1.87576 2.4271 4.50945
988 2 0.758832 5.74748 7.27562
989 2 8.40464 0.227259 2.35791
990 2 2.74774 0.896176 7.72178
991 2 0.669322 7.76225 1.64702
992 2 3.90721 7.68596 3.90174
993 2 7.80659 1.18561 7.79405
994 2 5.50482 9.17113 4.21231
995 2 5.68335 4.28546 4.52706
996 2 6.90445 2.44466 2.48653
997 2 1.71046 3.18669 1.66451
998 2 5.23599 7.58065 8.04713