#bin. KALJ data file T=0.5

1000 atoms
2 atom types

0 9.4 xlo xhi
0 9.4 ylo yhi
0 9.4 zlo zhi

Masses

1 1.0
2 1.0

Atoms

1 1 4.81032 4.8741 4.318
2 1 2.78162 7.12798 4.63184
3 1 2.53701 8.43129 2.72151
4 1 8.09153 3.61422 4.34838
5 1 0.223447 6.41866 6.74319
6 1 8.24422 0.661678 6.95626
7 1 1.5729 2.74873 0.10552
8 1 2.15897 2.35689 3.06271
9 1 6.09084 5.46797 3.44339
10 1 9.15456 5.46817 3.83377
11 1 2.71013 6.40207 3.80558
12 1 2.32648 7.22781 3.60326
13 1 0.898096 7.84323 7.25265
14 1 3.90487 8.98729 0.634177
15 1 9.03564 0.244291 5.29483
16 1 5.50163 8.33285 2.79849
17 1 3.17229 2.44374 6.20062
18 1 5.4743 1.43041 5.81726
19 1 0.333537 7.08783 5.51669
20 1 8.64771 1.1879 7.76055
21 1 1.8903 6.48433 3.34946
22 1 9.16209 0.514221 2.88735
23 1 1.16205 3.30891 7.52156
24 1 5.30516 7.6492 9.24828
25 1 9.37245 4.77599 3.2221
26 1 6.3716 3.31601 0.423078
27 1 0.688082 0.77854 6.08083
28 1 5.09385 3.18296 5.04627
29 1 8.36831 8.87588 4.81949
30 1 4.05716 3.13011 6.9
31 1 3.21558 3.34879 6.24603
32 1 5.92466 1.98008 2.79907
33 1 2.14419 5.6268 6.583
34 1 2.13291 3.02275 3.79073
35 1 7.68083 7.76826 1.9218
36 1 2.80356 7.37232 7.36972
37 1 1.91626 4.67703 6.35158
38 1 1.01141 1.11473 3.92494
39 1 6.0035 3.21319 3.52577
40 1 2.18985 0.952862 2.12259
41 1 7.088 5.66993 1.31215
42 1 1.7053 6.01916 1.45915
43 1 4.2218 5.94356 1.45197
44 1 6.25345 6.58206 3.27333
45 1 0.0188509 3.3586 6.35863
46 1 7.50503 6.35876 8.93127
47 1 1.44853 5.05657 7.24989
48 1 0.410514 5.76441 3.24934
49 1 7.64722 7.67219 5.68253
50 1 7.61272 3.59239 9.39792
51 1 9.07719 7.96707 6.26334
52 1 6.32314 5.23147 4.84173
53 1 2.00159 4.22247 2.06558
54 1 3.18093 7.72913 5.28161
55 1 8.87885 3.17475 3.75107
56 1 2.74491 4.61845 8.0833
57 1 7.94397 2.20971 0.515599
58 1 5.14803 1.97001 3.53011
59 1 3.76449 8.62178 3.07243
60 1 0.0839962 6.69358 8.22004
61 1 7.42394 7.88176 3.14565
62 1 6.54702 4.89055 7.64376
63 1 3.26295 2.86865 5.13454
64 1 6.99873 2.70591 9.16679
65 1 9.23808 1.40637 0.974028
66 1 0.601882 4.05067 3.42866
67 1 3.00094 9.39674 4.31148
68 1 1.96981 3.92463 7.35971
69 1 2.8946 5.99245 5.95313
70 1 6.15318 1.58269 0.049731
71 1 6.71584 5.44055 9.25689
72 1 1.75377 8.80894 2.9417
73 1 3.85194 6.21451 9.27684
74 1 4.75807 1.14188 8.638
75 1 6.58572 7.65953 2.79751
76 1 5.18819 9.09182 6.64383
77 1 2.51511 1.19347 8.03155
78 1 5.7776 2.86971 0.949289
79 1 0.135735 6.38502 4.15746
80 1 2.87741 0.569854 1.7081
81 1 3.38987 6.28455 1.34221
82 1 2.04335 0.997887 3.86839
83 1 0.734354 9.04961 2.82302
84 1 4.91349 3.6998 8.85421
85 1 7.60159 8.46611 1.07057
86 1 3.84989 9.22423 4.7565
87 1 7.40522 0.916828 7.60655
88 1 4.39403 1.63846 3.00586
89 1 0.434908 3.09932 3.49344
90 1 5.95166 9.2454 8.37139
91 1 0.526851 6.42043 2.35962
92 1 7.92119 2.24223 9.05104
93 1 4.7278 4.2116 3.46233
94 1 3.8109 2.41857 4.5705
95 1 0.0405814 7.91494 3.9704
96 1 3.65496 4.2557 5.49992
97 1 3.66695 8.34059 4.93217
98 1 1.56573 8.20112 6.72594
99 1 6.93502 8.58271 3.66105
100 1 8.56847 2.0455 7.3963
101 1 2.44551 2.86794 0.826003
102 1 7.14005 4.72666 4.74161
103 1 1.10821 2.86296 2.13415
104 1 5.82501 7.57277 2.36375
105 1 2.38665 8.10595 9.03806
106 1 6.8966 2.34727 8.01268
107 1 1.21997 1.83882 9.12167
108 1 9.01579 6.55373 0.442105
109 1 6.556 4.5598 1.74217
110 1 1.70283 7.28005 6.18796
111 1 1.57711 6.15792 5.58695
112 1 0.862365 6.87339 4.48049
113 1 4.65193 4.01262 4.58927
114 1 4.00918 8.39689 2.11559
115 1 0.675426 7.88855 4.68441
116 1 2.88697 5.50616 1.50114
117 1 7.99558 6.98249 1.04843
118 1 7.48946 8.85438 9.36855
119 1 2.05626 0.0779557 0.832252
120 1 2.95415 9.2678 0.392078
121 1 6.66567 6.94233 4.30994
122 1 1.67954 7.17449 4.18943
123 1 1.1653 4.86681 2.56227
124 1 1.98759 5.93932 2.32394
125 1 1.91261 0.366491 6.01016
126 1 1.806 6.56775 4.8398
127 1 5.34721 2.04341 8.90322
128 1 0.183973 3.5331 7.14374
129 1 6.56513 9.11064 6.88105
130 1 0.825469 3.90252 4.6856
131 1 5.82065 3.62849 2.7813
132 1 7.66041 2.99585 8.04579
133 1 6.6977 8.72637 4.58645
134 1 4.97729 5.87436 9.33067
135 1 7.43452 9.10144 8.47755
136 1 3.7923 8.31851 6.07822
137 1 4.9756 5.2668 8.2591
138 1 0.140415 4.51659 4.97585
139 1 7.81103 3.60499 6.48387
140 1 1.00483 1.55355 2.25752
141 1 5.74861 1.62015 1.9444
142 1 0.628746 0.898599 3.0513
143 1 3.66386 6.76409 8.59856
144 1 4.84725 0.191776 8.83597
145 1 8.55829 1.89764 8.57716
146 1 2.87413 4.99073 2.34472
147 1 5.19043 8.03555 8.37615
148 1 2.97209 5.46611 7.68504
149 1 9.31526 1.40394 3.68276
150 1 8.86103 4.76567 4.29439
151 1 8.6746 4.36823 1.23298
152 1 8.906 3.50826 9.21665
153 1 9.07883 2.6059 6.757
154 1 7.01239 7.74427 8.48513
155 1 6.31421 0.613852 7.72728
156 1 1.75595 0.236749 1.81125
157 1 0.385917 3.50263 8.0735
158 1 7.91525 6.61567 7.89248
159 1 4.67506 6.94775 2.48651
160 1 8.69488 5.19627 2.82172
161 1 2.97522 6.19774 2.16467
162 1 8.35772 0.991676 8.64025
163 1 4.07009 7.74979 3.52155
164 1 0.0683391 1.54034 2.63937
165 1 3.15314 1.06223 3.63757
166 1 2.09162 1.1373 5.51912
167 1 4.85805 5.55887 3.60622
168 1 1.67728 2.05188 6.79634
169 1 6.0229 4.90279 0.922433
170 1 0.777018 4.2257 8.44838
171 1 0.500987 0.122161 7.96901
172 1 5.59053 7.43063 7.74791
173 1 7.09355 6.63887 5.92263
174 1 7.16408 5.5489 8.38464
175 1 3.12763 7.05001 0.101439
176 1 5.44381 1.14902 4.83701
177 1 8.65433 1.70419 6.45327
178 1 0.821898 6.3232 6.04926
179 1 6.65904 6.46161 1.22459
180 1 1.03963 1.40042 7.69254
181 1 8.43117 8.35102 5.64694
182 1 0.243655 1.68666 6.95378
183 1 4.43634 5.81201 5.26844
184 1 7.73902 4.43303 3.95269
185 1 9.12909 4.1574 8.4836
186 1 2.40564 2.60987 5.61817
187 1 4.53009 3.68268 6.50341
188 1 2.74537 3.73207 5.44456
189 1 3.69508 4.49495 7.6227
190 1 4.24226 1.5725 4.84355
191 1 7.77721 7.21717 2.70022
192 1 4.18623 3.02469 2.09382
193 1 5.52066 6.01974 8.1371
194 1 0.529598 6.60734 0.603432
195 1 4.36449 7.51739 6.19591
196 1 6.19029 3.06842 5.32616
197 1 6.80172 4.7839 8.68003
198 1 1.49648 1.99845 5.61009
199 1 5.44226 8.25842 0.714454
200 1 3.32947 4.16872 9.1286
201 1 6.30996 6.76299 0.28139
202 1 5.75355 6.55631 4.75706
203 1 6.63478 2.04279 5.18836
204 1 5.80457 4.92374 5.72345
205 1 0.835769 8.66615 8.0435
206 1 6.90589 8.32946 5.54057
207 1 5.82767 8.99847 4.27678
208 1 2.22826 3.9818 8.83125
209 1 3.6265 6.46804 6.26766
210 1 4.6923 1.3755 0.192595
211 1 1.35582 8.93466 1.43681
212 1 5.57696 5.08946 1.78462
213 1 6.18515 5.99946 5.3658
214 1 8.86534 1.7546 1.86784
215 1 1.09759 7.36189 1.19107
216 1 5.09775 4.67222 8.96276
217 1 6.13364 8.96715 2.98805
218 1 0.428214 8.93907 0.661631
219 1 3.73353 1.18842 5.63391
220 1 0.744937 8.34688 6.39309
221 1 7.64868 6.2206 3.08996
222 1 4.37098 8.82321 5.49703
223 1 5.38726 0.537313 7.94704
224 1 7.52418 2.86627 4.13718
225 1 1.86815 0.0215117 8.0259
226 1 8.71793 4.94083 7.14816
227 1 8.37511 2.30831 4.10479
228 1 6.14417 3.41492 4.41361
229 1 3.00967 8.24426 6.56056
230 1 9.25266 8.84167 5.75147
231 1 9.35597 9.26368 2.04413
232 1 8.23625 -0.0064727 1.00704
233 1 0.309829 7.18926 3.53546
234 1 8.75836 4.74397 9.07212
235 1 4.29614 3.11158 1.06162
236 1 5.48967 6.68902 9.27437
237 1 8.85186 3.03792 1.67865
238 1 3.36964 3.35113 8.48447
239 1 4.31533 7.56523 5.19646
240 1 6.32228 1.05745 5.20671
241 1 4.05451 4.87176 3.06179
242 1 8.64116 7.08332 3.14294
243 1 9.29953 7.35891 4.62258
244 1 6.87159 7.31961 6.45732
245 1 3.94553 7.79072 0.342672
246 1 9.30449 9.1317 8.72154
247 1 4.56182 0.170544 7.63209
248 1 0.603214 7.76565 8.09003
249 1 1.25105 4.89448 3.48386
250 1 8.64397 6.20263 3.66463
251 1 1.06103 5.18681 7.98515
252 1 1.70514 4.1783 0.936843
253 1 2.98509 1.42891 1.71926
254 1 8.02863 6.87957 6.40883
255 1 3.43114 1.39192 6.44123
256 1 7.043 7.31215 0.852453
257 1 2.89423 0.677497 7.11902
258 1 8.50945 0.0179784 6.14176
259 1 8.6027 9.33273 7.31008
260 1 4.63825 7.65074 7.03002
261 1 5.16315 8.73462 7.82566
262 1 8.53607 5.92863 6.48293
263 1 6.33687 2.36032 0.505537
264 1 7.07513 7.34947 9.30924
265 1 4.69391 6.93567 0.0221075
266 1 2.8742 2.74612 1.83705
267 1 0.922554 2.62944 6.8421
268 1 9.11258 4.0186 2.81014
269 1 5.01362 5.45533 7.34619
270 1 6.46704 7.23977 5.38661
271 1 1.64983 7.82127 4.85262
272 1 1.59106 0.860634 4.7527
273 1 3.02438 2.34215 3.22624
274 1 6.07397 4.48037 2.50192
275 1 9.22204 1.81711 4.56779
276 1 1.3963 1.19458 1.38463
277 1 6.87639 4.90246 2.96075
278 1 5.19748 3.64285 0.988032
279 1 4.96658 1.74375 6.46047
280 1 7.96336 0.322514 7.98688
281 1 2.27837 6.775 5.71462
282 1 5.77532 6.69246 2.54121
283 1 6.86481 8.69454 7.72719
284 1 7.32533 9.36625 3.82562
285 1 8.45273 1.37869 4.05806
286 1 1.93961 7.64803 2.84418
287 1 1.26946 5.5042 4.94891
288 1 4.56801 4.07782 0.493543
289 1 6.6931 6.78447 2.43156
290 1 5.00404 5.85304 1.92932
291 1 8.46501 2.58004 8.03574
292 1 2.76532 4.96056 5.98413
293 1 1.97352 5.21409 1.06655
294 1 1.73465 4.93156 0.320991
295 1 5.40744 6.06211 6.43558
296 1 2.34218 0.935891 8.96573
297 1 6.02681 2.1 4.42546
298 1 1.48762 8.41376 0.152623
299 1 1.47818 8.08449 5.72216
300 1 6.07622 4.6041 0.149382
301 1 6.69878 4.61448 5.82104
302 1 8.27436 1.32129 0.925419
303 1 5.28206 2.84402 3.85756
304 1 3.30802 5.72471 0.637682
305 1 8.5354 3.03882 6.16758
306 1 1.22866 0.301388 6.82379
307 1 5.38595 0.120282 1.38905
308 1 1.15007 2.3165 2.8503
309 1 6.43382 6.16702 8.82863
310 1 0.174097 9.22935 4.77598
311 1 9.12099 0.840075 9.13252
312 1 4.36281 8.59348 7.05204
313 1 6.44131 4.09633 5.12615
314 1 6.29072 4.00332 7.66879
315 1 5.6433 3.28718 6.16417
316 1 7.09981 9.27507 0.622915
317 1 8.7752 8.70048 4.05597
318 1 7.55121 9.22325 4.77084
319 1 3.2091 5.50763 5.05168
320 1 7.1549 0.344064 2.88458
321 1 1.36052 7.51188 1.99067
322 1 3.64094 0.594987 7.59513
323 1 8.75057 7.19758 7.94742
324 1 8.82549 2.23807 5.73482
325 1 6.27842 1.06704 2.56015
326 1 8.16768 3.56512 1.40179
327 1 7.88099 5.31493 4.30128
328 1 5.86462 7.92835 4.48874
329 1 0.98875 8.79318 4.86171
330 1 6.45894 3.12933 8.65772
331 1 8.62644 6.56299 8.72606
332 1 1.11979 5.68493 2.05212
333 1 9.16759 7.9374 7.52419
334 1 4.08673 2.68223 0.229197
335 1 3.36248 3.40243 2.14905
336 1 1.3129 8.91751 7.24749
337 1 8.18041 2.31349 1.37983
338 1 7.43912 1.75786 6.55778
339 1 7.92583 7.06154 3.66601
340 1 7.66952 3.68534 3.34375
341 1 8.62656 8.45553 9.11916
342 1 2.01644 5.48801 3.75561
343 1 8.68412 3.91399 6.8628
344 1 7.05986 6.77742 8.29544
345 1 4.2151 5.46293 0.60905
346 1 7.3525 4.53338 7.92533
347 1 0.396707 5.04865 9.03552
348 1 3.40435 1.66835 7.40823
349 1 4.76813 9.08826 0.734083
350 1 8.81406 6.97289 4.03343
351 1 2.12681 5.64326 4.61897
352 1 3.82229 6.84004 0.565094
353 1 1.98265 7.69233 1.45012
354 1 2.78991 0.872906 0.537524
355 1 2.93358 4.63288 1.18299
356 1 0.262009 2.71509 7.64315
357 1 4.49726 0.675668 1.37996
358 1 6.05813 8.78461 6.18539
359 1 6.92253 6.43955 5.09287
360 1 6.536 8.03599 7.0794
361 1 8.29941 3.58545 2.42933
362 1 6.74277 3.67642 6.01635
363 1 3.52558 1.94073 5.18191
364 1 3.58526 5.98929 7.17048
365 1 1.20192 3.86503 1.73682
366 1 7.36055 0.610058 8.73926
367 1 0.0630191 7.79752 0.643158
368 1 3.59849 5.86688 8.34326
369 1 9.16396 4.88716 1.85201
370 1 6.061 3.1567 7.02714
371 1 4.38125 3.10051 4.38097
372 1 0.982684 8.96931 5.75153
373 1 1.67067 1.76177 8.29018
374 1 4.46512 1.87783 5.70682
375 1 8.77756 3.46923 7.95473
376 1 4.94662 9.12022 4.22444
377 1 5.11158 7.34754 3.23257
378 1 1.6824 2.71306 6.26828
379 1 6.73715 8.42682 1.34123
380 1 7.02062 0.965773 0.15316
381 1 5.00314 1.99743 4.73154
382 1 3.44266 1.35262 2.64219
383 1 8.77332 4.85012 5.2849
384 1 5.84696 8.22129 5.30078
385 1 8.1117 0.0316291 1.98814
386 1 0.0365118 5.64379 7.5837
387 1 9.17039 3.92676 1.80337
388 1 8.76477 3.58323 4.93588
389 1 3.2132 7.91214 2.4604
390 1 0.458831 1.00852 1.94377
391 1 1.84355 1.87952 2.35332
392 1 3.96374 4.72649 4.13388
393 1 0.442389 1.27147 8.8818
394 1 2.11986 3.41181 2.8315
395 1 3.48581 4.38225 2.08341
396 1 3.5179 0.435743 0.940989
397 1 6.37632 2.29973 1.44847
398 1 2.53268 9.00553 8.55977
399 1 6.10514 6.65695 6.08885
400 1 5.40218 2.98736 8.02809
401 1 0.0290047 2.5915 1.19319
402 1 8.20169 8.23614 2.84156
403 1 6.73805 1.6378 3.63769
404 1 1.11921 1.31819 6.80389
405 1 1.58307 -0.0313326 5.17489
406 1 8.9378 0.80448 1.90029
407 1 6.37827 1.48876 7.53095
408 1 2.11293 2.92289 4.79449
409 1 1.28719 6.45811 0.037725
410 1 0.341466 4.1572 9.39866
411 1 3.75046 2.48275 2.5999
412 1 8.59957 4.01722 5.8436
413 1 7.46183 0.693702 1.08885
414 1 0.171087 4.77844 8.10127
415 1 2.30656 7.24432 9.12114
416 1 4.9484 5.08747 2.78173
417 1 6.16594 7.06184 8.44028
418 1 2.69756 3.66274 8.07987
419 1 5.10904 4.94576 0.426349
420 1 0.935207 4.48349 6.41593
421 1 6.23753 4.89141 6.64676
422 1 2.94913 2.03683 2.43385
423 1 0.139401 0.11154 7.10674
424 1 4.65949 2.76739 8.90937
425 1 3.53882 5.80183 3.3354
426 1 1.06438 0.0812727 4.20517
427 1 3.60493 9.18157 8.84168
428 1 2.2602 6.44841 7.55999
429 1 1.34373 5.80181 2.91854
430 1 7.70929 4.71427 1.47661
431 1 8.67384 7.47271 5.45337
432 1 8.00766 5.48687 3.30418
433 1 3.50519 6.46674 5.38222
434 1 4.38762 6.7536 5.65216
435 1 6.51526 -0.00574574 9.28041
436 1 5.65518 4.53315 4.5633
437 1 1.66151 3.75854 8.21308
438 1 7.54295 2.00866 7.4126
439 1 3.72531 1.0966 1.56478
440 1 6.238 3.93353 1.01039
441 1 2.64877 6.40716 0.877667
442 1 0.705576 1.83653 6.19393
443 1 6.87905 2.74347 6.11903
444 1 1.84131 8.46896 4.11064
445 1 5.60158 0.427878 2.97118
446 1 0.40818 8.66103 7.28039
447 1 4.48721 7.40243 4.29722
448 1 2.56952 1.40965 6.7787
449 1 7.9256 1.73642 2.03665
450 1 2.22071 1.26445 1.23349
451 1 2.07458 4.716 3.09017
452 1 3.73176 1.26916 0.544704
453 1 7.54995 1.93226 4.68869
454 1 1.64254 0.868287 8.19054
455 1 8.5683 5.72249 5.51784
456 1 9.28484 8.59237 2.75988
457 1 1.24197 4.82655 1.54423
458 1 4.45854 3.09997 8.1237
459 1 2.22792 1.82636 3.92934
460 1 1.68976 2.0782 0.837611
461 1 4.37468 9.07375 6.31193
462 1 1.26567 2.78569 4.43738
463 1 6.12357 2.75174 2.25423
464 1 2.07375 5.0566 1.95077
465 1 5.07329 9.10793 5.13762
466 1 0.707334 7.36785 6.29429
467 1 2.6635 4.6785 7.12627
468 1 4.73711 4.61379 7.67342
469 1 1.2292 5.48524 6.43235
470 1 0.615116 0.359106 5.32132
471 1 7.74276 5.9366 6.01927
472 1 6.2988 0.347167 6.26906
473 1 4.23229 6.23179 7.70699
474 1 2.98608 5.40491 4.08067
475 1 4.54416 1.08153 7.74634
476 1 9.10966 8.81375 7.92206
477 1 6.43776 1.22509 0.809997
478 1 1.13838 1.1449 5.46237
479 1 8.18539 1.98012 2.91245
480 1 8.58265 7.91471 4.59836
481 1 7.40254 2.9003 2.83484
482 1 6.43942 6.13816 7.93605
483 1 7.38802 3.76489 2.28803
484 1 3.65374 5.10403 1.41604
485 1 0.67645 5.49096 4.1313
486 1 3.7377 4.27882 6.56017
487 1 8.44485 1.59704 5.10103
488 1 6.89327 3.31266 7.7808
489 1 9.12289 4.17254 7.55533
490 1 7.86833 2.1453 5.78044
491 1 3.30952 1.89882 1.07003
492 1 7.65094 0.777308 4.21119
493 1 0.293044 5.68735 0.440563
494 1 6.57064 1.35819 4.47213
495 1 5.53338 7.30652 0.61108
496 1 5.21889 2.32874 5.72121
497 1 8.20577 0.115705 3.83425
498 1 3.39021 8.96068 7.98416
499 1 7.63328 8.82385 5.66575
500 1 4.78809 2.38404 2.7037
501 1 8.20169 8.59025 6.82453
502 1 7.43039 0.823355 2.21503
503 1 5.80634 1.71974 1.03578
504 1 5.66692 8.62175 8.94095
505 1 8.34873 5.0586 0.474472
506 1 9.16244 8.0048 2.05429
507 1 3.74018 7.58913 7.99403
508 1 4.41557 4.84155 2.07243
509 1 7.97332 0.251007 0.184517
510 1 9.21369 7.01661 2.18677
511 1 1.43241 6.20785 4.14425
512 1 3.4295 5.1512 6.81906
513 1 3.56031 9.26961 6.95731
514 1 6.2768 7.41666 3.60649
515 1 9.13534 5.78639 2.18758
516 1 6.19177 8.07133 8.14013
517 1 2.68842 8.14157 3.65686
518 1 0.893995 8.01992 8.93835
519 1 8.18134 6.76629 4.67991
520 1 0.396445 7.6321 1.55851
521 1 0.454783 4.00308 5.90222
522 1 4.43971 4.5668 5.88746
523 1 3.15764 8.71427 1.15009
524 1 1.22619 0.61098 2.45545
525 1 9.35871 7.72196 2.87542
526 1 0.555394 3.50795 2.44869
527 1 9.31848 3.99089 4.05769
528 1 5.03659 3.46636 3.01223
529 1 6.97997 0.197931 7.86941
530 1 2.73254 4.05956 2.51704
531 1 4.52793 2.36637 7.2897
532 1 6.78972 4.0653 0.180997
533 1 5.08969 6.6136 7.31671
534 1 8.41186 7.31386 7.19259
535 1 0.370955 1.83361 1.61271
536 1 9.03397 0.980904 6.69198
537 1 7.16184 9.28226 1.75301
538 1 8.09947 0.375799 5.42698
539 1 1.70145 7.65579 0.528501
540 1 2.04045 4.02697 3.63361
541 1 8.14433 5.64355 8.70693
542 1 8.21666 9.19695 8.88436
543 1 7.84582 7.66048 7.97351
544 1 8.28343 2.84366 3.19208
545 1 2.90113 8.9762 5.51707
546 1 6.89827 0.380069 4.53849
547 1 0.441051 3.37931 1.56189
548 1 2.08543 0.125071 4.4356
549 1 1.44978 2.70842 8.49878
550 1 7.97393 7.1415 8.87787
551 1 8.45316 4.0102 3.45668
552 1 5.45435 5.49341 5.02496
553 1 1.57619 8.82806 8.77409
554 1 7.72967 8.12165 8.92671
555 1 9.16719 8.40074 1.22902
556 1 5.88543 5.9536 7.27981
557 1 8.30246 5.38283 2.12636
558 1 5.84889 5.4516 2.53974
559 1 5.16552 6.16632 2.93704
560 1 6.96592 5.64923 3.66287
561 1 4.99271 3.2048 7.08292
562 1 8.62172 0.49672 4.51838
563 1 7.26424 1.87932 1.15329
564 1 4.2441 1.29415 2.23476
565 1 4.61174 0.859845 5.82959
566 1 2.49711 7.28926 0.730274
567 1 5.4013 7.42184 1.56583
568 1 6.89092 3.07912 3.59093
569 1 5.21363 4.59295 6.37732
570 1 5.31752 1.42388 7.20958
571 1 2.60986 3.22359 9.3222
572 1 0.844494 7.02324 8.55536
573 1 0.256213 5.64233 1.46733
574 1 8.3284 6.5198 1.96977
575 1 7.2687 7.76707 3.99664
576 1 3.85114 9.28949 1.56513
577 1 0.562631 8.46662 2.08545
578 1 1.67697 8.33513 2.04143
579 1 2.09186 6.76069 1.5207
580 1 5.71452 1.4558 8.158
581 1 4.03024 0.230811 5.51472
582 1 3.94591 6.80561 2.01879
583 1 0.58967 8.65834 3.84049
584 1 5.89596 5.99445 1.61584
585 1 6.53345 0.0542469 2.29989
586 1 4.3603 7.4838 8.82964
587 1 5.62651 9.17909 2.17554
588 1 3.79484 1.3784 8.28138
589 1 2.6043 1.10613 4.67989
590 1 3.17741 5.31318 9.16981
591 1 8.81162 5.80884 0.958753
592 1 5.33905 4.14173 7.14141
593 1 0.521804 0.35074 8.79626
594 1 4.6658 7.23282 0.89406
595 1 5.21306 6.97292 8.49587
596 1 1.23247 3.63579 5.48624
597 1 8.31877 3.00906 0.729163
598 1 8.00946 0.86295 3.40273
599 1 0.454474 4.5068 1.20912
600 1 1.5235 4.71943 4.31263
601 1 7.02968 4.48567 6.91027
602 1 7.58793 1.48432 8.34854
603 1 3.71772 2.78315 7.78828
604 1 2.01404 3.18327 2.01375
605 1 5.30747 8.95877 3.37608
606 1 4.82007 7.79534 2.15688
607 1 6.83375 2.31234 4.21274
608 1 4.70335 1.05073 3.85566
609 1 6.28808 7.7581 0.75218
610 1 1.39441 2.28719 3.6605
611 1 4.72924 0.470184 6.86386
612 1 7.17884 1.86781 0.0393363
613 1 4.51628 3.83113 1.64605
614 1 4.99086 6.89093 6.31838
615 1 6.14717 4.22639 3.52132
616 1 5.19565 8.07252 3.87419
617 1 2.01683 5.64828 7.88429
618 1 7.71778 5.52758 0.022709
619 1 3.63794 4.54788 0.45166
620 1 4.56089 7.24645 7.75514
621 1 0.345424 6.31464 9.19252
622 1 9.14388 0.344102 1.121
623 1 2.44361 8.33863 7.15082
624 1 0.02509 5.39573 6.58703
625 1 5.80313 7.39513 6.73687
626 1 0.571765 2.69186 8.65299
627 1 9.19965 5.75761 8.6124
628 1 2.06867 0.312527 7.10886
629 1 8.00956 4.82502 8.47321
630 1 8.30823 6.66407 5.62716
631 1 1.23154 7.90724 3.97158
632 1 5.30679 7.47171 5.61459
633 1 0.167034 7.06742 7.45265
634 1 5.95292 0.289855 4.70458
635 1 3.59625 8.58371 3.94644
636 1 2.58272 5.95034 2.9381
637 1 4.36598 5.82086 6.7827
638 1 1.95127 3.82214 4.47116
639 1 6.71939 9.25891 5.48886
640 1 2.4498 4.05021 0.277612
641 1 4.25597 3.66368 5.52762
642 1 3.30016 9.02867 2.18212
643 1 5.55705 2.77155 2.94402
644 1 7.46932 1.10688 5.01749
645 1 0.82418 0.288362 1.46044
646 1 7.39715 6.50004 1.73287
647 1 5.97256 1.15911 3.85097
648 1 4.30662 1.83865 4.00465
649 1 7.10321 0.640891 5.66213
650 1 4.42942 6.52689 3.55716
651 1 0.267773 0.101195 3.61173
652 1 7.07344 7.01086 3.47435
653 1 5.56182 0.855132 6.59059
654 1 6.78384 1.42436 5.92762
655 1 5.69184 4.93773 7.86554
656 1 5.84628 3.55888 1.69773
657 1 4.2511 5.35548 8.90353
658 1 1.90011 4.82291 8.21378
659 1 7.93001 2.50172 6.69571
660 1 4.27847 4.8442 6.94112
661 1 2.09216 3.35959 5.9514
662 1 1.85826 4.26573 5.15801
663 1 4.38096 8.21209 7.86576
664 1 5.04563 1.32206 1.50072
665 1 6.45608 8.33104 2.18532
666 1 3.26798 7.69756 0.998398
667 1 3.02888 0.401892 8.34855
668 1 0.529872 4.33503 2.29787
669 1 3.21573 7.53438 8.74089
670 1 2.5449 5.64658 8.56968
671 1 4.88323 3.21087 0.330406
672 1 1.23621 3.28808 3.15298
673 1 2.57925 4.85656 5.10491
674 1 3.55553 7.54339 6.75786
675 1 4.96747 4.75923 5.22756
676 1 5.47191 6.62485 3.82039
677 1 0.954535 8.2159 1.08508
678 1 1.40893 0.263356 3.37777
679 1 1.21396 4.30815 7.64468
680 1 3.68682 2.5159 8.70263
681 1 2.86815 6.22183 4.68543
682 1 1.47189 3.57377 6.49585
683 1 6.23703 7.842 5.96758
684 1 3.04424 8.35133 0.165564
685 1 3.64041 6.44657 4.0555
686 1 7.26352 2.68456 5.17325
687 1 6.18551 8.21793 3.57073
688 1 7.39589 8.38083 2.4319
689 1 0.536713 4.81792 7.21676
690 1 3.06029 4.95116 3.28607
691 1 2.98132 7.15105 1.75224
692 1 2.35437 3.19124 6.93365
693 1 8.74023 1.67598 0.014274
694 1 2.74381 8.50271 4.49011
695 1 2.86551 0.699504 2.74003
696 1 6.27917 0.10553 3.63405
697 1 3.87514 0.372102 4.02927
698 1 1.3803 3.03847 1.33575
699 1 2.62867 9.25791 7.62301
700 1 5.9731 8.88412 1.06998
701 1 3.9888 7.61733 1.60168
702 1 3.43348 9.31791 6.08676
703 1 9.30564 8.36785 4.89443
704 1 5.26173 2.14638 7.75032
705 1 3.94047 1.83322 9.18422
706 1 2.60065 1.99934 0.368956
707 1 0.787776 2.01539 8.23469
708 1 0.753933 8.87032 9.08943
709 1 3.67435 5.59431 2.19221
710 1 7.77657 6.05018 4.9574
711 1 6.68854 1.9969 2.27431
712 1 2.6812 8.23802 1.73402
713 1 2.42157 9.07986 1.71589
714 1 5.41207 3.99809 0.194121
715 1 7.03268 5.6459 4.60302
716 1 8.17672 6.39305 0.437009
717 1 1.96776 6.55698 6.59922
718 1 6.88242 3.5241 1.4823
719 1 6.56331 2.29997 7.0976
720 1 9.16468 3.44118 0.740067
721 1 8.87407 2.68548 4.77654
722 1 8.89225 2.60943 0.0844203
723 1 1.50006 6.73252 2.49329
724 1 5.31168 4.45693 1.30967
725 1 3.95092 3.99083 8.21584
726 1 8.32267 4.93311 6.11195
727 1 7.51227 0.26597 6.50105
728 1 0.345384 3.04828 4.56746
729 1 3.35392 2.81338 1.09148
730 1 4.1243 5.30748 7.71812
731 1 2.69198 2.46306 4.39738
732 1 5.37959 3.76499 3.94777
733 1 7.18961 5.36274 7.19599
734 1 5.14677 3.11178 2.16021
735 1 3.36311 7.28555 3.38879
736 1 7.75625 3.66171 7.41109
737 1 7.89718 4.53695 7.06338
738 1 5.55674 2.35394 6.70973
739 1 5.11548 6.31528 5.58235
740 1 5.1591 2.28548 1.71059
741 1 6.25484 6.03053 4.20588
742 1 7.6951 4.65469 3.0306
743 1 8.13093 2.67127 2.2071
744 1 3.91216 7.46551 2.72959
745 1 7.60796 1.91258 3.65147
746 1 8.50179 4.06106 0.336807
747 1 9.33422 4.37822 6.55594
748 1 6.67091 1.13823 1.72641
749 1 1.94179 1.97271 4.79229
750 1 9.1215 2.68732 8.5956
751 1 8.47175 6.13387 2.73963
752 1 0.969576 1.50746 0.671485
753 1 4.70827 2.67887 6.35405
754 1 4.68874 8.10665 1.26554
755 1 8.78487 7.55009 1.26982
756 1 4.68377 8.90209 1.69471
757 1 8.28846 4.00973 8.74286
758 1 3.08348 6.67298 7.91218
759 1 3.45408 7.21375 5.9588
760 1 3.97025 0.137219 2.52764
761 1 2.191 8.95312 -0.0438692
762 1 8.03354 5.53411 7.57323
763 1 0.879357 2.69747 0.587467
764 1 6.97825 0.819878 3.59648
765 1 2.4271 4.86353 8.96407
766 1 5.63899 0.723648 9.1028
767 1 6.09501 1.62542 6.61078
768 1 2.35134 7.60107 5.41431
769 1 9.0416 7.07404 6.49494
770 1 7.40165 5.06594 6.2805
771 1 6.98707 8.12971 0.327916
772 1 9.34584 8.07142 8.61174
773 1 3.49427 1.07178 9.15104
774 1 7.68528 8.17794 4.76717
775 1 3.54978 8.23798 7.29482
776 1 4.58236 6.30057 8.56474
777 1 6.48752 5.86931 6.49395
778 1 7.61108 4.51841 9.27658
779 1 5.28615 4.20426 2.29879
780 1 8.17602 3.09663 8.7844
781 1 1.97502 8.77681 6.08432
782 1 7.81088 5.08534 5.32662
783 1 7.24907 3.61078 4.64804
784 1 4.54918 0.583478 4.73124
785 1 2.80372 6.49775 6.9105
786 1 1.2751 6.79789 7.79514
787 1 0.193632 2.48075 2.2067
788 1 6.16666 2.30779 3.58084
789 1 4.93799 6.56397 1.45987
790 1 3.98295 3.5966 3.36929
791 1 8.75859 8.08793 3.43108
792 1 5.85431 5.54617 9.37754
793 1 7.28966 6.41353 0.565225
794 1 4.61796 8.25439 0.0845422
795 1 1.43896 4.49388 9.03849
796 1 3.38635 1.95235 3.96379
797 1 6.62376 8.67652 8.82217
798 1 7.10868 5.06049 0.643329
799 1 4.60693 0.273844 3.19252
800 1 2.73837 0.540123 6.26382
801 2 7.15411 2.99953 6.96592
802 2 1.87502 1.12012 7.35027
803 2 1.92621 8.44811 7.97449
804 2 5.57798 5.53646 4.11821
805 2 7.48084 7.2474 4.76962
806 2 8.36462 0.881854 2.63953
807 2 0.102156 4.94146 5.82244
808 2 5.42026 4.77806 3.49594
809 2 4.78453 5.33043 5.97433
810 2 4.46686 8.78784 3.59361
811 2 1.93828 1.52598 0.280466
812 2 2.60047 3.61566 1.26319
813 2 5.85824 0.676717 1.85525
814 2 9.34545 6.51697 2.98482
815 2 3.3992 3.69542 7.35039
816 2 8.69167 6.04264 4.56134
817 2 8.74964 5.01042 8.19821
818 2 2.24944 8.53187 0.925155
819 2 2.09759 8.70926 5.13352
820 2 6.63247 5.87797 2.87597
821 2 7.61461 6.13836 6.92072
822 2 6.25015 7.83574 9.07911
823 2 1.33991 2.35874 7.68568
824 2 3.60296 6.60303 2.77833
825 2 3.70224 8.25422 8.80217
826 2 3.58075 3.73208 1.23579
827 2 4.02555 2.17996 6.41882
828 2 7.23968 2.54185 1.82949
829 2 0.750879 2.44233 5.13715
830 2 0.326912 6.53449 1.48735
831 2 7.97386 8.44453 3.77877
832 2 1.89544 7.47685 7.22063
833 2 6.73649 7.77747 4.71185
834 2 9.28907 1.9101 8.01175
835 2 3.55899 4.90796 8.39404
836 2 0.964617 8.27295 3.1043
837 2 4.62474 6.53783 4.52725
838 2 5.71972 6.45991 0.922442
839 2 0.498943 8.0539 5.65185
840 2 7.55615 4.0904 0.766383
841 2 5.25042 5.62047 0.936597
842 2 1.30962 3.59092 3.96075
843 2 4.58198 8.55527 2.73334
844 2 2.44585 4.72152 4.24806
845 2 1.0321 6.83809 6.88753
846 2 7.93699 1.16621 9.38646
847 2 4.93516 0.518135 2.22428
848 2 0.68271 7.34066 2.59167
849 2 1.19587 7.13112 5.30953
850 2 0.980604 5.10133 5.65365
851 2 4.27841 2.5842 3.52769
852 2 6.50268 5.81337 0.581524
853 2 2.65855 5.05507 0.412656
854 2 3.92822 0.509532 6.47646
855 2 6.96886 4.02805 3.88401
856 2 1.03864 6.63485 3.34259
857 2 7.57724 8.20266 7.33806
858 2 4.03412 5.74929 4.23898
859 2 5.50546 0.182259 5.86154
860 2 3.67311 5.58262 5.96197
861 2 2.17162 2.38015 9.00579
862 2 1.48543 5.47314 8.8578
863 2 1.5781 0.289131 8.89116
864 2 0.658123 3.36642 9.24943
865 2 9.02248 1.11083 5.62726
866 2 4.13228 0.404008 0.0127597
867 2 8.02935 4.30121 4.93415
868 2 0.690201 1.73622 3.28558
869 2 7.89915 7.56324 0.464337
870 2 0.531883 6.20623 5.00275
871 2 7.53397 4.06592 5.58388
872 2 2.44405 1.44916 3.11837
873 2 4.10691 2.73639 5.72328
874 2 6.25415 4.03709 8.57073
875 2 8.43592 7.39819 2.15857
876 2 2.89205 3.55304 4.41566
877 2 8.92491 0.415567 8.17724
878 2 8.38157 8.36546 1.56512
879 2 1.27277 9.21342 0.328961
880 2 3.23638 4.09544 3.51381
881 2 9.20867 4.87785 0.599946
882 2 9.13356 9.3381 0.217722
883 2 8.39712 8.29308 8.04588
884 2 5.15453 2.30676 0.429551
885 2 4.14031 1.37685 7.02387
886 2 0.0332647 5.86774 5.84762
887 2 2.62375 2.07712 7.9853
888 2 7.6723 9.10235 7.26726
889 2 8.57491 9.1951 2.73347
890 2 6.50721 0.299122 1.217
891 2 4.51313 8.71071 8.63825
892 2 5.9604 4.10481 6.41088
893 2 4.4429 8.35865 4.4766
894 2 5.29759 8.27231 6.93985
895 2 1.21473 2.06703 1.5488
896 2 3.03237 0.372668 5.08937
897 2 4.39798 3.93638 2.61796
898 2 1.42789 6.03359 7.20934
899 2 5.50316 8.32693 1.79083
900 2 8.85215 6.44498 7.43002
901 2 4.33791 4.61659 1.15161
902 2 6.7728 3.90151 2.90972
903 2 6.09119 2.2757 5.98638
904 2 8.42752 3.10158 7.23662
905 2 6.57728 4.88773 4.06265
906 2 5.15642 8.50295 5.84231
907 2 6.14733 5.4154 8.4154
908 2 3.02633 3.19938 3.14359
909 2 8.33515 4.24832 7.83801
910 2 8.53058 8.37309 0.626679
911 2 6.55365 5.49201 1.97907
912 2 0.223577 0.731054 4.53668
913 2 9.08908 3.15403 2.67753
914 2 0.974693 7.36055 0.166921
915 2 7.26286 3.86495 8.67149
916 2 5.5589 4.02623 5.44492
917 2 6.76896 6.50938 7.04801
918 2 1.05296 1.59379 4.73301
919 2 9.04189 8.70488 6.68512
920 2 0.873412 5.034 0.612274
921 2 7.36572 5.61951 2.48289
922 2 3.22101 4.34638 4.60868
923 2 0.511678 4.61864 4.17049
924 2 7.84068 7.74828 6.56134
925 2 8.05077 2.96315 5.28522
926 2 8.85745 5.70321 0.0167962
927 2 6.13285 6.86877 1.7504
928 2 9.07018 6.49176 5.19109
929 2 7.3337 2.84601 0.552124
930 2 2.65801 2.23977 7.15398
931 2 6.47744 7.23884 7.56693
932 2 6.26476 2.13164 8.62672
933 2 0.677435 0.544174 0.540969
934 2 8.73981 0.691498 0.480204
935 2 5.34438 0.0228067 0.179552
936 2 1.00838 3.54187 0.669548
937 2 4.18914 4.45241 8.94059
938 2 3.70437 0.946745 4.72774
939 2 4.56347 1.88607 1.07046
940 2 0.599898 2.10969 4.13578
941 2 8.37526 4.42016 2.10094
942 2 4.15031 6.80705 6.92098
943 2 4.74105 6.27473 0.661282
944 2 5.21605 7.33604 4.7229
945 2 1.05197 5.87391 0.852177
946 2 3.22626 0.150705 3.35125
947 2 0.753298 2.8894 5.93346
948 2 4.29771 6.04041 2.7589
949 2 7.5871 6.30405 4.14185
950 2 0.408105 5.34868 2.44624
951 2 6.69107 7.49026 1.78525
952 2 4.02743 2.22337 1.76144
953 2 6.9586 5.54811 5.63025
954 2 6.93665 0.933313 6.67959
955 2 3.02132 8.21061 8.28184
956 2 3.49879 7.64954 4.30658
957 2 5.54403 3.03212 8.95073
958 2 2.12142 5.76412 0.170358
959 2 0.177454 1.72116 5.45273
960 2 4.26477 3.86325 7.38886
961 2 6.52959 1.11845 8.67804
962 2 2.64313 7.35221 6.53522
963 2 0.633061 6.01272 8.06607
964 2 1.31812 4.09651 2.8782
965 2 2.81352 1.67764 5.79402
966 2 6.21079 8.67062 0.18734
967 2 8.83447 7.31302 9.26411
968 2 8.05919 1.15561 6.02638
969 2 0.215772 2.02606 9.34541
970 2 4.01441 3.58893 0.0645709
971 2 7.74607 9.0474 3.13267
972 2 5.29603 1.28204 2.78305
973 2 7.06696 8.53009 6.36085
974 2 4.56462 1.93904 8.46009
975 2 1.49627 1.48981 3.14194
976 2 1.21317 0.94397 9.37437
977 2 0.327473 0.872084 7.51455
978 2 2.39597 9.07068 3.53538
979 2 5.35203 0.885915 0.709161
980 2 7.39812 7.2375 7.11611
981 2 0.00420025 5.52192 4.83246
982 2 2.88043 1.75098 8.78921
983 2 2.66006 7.05221 2.56773
984 2 3.45596 3.00972 3.98671
985 2 4.01034 0.899457 3.17204
986 2 1.62139 7.55489 8.37317
987 2 7.39883 1.53683 2.84382
988 2 5.6819 9.35847 7.28652
989 2 1.83309 6.48354 8.77659
990 2 7.92776 5.54897 1.04826
991 2 2.25402 2.11259 1.50248
992 2 5.46072 3.92491 8.10218
993 2 9.27277 2.99429 5.55857
994 2 4.02459 5.05179 4.97984
995 2 2.68689 4.14488 6.38181
996 2 9.11041 2.30666 3.22532
997 2 1.98889 2.92406 7.76672
998 2 1.8891 5.29668 5.61747