#bin. KALJ data file T=0.5

1000 atoms
2 atom types

0 9.4 xlo xhi
0 9.4 ylo yhi
0 9.4 zlo zhi

Masses

1 1.0
2 1.0

Atoms

1 1 2.6175 1.35435 5.48158
2 1 7.6184 7.07051 4.13254
3 1 0.948229 6.81771 0.976349
4 1 4.79794 6.28309 8.75102
5 1 3.9302 7.84284 5.73693
6 1 7.52017 7.81064 0.873522
7 1 3.87633 0.345523 2.61407
8 1 9.37173 6.36054 3.82759
9 1 2.47647 0.901229 0.486961
10 1 6.66162 1.09456 5.84286
11 1 0.244579 5.75839 7.51965
12 1 6.73472 6.76094 6.08237
13 1 0.307778 7.77558 9.27122
14 1 2.877 6.61476 4.06756
15 1 2.77576 2.21048 2.11846
16 1 2.76197 2.77324 8.25132
17 1 5.10725 7.5486 2.7155
18 1 4.85564 0.517191 8.0453
19 1 1.0699 8.97343 4.69539
20 1 5.57633 5.31419 2.24352
21 1 0.144296 0.977473 2.59844
22 1 8.33057 5.11988 0.430446
23 1 8.18859 9.03089 4.04769
24 1 4.50312 2.26268 6.57518
25 1 3.80603 0.426272 7.33627
26 1 8.47698 3.18447 3.72564
27 1 8.0836 1.7611 5.40612
28 1 3.64666 1.98007 2.3847
29 1 0.284056 7.85396 5.53139
30 1 6.20752 5.75754 8.91142
31 1 8.88407 6.88845 7.57647
32 1 2.81171 2.08225 6.03539
33 1 2.27092 8.6738 5.71269
34 1 5.23623 4.6669 3.04332
35 1 5.01642 0.627971 1.89917
36 1 5.80606 4.20424 8.49959
37 1 3.20149 6.65482 6.72991
38 1 8.34991 1.97915 1.55121
39 1 7.28473 0.0800689 7.18267
40 1 8.98586 8.74343 7.99478
41 1 7.07154 1.43377 7.59541
42 1 7.17592 3.14018 2.1667
43 1 1.10446 7.66421 6.94925
44 1 3.40303 0.99084 7.91006
45 1 8.92848 4.40219 6.54672
46 1 0.715592 0.0931741 7.44799
47 1 3.13101 7.96664 7.21964
48 1 0.119055 1.86016 4.78762
49 1 4.72271 4.60931 4.63122
50 1 5.40456 9.11908 3.34386
51 1 1.69599 6.37769 6.21047
52 1 8.6515 2.01542 7.86499
53 1 3.32626 6.44986 0.423556
54 1 5.51557 7.36284 6.16855
55 1 9.22073 7.55951 1.13255
56 1 2.24346 4.53067 6.91259
57 1 5.62852 5.74363 0.249263
58 1 3.38462 9.14298 4.48795
59 1 7.82681 3.22844 7.19903
60 1 4.37267 1.87724 3.64174
61 1 4.00463 0.559982 8.35421
62 1 4.31955 4.08249 8.04593
63 1 6.94106 8.5727 7.37473
64 1 4.16789 2.3445 9.13307
65 1 6.86554 5.30961 8.39335
66 1 2.50764 8.56367 0.667635
67 1 5.95158 5.20736 1.00809
68 1 4.88287 9.17337 2.01868
69 1 5.0743 3.49934 8.90304
70 1 1.8757 3.67509 1.7577
71 1 2.48202 0.28615 5.66319
72 1 2.76023 6.22532 4.89429
73 1 5.64644 3.96276 2.13202
74 1 1.79358 2.82233 7.45661
75 1 6.28732 4.38479 4.5147
76 1 0.642643 8.54904 7.13466
77 1 0.523432 6.69392 7.09261
78 1 4.01957 9.3197 5.23794
79 1 4.5544 5.53193 2.30084
80 1 4.50596 8.85168 0.3397
81 1 8.3765 7.10488 3.27141
82 1 3.89586 5.64131 0.732312
83 1 0.554603 9.2696 1.8745
84 1 7.67475 6.1499 3.32717
85 1 4.6583 3.0196 5.96661
86 1 0.956507 0.772774 3.03086
87 1 6.10386 8.92316 6.3272
88 1 5.16477 2.36423 5.49312
89 1 8.59684 8.76737 8.84109
90 1 7.64159 0.234985 1.55773
91 1 7.38447 2.52658 6.26922
92 1 1.13378 2.62106 1.78808
93 1 0.869401 3.19871 1.0993
94 1 4.23287 0.828834 5.62084
95 1 8.70883 6.23929 3.0264
96 1 8.77772 3.56015 0.543139
97 1 0.542479 7.40139 1.62938
98 1 3.51538 7.47633 6.52174
99 1 4.75039 2.82314 4.85602
100 1 6.40896 3.37894 2.60564
101 1 6.10088 9.31531 7.68044
102 1 0.0329073 4.94285 3.55946
103 1 9.21832 1.20899 4.25209
104 1 3.86412 8.2582 6.97896
105 1 1.1741 0.792268 5.77241
106 1 5.8039 0.168144 2.5046
107 1 8.85369 7.88852 2.91479
108 1 0.40738 4.18301 0.666906
109 1 1.00371 6.22687 4.74571
110 1 1.49246 9.26563 5.54743
111 1 7.67304 6.77974 6.6908
112 1 8.74688 1.25687 4.98592
113 1 5.87817 7.11699 3.40592
114 1 5.45944 0.720326 3.42078
115 1 4.29467 3.86697 3.3779
116 1 5.37306 4.11838 4.02967
117 1 8.61862 1.0436 8.30301
118 1 2.09656 2.05849 7.70847
119 1 5.25606 8.91126 6.52697
120 1 8.07082 8.48457 8.19885
121 1 4.33012 5.6408 3.41853
122 1 9.28338 8.65963 5.33883
123 1 8.39227 5.36272 4.07533
124 1 7.69739 4.52943 0.818142
125 1 9.12732 0.329784 5.25832
126 1 3.70688 8.21945 4.77457
127 1 2.68048 1.23923 1.61665
128 1 7.36872 8.7662 3.58457
129 1 6.77881 4.01125 8.62748
130 1 1.0149 8.30602 9.10678
131 1 9.10567 1.90069 5.68499
132 1 5.0753 7.61783 5.47428
133 1 4.75714 4.38289 9.08091
134 1 6.8755 1.01646 1.51857
135 1 5.70737 2.3009 1.18552
136 1 4.70225 5.483 8.3381
137 1 5.58136 1.24098 2.38794
138 1 3.83847 0.292977 0.60349
139 1 5.63385 1.50501 4.93192
140 1 8.40276 8.79612 6.54048
141 1 2.1498 7.6486 6.9752
142 1 0.605319 6.86833 8.83649
143 1 6.75509 6.4099 7.0639
144 1 9.27149 2.90833 7.10143
145 1 9.05023 7.22853 8.95898
146 1 5.34594 1.66109 0.619905
147 1 5.14515 3.14759 2.67679
148 1 2.80367 8.83146 8.97891
149 1 1.42184 9.2706 3.00251
150 1 1.59438 8.73361 0.489023
151 1 6.16484 8.62586 2.62307
152 1 6.04252 2.36668 3.97552
153 1 5.29655 4.94741 3.96082
154 1 7.86439 7.44832 7.4124
155 1 9.33922 6.88022 3.09077
156 1 3.67512 6.85491 3.72882
157 1 3.24461 2.58643 9.04604
158 1 8.96552 8.34689 4.02907
159 1 8.79546 6.94621 6.27387
160 1 8.86176 0.95808 0.128159
161 1 6.06138 0.291797 6.76491
162 1 5.81085 2.44588 6.27664
163 1 6.17694 1.59975 9.38619
164 1 3.11297 2.03012 7.86059
165 1 5.69715 0.794309 8.26159
166 1 8.61699 0.628828 4.40006
167 1 6.96361 4.9047 1.09285
168 1 6.69437 2.57158 2.76407
169 1 1.72784 6.85793 6.92058
170 1 1.37684 3.49118 4.29431
171 1 1.49484 1.50502 6.64583
172 1 4.19344 8.99819 7.62345
173 1 1.33582 8.22137 6.21324
174 1 3.26707 5.06888 2.88208
175 1 7.87344 2.26236 3.71283
176 1 8.62709 1.65385 8.96034
177 1 3.52881 0.210071 6.0785
178 1 3.0896 4.04576 6.46443
179 1 5.38975 0.930827 7.31391
180 1 1.51475 7.26172 4.5121
181 1 0.933485 2.18081 7.24758
182 1 6.86015 2.45335 4.81036
183 1 4.10107 2.17382 8.16926
184 1 0.225266 8.8758 8.99378
185 1 3.24172 4.56429 7.33622
186 1 7.07962 1.802 3.04962
187 1 4.46023 2.19035 2.83919
188 1 7.44355 1.12578 5.37019
189 1 1.88504 2.75949 2.08275
190 1 0.97224 5.69706 1.18731
191 1 9.05403 4.68662 9.21815
192 1 2.58428 1.68001 8.4473
193 1 3.54295 4.20914 2.98383
194 1 8.70768 2.50816 3.18536
195 1 7.01187 2.16674 3.88692
196 1 8.32031 7.89942 8.94295
197 1 2.80343 7.50831 3.42872
198 1 2.16879 7.71763 5.29255
199 1 8.22591 7.49858 5.83449
200 1 5.16585 9.38267 7.32672
201 1 6.97723 0.31066 8.76143
202 1 7.10643 8.75726 2.67651
203 1 5.79933 7.33666 0.0317916
204 1 5.70553 8.17619 6.6446
205 1 7.72394 2.55058 1.02547
206 1 7.28956 9.17988 8.06712
207 1 5.27808 8.44041 2.53821
208 1 7.28866 6.27689 0.525362
209 1 2.93214 6.44948 8.11665
210 1 4.14935 2.47726 5.30888
211 1 6.83903 7.98097 5.27449
212 1 8.19245 4.29142 0.0391238
213 1 0.392847 6.41563 1.47239
214 1 4.13224 4.52185 1.22547
215 1 3.08122 8.84687 5.39976
216 1 9.0244 4.0325 8.41287
217 1 8.18457 4.90429 6.73062
218 1 6.59026 6.04723 4.64741
219 1 5.59125 6.36747 8.03928
220 1 3.4417 3.31968 4.8961
221 1 0.257497 3.05154 0.485092
222 1 0.876783 1.35934 2.38494
223 1 2.30057 4.59649 8.38882
224 1 2.63323 3.05763 1.35469
225 1 4.38606 3.11818 2.30194
226 1 4.23529 0.567895 4.62255
227 1 4.4108 8.62928 1.34547
228 1 4.87987 3.52519 1.7819
229 1 5.43173 5.18749 8.79363
230 1 4.42759 3.29392 6.95757
231 1 2.08299 0.507206 6.67239
232 1 8.48447 0.377359 1.08482
233 1 0.542553 7.81922 0.697659
234 1 7.89555 3.62028 2.63121
235 1 9.27599 0.601044 1.59044
236 1 7.97417 3.09664 9.29199
237 1 4.56716 4.98473 0.396638
238 1 9.22009 3.8256 7.25317
239 1 8.40025 8.81788 0.358539
240 1 8.16948 3.58205 4.69423
241 1 3.14494 5.63037 1.31081
242 1 3.14571 5.92868 3.30436
243 1 4.99262 7.38859 3.5718
244 1 3.26704 9.30271 7.99953
245 1 1.71612 9.0707 6.42515
246 1 6.41026 1.28791 8.50829
247 1 2.60856 2.64517 0.445298
248 1 1.78082 1.48419 0.680681
249 1 0.771739 6.25563 6.29563
250 1 7.98707 4.52828 3.13331
251 1 7.82011 3.88563 3.74864
252 1 6.64794 2.22959 8.32762
253 1 0.0974591 4.87501 8.35723
254 1 0.398414 0.379817 8.52505
255 1 5.97708 0.635955 0.0397554
256 1 9.18096 8.317 0.381159
257 1 0.773035 8.67666 5.60376
258 1 1.78831 6.37184 1.00239
259 1 7.11481 0.662054 3.21025
260 1 0.315524 1.1598 0.786045
261 1 1.28141 2.21463 4.63681
262 1 5.44992 2.18513 2.6203
263 1 8.20879 7.66307 1.56479
264 1 4.09629 2.7351 3.47271
265 1 1.07363 1.29746 4.49032
266 1 6.4748 0.00865384 3.21146
267 1 8.87038 9.14934 4.66939
268 1 2.20042 2.07553 4.77818
269 1 6.298 4.007 6.86837
270 1 6.83518 2.99552 3.7369
271 1 3.09882 7.81078 5.50796
272 1 1.34741 4.86205 6.94974
273 1 9.12628 5.80704 9.29077
274 1 8.68841 7.75638 6.7561
275 1 0.778288 7.23657 2.59163
276 1 6.01403 9.3567 8.64029
277 1 8.8557 4.40344 0.814241
278 1 9.19724 5.76327 2.32445
279 1 5.07454 4.60201 1.80026
280 1 0.706774 9.36053 6.43928
281 1 8.65167 1.95122 4.21696
282 1 3.97341 1.9339 1.076
283 1 1.30644 4.25321 7.75874
284 1 5.61799 0.0400144 5.87951
285 1 5.93199 2.83244 3.19482
286 1 3.03527 5.60866 0.00128535
287 1 4.27062 9.21303 3.67192
288 1 7.76528 9.05965 8.82252
289 1 6.65506 7.85273 8.95311
290 1 8.24233 4.69332 5.91945
291 1 2.68284 3.18361 2.43568
292 1 1.78588 1.6399 3.9846
293 1 4.2551 3.30796 9.11858
294 1 5.30534 4.06054 5.06832
295 1 7.84004 5.61608 5.14228
296 1 4.02741 8.68015 5.8593
297 1 1.84156 4.13304 3.55258
298 1 7.86313 7.6044 2.3939
299 1 3.0111 5.35944 5.36979
300 1 3.6709 5.855 2.48569
301 1 7.88189 3.87984 8.64003
302 1 2.70235 3.73633 7.23913
303 1 5.58847 4.66398 0.143773
304 1 9.22792 5.49791 4.52037
305 1 4.4415 4.80378 3.71408
306 1 3.22613 2.26239 3.8573
307 1 2.37697 0.235109 1.94896
308 1 2.72694 0.561471 8.2591
309 1 7.16346 4.16635 4.95116
310 1 0.704157 4.80096 4.23025
311 1 6.6493 8.32427 4.32091
312 1 3.57772 3.24136 2.72229
313 1 7.93764 2.65326 8.01166
314 1 8.3231 6.25179 3.9637
315 1 8.94832 0.669376 3.46511
316 1 6.62414 8.24869 3.35832
317 1 6.35563 7.62515 6.39016
318 1 7.2676 2.17316 2.16619
319 1 3.56131 8.4794 7.83969
320 1 5.12256 3.62616 8.12034
321 1 4.68647 6.97826 7.09682
322 1 4.66026 6.17787 7.65975
323 1 3.69788 1.07559 2.12142
324 1 8.41931 0.278688 6.82644
325 1 2.90638 1.38807 2.5545
326 1 1.97843 7.75284 3.17071
327 1 1.93065 8.25141 1.2323
328 1 7.36262 8.97348 6.36517
329 1 0.368604 8.46114 2.49811
330 1 5.73195 2.3768 7.41026
331 1 8.83563 6.44354 8.48625
332 1 6.41028 5.27762 2.90816
333 1 8.80371 4.11961 5.41967
334 1 7.9344 1.13684 4.36659
335 1 3.2741 0.485194 4.94676
336 1 3.84982 7.30053 0.562787
337 1 7.16553 9.16449 5.43717
338 1 0.393135 8.32871 1.36065
339 1 5.30582 1.7949 6.81161
340 1 4.21538 1.51709 5.08239
341 1 4.41218 5.54508 5.85286
342 1 5.94326 3.45787 9.06943
343 1 4.17616 4.82495 2.87407
344 1 4.69539 3.97852 2.66287
345 1 0.145618 6.51487 5.67361
346 1 3.10828 4.34313 5.63651
347 1 3.12866 7.23232 9.39437
348 1 5.1724 1.68145 1.56331
349 1 4.50121 6.56229 2.982
350 1 6.79436 8.33514 6.28023
351 1 5.55103 3.24058 4.54121
352 1 8.40506 5.29624 8.98084
353 1 8.25244 7.18305 8.45037
354 1 6.19562 8.64871 8.26103
355 1 8.75601 8.44663 1.45143
356 1 3.74708 6.83418 5.5795
357 1 5.04115 3.57607 0.405082
358 1 1.86458 3.16205 5.6357
359 1 4.42376 3.34487 4.20584
360 1 4.52434 4.52764 5.80023
361 1 3.83555 6.91095 4.69963
362 1 5.17284 5.26517 7.32525
363 1 2.69275 0.279773 4.12751
364 1 8.53906 5.96815 5.58922
365 1 7.61419 0.231322 2.50695
366 1 0.771224 2.86396 4.14323
367 1 8.58272 3.42096 6.62268
368 1 5.05791 2.33062 9.10378
369 1 4.92175 8.4303 7.1466
370 1 3.47923 3.22164 1.87207
371 1 3.38506 8.98825 7.04303
372 1 1.3714 0.706763 0.292307
373 1 0.139368 0.801015 5.8912
374 1 1.40929 3.13497 6.44935
375 1 6.05702 4.62402 1.60515
376 1 6.70885 7.02164 4.94544
377 1 2.47078 8.86119 1.5498
378 1 0.145886 5.65981 5.37712
379 1 0.369584 4.81788 6.98531
380 1 4.10754 5.04395 7.58572
381 1 8.33186 6.17143 6.58351
382 1 1.28106 4.12016 0.0418993
383 1 2.21146 4.67834 4.3458
384 1 2.89939 8.34475 4.68818
385 1 5.46785 7.55013 7.32367
386 1 5.62523 3.84698 3.20257
387 1 5.70212 7.30023 1.98139
388 1 6.33148 4.48341 5.37192
389 1 1.16014 7.78547 5.26249
390 1 5.01177 1.99829 4.55064
391 1 6.97524 4.63989 6.84944
392 1 7.85447 4.64546 5.13418
393 1 5.85538 9.07698 4.29051
394 1 7.55781 5.72994 4.27273
395 1 1.24719 3.3612 2.15807
396 1 3.71992 5.02182 0.0115143
397 1 6.07421 7.37662 8.36548
398 1 4.63767 6.18432 0.78402
399 1 5.97819 6.84045 6.72026
400 1 0.100767 7.48513 3.79751
401 1 4.84261 6.04201 6.64803
402 1 3.12749 3.40029 3.72372
403 1 5.52737 1.00953 5.91125
404 1 6.02549 7.17194 5.50654
405 1 6.8527 2.47939 1.35543
406 1 0.409922 3.03378 8.93085
407 1 0.0944545 2.09827 7.81115
408 1 3.7158 8.45307 1.98199
409 1 1.79182 9.19119 4.16653
410 1 7.7014 0.351161 3.88642
411 1 3.65065 4.99916 6.13862
412 1 5.40231 8.17573 8.05128
413 1 0.769128 4.9682 5.11256
414 1 0.489123 3.84919 2.69858
415 1 2.02712 5.99346 1.74009
416 1 8.63061 6.87932 0.463417
417 1 5.4569 6.4534 5.93362
418 1 8.88125 4.09596 3.55369
419 1 9.38981 2.59182 1.46856
420 1 5.50367 3.17495 1.25315
421 1 7.04814 8.60733 0.531491
422 1 0.282219 3.59127 6.38864
423 1 1.39777 6.68198 3.16767
424 1 6.26868 3.50803 0.439946
425 1 6.32864 7.48476 7.35301
426 1 6.95009 8.69378 8.89231
427 1 0.374504 7.25028 4.89799
428 1 3.34944 0.800239 0.0727406
429 1 1.77585 8.11325 8.27174
430 1 7.83541 6.91012 0.982636
431 1 7.80667 5.46874 8.33456
432 1 2.29399 8.54656 6.87587
433 1 7.16509 1.89627 5.67
434 1 5.08458 6.49976 2.27224
435 1 2.10465 7.08706 3.78302
436 1 6.3196 3.23084 8.22353
437 1 8.31426 7.70119 4.30232
438 1 3.2515 9.23468 2.03492
439 1 9.24964 1.78118 3.18969
440 1 3.47907 6.94974 2.82313
441 1 4.12211 7.67561 8.88944
442 1 6.06657 1.22411 6.61084
443 1 8.72631 3.25076 1.33601
444 1 5.43778 8.30692 1.25207
445 1 6.17364 4.3962 2.70852
446 1 9.08204 2.80115 8.29721
447 1 5.90475 6.64123 8.94071
448 1 0.122892 2.17388 9.12294
449 1 1.25239 8.28043 2.68934
450 1 4.70704 8.32169 3.44162
451 1 7.45967 5.39065 0.14501
452 1 1.04339 5.47773 8.0264
453 1 4.26658 6.84456 8.20466
454 1 2.40506 6.23637 9.01882
455 1 9.19759 6.83897 2.0916
456 1 6.13276 1.85034 5.68844
457 1 4.28727 5.73472 9.30565
458 1 0.648116 5.75698 4.00268
459 1 2.124 2.56132 2.9972
460 1 9.38691 1.31406 8.39987
461 1 2.24538 7.06516 2.64009
462 1 7.81112 2.015 0.07756
463 1 1.04044 4.05774 6.61917
464 1 6.283 7.36874 4.15264
465 1 2.67485 4.37921 3.04136
466 1 7.39501 7.89675 3.77452
467 1 3.77467 5.86019 5.16481
468 1 8.38765 7.81526 0.576323
469 1 2.76341 0.955783 3.48256
470 1 8.15257 9.31494 5.91882
471 1 2.28125 6.84636 0.310652
472 1 1.85646 3.78443 7.13336
473 1 3.37667 1.04566 6.93598
474 1 3.82236 4.24552 4.09519
475 1 0.978819 2.94676 5.62552
476 1 5.9468 6.4737 2.71811
477 1 3.76991 1.06414 0.989134
478 1 7.4022 7.23421 3.18004
479 1 3.09246 8.107 8.61264
480 1 6.81332 6.49391 3.00965
481 1 3.7963 4.8362 5.17762
482 1 5.27757 3.02738 6.75436
483 1 1.90867 9.29961 7.34035
484 1 8.78995 1.15606 7.41927
485 1 7.93733 8.61739 1.02587
486 1 7.94719 6.50689 4.80737
487 1 1.6649 1.52389 5.2142
488 1 6.88066 8.69842 1.51151
489 1 0.947002 8.11008 4.4668
490 1 5.36853 5.36164 6.36022
491 1 4.59516 1.44616 2.36282
492 1 8.01138 4.12988 1.69347
493 1 2.81998 1.67234 0.808912
494 1 6.38313 3.299 1.50944
495 1 2.62503 5.45009 2.37632
496 1 5.06913 4.6598 8.08254
497 1 8.85601 4.90308 7.38138
498 1 1.36329 0.634027 7.76585
499 1 3.37816 9.14627 3.27845
500 1 5.16766 1.47362 3.1501
501 1 4.34197 6.62026 0.08775
502 1 6.41766 7.98282 0.448365
503 1 3.23052 4.00893 1.10359
504 1 5.90167 3.84131 5.92502
505 1 1.21187 4.26413 2.28323
506 1 1.99269 1.85385 2.43363
507 1 1.77655 2.52048 0.88031
508 1 4.65487 7.56259 0.840365
509 1 1.90306 0.837662 1.3862
510 1 1.397 2.55109 3.7303
511 1 9.29018 0.375694 7.7503
512 1 4.7259 7.83447 6.36379
513 1 2.82715 2.86255 4.3322
514 1 0.471046 5.29008 9.30683
515 1 6.60172 4.06189 1.96044
516 1 7.2584 1.53503 9.11517
517 1 3.99291 3.24016 8.21651
518 1 0.333795 0.096645 2.74348
519 1 2.0214 6.39438 7.73388
520 1 1.732 3.7772 2.6984
521 1 6.4963 1.17617 3.84271
522 1 6.96939 3.09623 7.65553
523 1 1.55491 5.0224 8.65112
524 1 7.6677 2.56834 5.32623
525 1 7.14907 3.1647 0.548306
526 1 2.7733 1.56617 4.24041
527 1 4.58961 0.957632 1.17794
528 1 2.22812 8.48147 2.50038
529 1 8.96946 0.279585 8.87045
530 1 3.84047 7.88217 1.20156
531 1 8.75011 2.66425 2.10358
532 1 4.08033 7.61025 4.03012
533 1 0.652254 6.52394 7.97055
534 1 1.10873 3.29638 3.30224
535 1 2.74967 6.79586 1.2057
536 1 7.99254 5.82853 1.48718
537 1 7.25279 8.0243 8.24255
538 1 4.22395 6.57856 2.17973
539 1 8.48362 3.43345 7.99442
540 1 7.72523 6.7564 5.7627
541 1 5.85005 0.561749 4.21459
542 1 3.69686 4.16588 8.97122
543 1 2.59995 7.17137 6.20609
544 1 1.43757 7.65777 0.101189
545 1 4.05236 0.298021 1.55833
546 1 1.49707 4.3713 4.79146
547 1 2.77792 6.33963 2.40881
548 1 0.723476 3.47624 7.26209
549 1 2.44491 1.73284 3.28951
550 1 7.7817 8.06738 6.81497
551 1 1.27531 5.86153 5.58103
552 1 6.83637 6.73668 3.9855
553 1 0.0277362 4.52395 4.83377
554 1 0.940583 2.04591 5.58561
555 1 6.63969 0.722819 7.85325
556 1 7.20522 3.91579 0.11575
557 1 7.57421 1.97077 4.59008
558 1 1.41643 6.6953 9.37898
559 1 3.63437 8.46471 3.80685
560 1 0.181899 2.63097 5.36971
561 1 2.73939 4.96273 6.30176
562 1 9.26894 7.80342 2.13182
563 1 5.3472 8.06494 0.432653
564 1 3.34596 0.209832 8.81976
565 1 5.43046 4.79658 5.4062
566 1 4.85935 7.30923 0.0186813
567 1 0.141826 2.97511 2.38791
568 1 9.10759 8.07078 8.55619
569 1 4.99033 1.59984 8.07731
570 1 6.73635 1.41641 4.92201
571 1 0.725348 5.19185 6.12476
572 1 0.159521 0.739566 6.80469
573 1 7.53759 0.731901 6.14149
574 1 3.54184 8.94672 0.0900321
575 1 3.87511 2.50502 4.38836
576 1 0.256246 3.49477 5.38234
577 1 5.33514 9.31979 5.06174
578 1 6.8914 0.749229 0.305811
579 1 5.78288 2.88636 2.14615
580 1 3.05533 0.53162 1.09907
581 1 7.28306 5.59143 7.52068
582 1 3.64113 5.49437 4.13789
583 1 7.8766 2.77374 1.86501
584 1 8.15076 2.13357 2.42183
585 1 8.53341 6.48445 1.66802
586 1 2.18021 6.0443 3.17356
587 1 0.419339 0.409033 0.141508
588 1 2.33951 3.89079 4.60268
589 1 7.75195 8.28789 5.58851
590 1 9.32227 3.81052 9.31099
591 1 3.43985 2.96707 0.692723
592 1 6.03693 5.48998 7.80963
593 1 6.19621 5.97182 6.32779
594 1 1.56384 4.59158 6.06312
595 1 8.54203 1.46673 3.51253
596 1 7.44757 2.54325 8.73357
597 1 6.008 0.597131 1.75108
598 1 6.07991 5.24315 6.85079
599 1 7.50784 4.67391 8.83956
600 1 2.31098 5.18309 3.41331
601 1 7.00681 5.56755 6.70658
602 1 8.52346 2.66005 0.62402
603 1 3.9257 6.27085 6.4027
604 1 7.14533 0.628719 4.71966
605 1 0.828254 7.31269 5.96994
606 1 1.22703 7.99699 1.81927
607 1 1.82108 0.983792 2.40983
608 1 8.51381 0.00109611 3.0852
609 1 7.21007 4.7954 3.90632
610 1 7.25121 7.45736 1.70867
611 1 6.79487 7.17304 0.941904
612 1 1.87746 6.40495 4.62179
613 1 7.74905 6.7356 2.31665
614 1 3.112 4.04285 1.99617
615 1 7.39392 5.88983 2.32442
616 1 4.01653 4.88071 8.56267
617 1 8.7809 1.38416 2.19976
618 1 9.13887 1.74691 1.34388
619 1 1.50386 1.62315 9.00012
620 1 4.19239 3.96088 5.04963
621 1 0.720368 2.79839 7.94222
622 1 5.87574 8.39181 9.16723
623 1 5.74138 5.65137 4.3743
624 1 3.93392 8.61309 8.77597
625 1 4.44577 4.33893 6.88715
626 1 2.06145 3.04852 8.8074
627 1 4.2562 3.00664 0.515807
628 1 6.39214 7.68938 1.53179
629 1 4.45753 8.10685 8.09157
630 1 7.87991 5.03089 1.88023
631 1 4.10059 3.55186 1.26491
632 1 1.51732 2.41489 8.37528
633 1 6.87048 3.14285 8.94448
634 1 2.43353 6.31222 6.84067
635 1 3.81089 2.61784 7.25039
636 1 5.65488 6.17255 7.16993
637 1 7.42018 5.1281 2.8438
638 1 2.9259 4.95389 0.644524
639 1 2.54957 3.74799 0.449074
640 1 9.32651 2.74906 6.15811
641 1 2.23108 7.75852 0.477152
642 1 5.15474 9.39591 1.19017
643 1 5.41757 5.88965 3.14531
644 1 2.31739 4.8839 5.55004
645 1 2.89502 0.312841 7.31637
646 1 0.623834 0.123167 5.44854
647 1 6.09345 1.60859 7.57491
648 1 1.12094 8.81192 1.33676
649 1 8.41203 8.5703 2.53668
650 1 5.03702 6.83636 1.3792
651 1 6.66053 0.0702552 4.06747
652 1 5.55569 0.742811 0.979186
653 1 2.21286 4.74994 0.259882
654 1 7.80144 7.22768 0.0591962
655 1 6.73211 5.02228 2.04785
656 1 6.85744 2.43702 0.200387
657 1 8.15458 0.089071 8.0717
658 1 4.73558 1.21975 4.22986
659 1 7.03349 1.57665 0.590609
660 1 3.65976 1.37002 4.08696
661 1 5.43802 5.95776 1.69389
662 1 7.65101 7.49687 5.08011
663 1 1.7718 7.31644 1.17301
664 1 0.438751 5.83122 8.60783
665 1 0.0530891 7.5331 6.43571
666 1 6.48539 9.24176 0.0462485
667 1 5.69296 4.02826 1.06873
668 1 0.446928 8.46139 3.45983
669 1 7.88405 3.27322 5.88954
670 1 2.86617 0.931253 6.18821
671 1 7.46732 3.53258 1.38362
672 1 8.68677 7.85321 7.70118
673 1 1.45417 5.23005 4.04643
674 1 6.05677 3.49043 3.87085
675 1 6.30519 1.94858 1.83756
676 1 5.63339 6.45616 4.88594
677 1 1.6848 7.44655 6.11809
678 1 7.78937 4.88453 7.59314
679 1 1.29508 3.49274 8.74527
680 1 5.19194 7.18357 8.60874
681 1 5.9502 2.47017 4.89814
682 1 7.05413 3.4027 5.67863
683 1 3.23223 2.57745 5.30244
684 1 3.20981 1.74482 4.92223
685 1 7.80697 1.60699 8.13527
686 1 4.61676 6.426 5.48698
687 1 3.20683 7.60425 2.08424
688 1 6.4133 5.88624 1.66827
689 1 5.37836 5.68146 5.42021
690 1 4.805 0.494568 2.7551
691 1 9.12997 9.29384 6.15519
692 1 2.75125 5.34865 7.60487
693 1 0.861152 6.846 3.8987
694 1 8.67963 4.50182 2.46387
695 1 7.59674 0.721614 7.83084
696 1 5.87728 4.66063 7.56427
697 1 8.58813 5.11559 1.30436
698 1 8.1312 6.08539 0.541714
699 1 0.881196 8.37659 8.01919
700 1 4.73404 5.5817 4.74473
701 1 1.82407 6.96873 8.56558
702 1 2.34418 9.26107 4.91661
703 1 3.09964 3.78959 8.09724
704 1 2.26788 9.00733 8.28996
705 1 1.62827 0.744723 3.66451
706 1 8.9007 1.38762 6.51456
707 1 2.94568 8.25526 6.21004
708 1 7.01787 4.15243 3.17327
709 1 0.00518594 1.92129 6.91757
710 1 2.64304 8.57062 7.65273
711 1 7.01503 5.157 4.95011
712 1 6.57359 5.54126 0.39768
713 1 4.39063 0.660099 3.53714
714 1 6.82917 4.7012 7.75245
715 1 7.37459 1.72021 1.33321
716 1 3.61629 1.83347 0.283071
717 1 2.32691 0.163755 3.33606
718 1 8.06804 4.05863 7.18514
719 1 8.88252 5.52061 8.08653
720 1 5.92466 8.23197 4.77768
721 1 9.05414 9.02876 2.25648
722 1 4.78595 0.581466 0.43136
723 1 0.954334 6.26385 2.09905
724 1 1.97245 5.49407 6.48455
725 1 5.87498 8.53943 7.37167
726 1 2.51315 1.49087 6.93015
727 1 6.29164 5.98446 5.44063
728 1 4.26292 8.84887 2.80953
729 1 0.54155 0.913963 3.84122
730 1 2.90243 3.28201 5.80629
731 1 1.95287 4.72043 2.5692
732 1 8.87456 3.64233 2.22227
733 1 0.585806 3.59532 8.22033
734 1 5.72824 1.9955 8.59612
735 1 6.141 8.69339 0.853162
736 1 3.02257 2.54541 3.01138
737 1 0.699539 1.62787 1.42429
738 1 4.54418 7.70776 1.90483
739 1 1.36097 7.14378 7.69401
740 1 2.90059 3.43486 9.07025
741 1 3.98085 5.48199 1.689
742 1 1.13833 0.654476 6.81531
743 1 2.20493 0.15358 0.987865
744 1 8.10097 0.963157 2.76212
745 1 6.15073 6.72935 1.36977
746 1 3.629 2.55214 6.27708
747 1 2.10396 1.01441 8.76899
748 1 1.49856 8.50486 7.24903
749 1 1.24787 7.60927 3.58961
750 1 1.26262 3.9158 5.59126
751 1 1.23238 6.01718 7.14053
752 1 4.66715 7.02062 4.28364
753 1 2.9751 7.1571 7.4558
754 1 8.07133 0.492147 5.14005
755 1 7.59173 6.37845 7.41108
756 1 8.46355 0.281638 2.15478
757 1 0.4095 1.18485 7.48523
758 1 4.90705 1.63462 5.93527
759 1 3.76715 1.70908 7.28857
760 1 8.07609 6.37828 8.05895
761 1 1.84248 4.18959 1.01093
762 1 1.38708 9.33149 9.03295
763 1 5.66983 8.21659 3.54467
764 1 6.9905 7.74209 2.6255
765 1 4.65999 6.98734 6.20485
766 1 8.38917 2.44671 5.97878
767 1 3.94985 1.23162 2.97087
768 1 3.52025 5.49834 6.98338
769 1 0.9664 9.39615 3.8061
770 1 7.56759 5.97657 6.11127
771 1 5.46898 9.13282 0.371882
772 1 4.63618 2.56558 7.66576
773 1 0.176721 7.75974 7.26007
774 1 0.479125 2.70028 3.26377
775 1 2.3768 4.60339 1.81188
776 1 7.64011 2.85497 3.01486
777 1 6.97118 3.88212 4.04185
778 1 2.44277 7.64793 7.99653
779 1 6.55106 6.19482 7.93336
780 1 1.40003 9.06583 8.21723
781 1 3.25546 7.21545 8.41372
782 1 7.04837 7.04805 7.71466
783 1 1.2977 1.56598 7.6321
784 1 7.54471 2.96049 4.43448
785 1 1.90217 2.96474 4.65971
786 1 3.25813 8.35713 2.89402
787 1 9.24387 9.12658 3.5578
788 1 1.46056 6.93701 5.30107
789 1 6.24873 6.2853 3.61049
790 1 4.91003 8.18812 4.30215
791 1 0.82042 0.209301 1.14281
792 1 2.20995 5.69867 8.24173
793 1 4.56324 1.04624 8.93211
794 1 1.25371 6.22079 8.52589
795 1 7.13654 4.30701 5.85396
796 1 7.41313 5.17149 5.9121
797 1 7.10285 6.14845 8.97352
798 1 6.71229 2.19147 7.38008
799 1 6.12621 7.72509 2.63656
800 1 7.37366 1.22213 2.23889
801 2 4.33326 9.14017 6.74419
802 2 5.03316 8.22241 8.962
803 2 7.73515 9.35128 0.508669
804 2 6.65097 4.03908 1.08324
805 2 5.24726 2.75326 8.3176
806 2 8.19099 5.71821 7.53041
807 2 7.4368 3.82827 7.86471
808 2 1.31609 1.72384 3.23884
809 2 6.24203 4.46206 3.5906
810 2 0.641652 1.95532 3.87526
811 2 1.81142 2.2831 5.87161
812 2 3.3457 2.47154 1.47551
813 2 4.82987 8.58329 5.25207
814 2 1.83347 8.49992 4.90015
815 2 1.317 0.454637 4.68525
816 2 2.06064 3.95863 9.03199
817 2 3.41105 4.91869 2.03766
818 2 0.117628 5.16253 0.826877
819 2 9.25056 9.11472 1.23312
820 2 0.0187342 4.47651 1.84967
821 2 7.31639 7.51932 6.06808
822 2 8.67798 3.22793 5.43532
823 2 1.03617 0.773713 1.68809
824 2 8.83057 1.85953 0.462557
825 2 7.49795 8.00375 9.0774
826 2 8.25228 4.46985 4.3469
827 2 8.86679 7.03591 5.33873
828 2 2.89318 8.10442 1.31008
829 2 5.23652 6.53779 0.101134
830 2 1.49037 6.0382 3.84626
831 2 3.77648 6.54489 7.45385
832 2 8.74204 5.07767 5.18342
833 2 6.35101 9.07439 5.05568
834 2 8.92595 5.87531 1.01295
835 2 3.94663 5.93498 8.22976
836 2 4.93097 0.127027 4.1523
837 2 1.9664 1.10031 5.95545
838 2 0.608324 4.32248 8.82689
839 2 7.47853 1.34456 3.65985
840 2 4.44662 1.45053 0.42658
841 2 3.59878 8.80109 1.1574
842 2 2.87017 2.5666 7.1022
843 2 7.91909 8.85061 7.29521
844 2 0.50949 1.22518 9.15045
845 2 5.78267 2.62804 0.0466244
846 2 4.10737 0.798527 6.52616
847 2 6.02627 3.47151 7.4516
848 2 1.21403 4.7545 3.27864
849 2 6.4393 5.04152 6.06145
850 2 4.50846 1.24268 7.26044
851 2 3.97302 1.62482 5.99229
852 2 2.91114 4.65191 9.02492
853 2 7.8592 1.30881 7.16147
854 2 3.99929 4.20609 2.05394
855 2 1.21274 0.750166 8.76101
856 2 7.11654 6.41479 1.70188
857 2 2.40851 0.182414 9.12927
858 2 1.43797 7.07164 2.06912
859 2 2.37556 7.84888 4.13085
860 2 0.532168 5.3582 2.02211
861 2 2.18433 0.857406 4.80181
862 2 9.25739 5.21482 6.37274
863 2 0.877217 2.29343 2.57583
864 2 2.71947 9.26599 6.61118
865 2 2.14163 1.14635 7.80295
866 2 4.18884 7.99016 2.666
867 2 9.3921 2.02329 2.35935
868 2 5.72531 4.56654 6.34039
869 2 8.99684 7.76496 4.90815
870 2 9.19226 6.15298 6.7662
871 2 6.21204 1.3119 0.984781
872 2 2.84226 7.34541 4.65191
873 2 7.15396 6.11357 5.30143
874 2 2.82607 8.76521 3.89569
875 2 4.3873 7.62678 4.92092
876 2 6.62517 0.00898104 2.09317
877 2 9.10114 3.34175 4.70714
878 2 3.40844 3.35095 6.89105
879 2 1.97043 8.44963 9.06035
880 2 1.28834 4.85354 1.54061
881 2 8.33175 4.63922 8.35328
882 2 1.78274 5.28807 4.97872
883 2 9.20623 8.78277 6.97758
884 2 7.90919 1.59937 6.26253
885 2 5.15566 0.7765 4.91781
886 2 5.0508 3.18674 3.53929
887 2 6.59464 7.07729 2.12151
888 2 2.13092 3.59645 7.99586
889 2 2.26739 2.4345 3.86299
890 2 1.67848 5.88382 0.170972
891 2 8.85847 7.03976 4.19642
892 2 0.132982 6.79242 0.500419
893 2 6.90368 5.66077 3.61887
894 2 1.71588 1.8435 1.49281
895 2 8.45352 2.59453 4.79529
896 2 1.66908 9.1782 2.15556
897 2 6.34213 4.80407 9.0263
898 2 0.727874 8.77431 0.507941
899 2 7.11039 7.5081 6.94394
900 2 5.70758 8.19469 5.7176
901 2 4.16193 6.85449 1.24552
902 2 4.05113 7.50318 7.46759
903 2 6.73414 1.8449 6.49221
904 2 7.71099 8.59909 1.88663
905 2 0.192751 0.273731 4.33885
906 2 7.8191 0.95213 0.895426
907 2 5.85525 8.83342 1.80713
908 2 8.68031 8.21085 5.7459
909 2 2.20347 5.90135 5.6764
910 2 8.18351 8.30789 3.36263
911 2 9.26426 2.64235 4.13281
912 2 1.48572 5.48084 2.20736
913 2 6.20426 1.77114 2.85779
914 2 0.566524 1.46282 6.27289
915 2 0.428371 2.18232 0.581944
916 2 0.797659 4.15387 1.40469
917 2 3.51902 0.46348 3.8949
918 2 2.09247 5.13197 1.10336
919 2 5.13417 0.166384 8.88582
920 2 3.72933 1.38742 8.76779
921 2 4.82735 2.3662 0.717279
922 2 6.76869 7.01816 0.0430736
923 2 3.46368 6.51026 1.69479
924 2 7.30624 3.72707 6.46697
925 2 5.24657 4.07524 7.19856
926 2 0.309031 0.944454 5.01867
927 2 7.54961 2.13905 7.12236
928 2 8.00656 6.46909 9.06187
929 2 5.00167 0.604651 6.5082
930 2 5.18192 2.33982 3.73391
931 2 0.315936 8.71609 4.3792
932 2 6.8912 0.982569 6.95569
933 2 6.63523 0.150587 1.19552
934 2 8.8504 6.27833 4.87759
935 2 5.3869 1.30878 9.0927
936 2 8.34332 2.50597 8.75994
937 2 3.12016 6.14205 5.90371
938 2 0.924827 5.5071 2.97646
939 2 5.46257 7.29304 4.48158
940 2 1.48494 8.49046 3.51854
941 2 1.59385 3.3185 0.426176
942 2 3.16399 5.46715 8.45242
943 2 5.62755 7.45113 1.02734
944 2 0.864834 4.04388 3.67448
945 2 0.810331 1.77021 8.43038
946 2 6.6141 0.275339 6.10061
947 2 8.59918 0.946828 5.7543
948 2 4.67792 0.027803 5.87075
949 2 1.86036 5.49721 7.42655
950 2 6.52497 3.30898 4.87549
951 2 0.637366 2.32658 6.42397
952 2 2.15891 3.27737 3.54913
953 2 2.1621 7.71 1.87713
954 2 0.234348 8.38975 6.31637
955 2 0.795022 6.08704 0.180327
956 2 4.86164 5.29474 1.15689
957 2 2.20764 2.14773 9.13054
958 2 6.56798 2.80952 6.78432
959 2 3.12886 4.34649 4.59373
960 2 6.14322 6.448 0.553789
961 2 4.23621 8.76941 4.40623
962 2 4.4199 2.35601 1.86685
963 2 8.42818 2.27742 6.92216
964 2 7.88247 0.737914 9.29541
965 2 3.95042 3.91072 0.363831
966 2 4.39921 5.31297 6.84016
967 2 6.45744 0.967028 2.56033
968 2 1.16785 2.53996 9.3555
969 2 6.59934 2.61279 5.77019
970 2 5.47032 3.24392 5.4697
971 2 8.32264 8.47488 4.96004
972 2 0.360943 7.62153 8.18121
973 2 6.16118 0.721488 5.06506
974 2 7.45965 8.20682 4.67967
975 2 2.37941 7.53713 9.05514
976 2 4.75042 8.9665 8.37166
977 2 6.79909 6.84482 8.55784
978 2 2.40737 6.74167 5.48061
979 2 2.4658 5.84108 0.675794
980 2 3.83791 3.47147 6.02498
981 2 5.67995 1.54342 4.06746
982 2 5.05953 3.8924 6.25508
983 2 7.59804 9.25704 4.60796
984 2 2.46461 3.09796 6.51266
985 2 0.285932 4.44335 5.8577
986 2 8.82861 5.2966 3.06024
987 2 8.9589 2.9322 9.32992
988 2 4.26597 0.0491634 9.11574
989 2 2.60245 5.53771 4.19706
990 2 3.23784 8.0734 0.39599
991 2 3.55504 6.42907 8.8986
992 2 5.31317 6.50403 3.94602
993 2 0.353424 6.13819 2.88023
994 2 0.13445 3.62483 1.60573
995 2 9.20359 3.43771 3.08863
996 2 2.22478 3.8806 6.03838
997 2 4.27238 6.21137 4.33006
998 2 3.11902 4.69907 3.76151
999 2 0.510372 3.84013 4.50164