#bin. KALJ data file T=0.5

1000 atoms
2 atom types

0 9.4 xlo xhi
0 9.4 ylo yhi
0 9.4 zlo zhi

Masses

1 1.0
2 1.0

Atoms

1 1 7.14284 4.08353 7.09626
2 1 8.73312 7.88386 4.9282
3 1 5.33606 0.470184 1.22131
4 1 2.91803 3.90566 2.26573
5 1 3.96499 7.38082 7.46871
6 1 9.29832 1.9503 1.35055
7 1 2.08932 8.74994 7.41525
8 1 1.55164 7.44455 2.99255
9 1 1.75098 6.84944 7.52241
10 1 3.34815 8.11733 1.75253
11 1 4.81085 8.23279 1.24935
12 1 4.01381 6.37471 7.19624
13 1 9.37519 9.4197 9.1913
14 1 2.1479 3.21561 4.54535
15 1 5.11019 8.14268 8.91291
16 1 8.24591 3.78479 5.36627
17 1 1.30973 4.67649 1.36755
18 1 7.90881 2.47386 4.94701
19 1 4.37808 4.79985 4.0701
20 1 6.12517 7.44876 2.00874
21 1 0.173692 0.606896 3.74998
22 1 1.49107 8.77501 8.45697
23 1 4.77718 2.77222 3.35678
24 1 0.307943 3.85766 0.371355
25 1 3.27409 2.80547 4.01344
26 1 0.701787 6.13896 6.03869
27 1 8.54332 2.73331 1.65309
28 1 0.74363 4.84304 0.446641
29 1 5.62892 1.50848 1.25519
30 1 4.94144 9.26059 4.36256
31 1 3.94462 4.59638 3.0752
32 1 7.00412 7.06072 7.51747
33 1 6.15613 2.27017 8.87807
34 1 4.92044 1.62647 4.56908
35 1 8.45721 7.16325 7.65736
36 1 0.352076 0.0547296 6.83874
37 1 6.64936 4.15265 3.13509
38 1 8.18535 5.50999 8.2786
39 1 6.45044 0.517796 7.40208
40 1 7.31275 8.36264 8.37316
41 1 5.63077 1.78292 3.75713
42 1 5.73926 2.34594 5.43373
43 1 7.18777 3.17079 6.5085
44 1 5.2119 2.99932 4.84642
45 1 1.33976 3.93262 8.21011
46 1 3.56302 8.05169 5.14703
47 1 8.55069 1.40885 3.76276
48 1 6.82701 5.94159 7.28318
49 1 8.9624 1.22167 6.43698
50 1 3.36489 1.31992 6.55463
51 1 1.78023 5.44699 4.96502
52 1 6.42352 7.34131 3.17633
53 1 1.50773 4.37325 7.35827
54 1 3.00491 4.03729 9.28672
55 1 0.858359 2.52831 8.85034
56 1 8.8165 8.91334 7.02813
57 1 2.0428 5.26317 0.856647
58 1 4.88954 6.54005 2.1206
59 1 4.47954 6.70704 1.19853
60 1 7.61606 8.84512 1.10258
61 1 7.07952 1.44047 2.35294
62 1 2.57217 3.76122 5.52723
63 1 8.89246 0.308838 4.26001
64 1 6.93063 5.31318 8.61822
65 1 1.3279 7.08025 8.898
66 1 7.59204 7.21194 2.74913
67 1 2.6716 7.3918 7.61712
68 1 1.99247 9.42611 3.63559
69 1 2.5908 8.82487 3.51088
70 1 6.29337 2.06092 0.77478
71 1 3.68211 4.49418 0.416461
72 1 8.41748 5.86393 3.93712
73 1 2.23779 9.07938 0.830799
74 1 2.55028 6.50999 7.82518
75 1 0.473493 1.43984 2.11147
76 1 4.70946 6.83459 7.65816
77 1 3.74681 5.91847 6.14965
78 1 8.36881 2.29799 9.36418
79 1 7.71381 3.94515 8.97825
80 1 6.12673 1.97046 8.01876
81 1 5.16849 5.17497 7.08342
82 1 5.61049 6.74781 6.83061
83 1 0.401207 8.35736 3.55032
84 1 8.67402 6.90783 5.40532
85 1 8.70549 7.05079 8.68096
86 1 8.71958 0.419035 8.80897
87 1 1.91524 8.54392 6.40342
88 1 0.279818 6.94757 0.774396
89 1 9.14989 5.99537 2.71918
90 1 9.2506 8.382 4.23523
91 1 7.50841 4.37985 5.30394
92 1 3.90614 4.28487 6.24196
93 1 4.17726 0.21036 5.81909
94 1 8.22406 2.54814 0.797156
95 1 8.77902 4.53552 1.30666
96 1 1.73952 6.0783 2.68123
97 1 5.69553 5.70352 6.29797
98 1 6.17444 4.57597 7.26799
99 1 4.48245 4.01134 0.226298
100 1 4.62531 6.13364 0.0867855
101 1 1.08935 2.08913 6.14603
102 1 5.24459 5.71426 8.55844
103 1 3.84284 0.95056 1.27407
104 1 6.24025 7.18645 0.818371
105 1 1.11368 0.145776 8.3155
106 1 3.6918 3.64516 1.47812
107 1 8.92322 3.45627 9.12143
108 1 3.50665 0.701396 2.14608
109 1 1.17976 1.1924 0.677257
110 1 6.09747 3.58866 5.32861
111 1 6.50934 3.49442 2.43296
112 1 8.55688 8.09737 6.67653
113 1 0.944176 7.43109 7.98191
114 1 5.85727 8.73463 1.9946
115 1 9.00901 1.41168 2.14448
116 1 2.09393 1.39244 0.741869
117 1 5.57915 7.23889 3.58014
118 1 6.01845 8.16395 1.27899
119 1 7.81562 6.86635 8.38043
120 1 3.03961 0.442251 4.87184
121 1 5.32759 9.22334 5.98934
122 1 0.61246 1.96016 2.93848
123 1 8.98543 8.84968 8.27766
124 1 7.65249 6.81408 5.116
125 1 7.52739 1.85695 2.96897
126 1 5.84412 5.62786 4.43114
127 1 5.52848 2.77808 7.80565
128 1 6.88882 7.8859 0.842811
129 1 0.6341 3.77848 1.8743
130 1 1.04962 8.85428 6.87672
131 1 1.53306 5.36345 0.113421
132 1 8.33905 2.87182 5.78211
133 1 6.73098 2.13655 1.51477
134 1 3.84741 0.193484 3.99881
135 1 0.885935 6.56006 8.07918
136 1 6.38312 8.9475 8.50596
137 1 9.00533 5.19076 0.469997
138 1 6.13819 2.92015 6.18475
139 1 6.25461 0.795122 6.44986
140 1 0.683317 5.31047 6.56694
141 1 4.25068 6.71522 6.26542
142 1 6.9069 7.26741 1.43716
143 1 0.0865126 6.21675 7.53856
144 1 7.28453 9.07091 8.82093
145 1 0.621232 5.82517 3.0862
146 1 0.18586 7.09875 8.65866
147 1 8.77332 6.12154 8.94896
148 1 8.68679 8.76572 0.852659
149 1 5.49603 0.209723 0.312361
150 1 6.73634 2.47908 2.56216
151 1 7.30268 3.30684 2.92355
152 1 3.43033 1.9374 7.75793
153 1 5.70009 8.84102 9.18125
154 1 0.0140255 0.191285 1.11734
155 1 5.20307 3.37966 3.9501
156 1 1.55931 3.45722 5.45153
157 1 7.06376 2.75961 4.40078
158 1 6.86621 3.39311 8.62334
159 1 2.92255 2.41734 8.48621
160 1 2.82875 0.306471 1.65045
161 1 5.75626 9.00229 3.73305
162 1 2.1998 8.54507 9.19608
163 1 8.04847 1.96555 7.87084
164 1 2.09556 8.15911 5.0533
165 1 8.40769 3.70592 1.72404
166 1 8.92127 6.43017 6.24012
167 1 4.65826 1.36451 2.61131
168 1 7.69862 1.04183 3.49219
169 1 2.51972 0.109572 2.58739
170 1 4.19031 2.92275 6.96818
171 1 1.86244 0.779234 2.7108
172 1 2.76634 1.97054 0.817058
173 1 2.22476 4.05964 1.70242
174 1 8.32355 8.79557 2.94789
175 1 1.26686 1.14564 7.68646
176 1 7.65055 2.078 0.366902
177 1 7.86165 1.06168 4.3535
178 1 8.11865 7.90691 1.08387
179 1 1.02647 5.20001 4.36609
180 1 4.03848 6.26148 3.14166
181 1 7.17909 0.676332 2.62098
182 1 5.1648 1.05795 3.29133
183 1 2.49067 3.32122 7.15686
184 1 0.222108 1.71324 4.77291
185 1 4.15093 7.12531 8.38565
186 1 1.03289 6.5227 1.32183
187 1 6.94614 7.96671 9.28549
188 1 1.12061 0.150386 1.26793
189 1 1.47095 5.66572 1.96076
190 1 3.44659 0.450896 3.07374
191 1 1.19601 0.325022 2.25739
192 1 0.31762 4.44614 3.38552
193 1 8.01653 5.00839 0.507227
194 1 9.26977 2.97212 0.478201
195 1 8.32712 3.84474 0.816348
196 1 3.03725 2.21208 2.79985
197 1 6.9789 4.92677 6.83128
198 1 1.602 8.80326 5.34803
199 1 7.59611 3.98634 0.451131
200 1 7.81999 5.26573 2.15847
201 1 9.13715 0.580097 7.37914
202 1 3.97069 9.00461 7.19334
203 1 0.713166 4.33108 2.58109
204 1 8.11462 5.55779 4.70435
205 1 6.75072 6.68571 3.75957
206 1 1.9993 5.00552 3.83379
207 1 9.26021 7.05822 6.89931
208 1 1.91664 4.34908 8.95115
209 1 5.43435 6.47652 8.12527
210 1 0.557961 7.70905 2.61718
211 1 7.29978 7.57254 3.58837
212 1 8.88684 2.47222 5.08331
213 1 4.84552 8.29312 2.88628
214 1 3.85467 0.495638 6.63444
215 1 1.2706 7.76245 4.88809
216 1 3.97812 8.5661 8.17806
217 1 1.21559 0.474128 6.7899
218 1 8.44092 1.75478 4.56085
219 1 7.92148 5.0397 3.8119
220 1 0.488665 8.49351 8.64597
221 1 6.1767 7.50197 7.26492
222 1 2.9075 2.1704 1.85343
223 1 1.71361 6.95246 4.84893
224 1 1.95284 1.08281 8.22456
225 1 3.44842 5.08032 9.16777
226 1 3.18884 6.24839 2.7479
227 1 3.29619 7.60946 6.77749
228 1 8.34471 3.43991 3.64786
229 1 0.871782 4.37138 6.32375
230 1 9.16268 3.45036 2.16533
231 1 1.9976 0.0123978 5.89134
232 1 1.85805 2.54184 2.55825
233 1 2.86297 0.0810898 9.21198
234 1 7.92605 3.02861 8.71894
235 1 5.12763 8.41191 4.71966
236 1 5.72906 -0.0147465 8.0602
237 1 1.40562 1.7308 9.24393
238 1 0.796077 8.45609 4.62821
239 1 8.49129 0.735282 5.80166
240 1 4.34103 4.66425 9.0626
241 1 7.48519 2.99764 1.99022
242 1 2.84477 1.18237 0.179917
243 1 4.06954 6.34927 4.02159
244 1 9.12674 1.79818 3.13914
245 1 5.4392 3.56599 3.10892
246 1 2.38885 7.89939 1.90417
247 1 3.00861 7.97711 3.30239
248 1 6.71048 8.9001 0.188389
249 1 9.3476 0.555598 5.1808
250 1 0.137991 6.32537 4.11711
251 1 6.88152 1.09429 7.84811
252 1 9.12628 8.50908 1.68458
253 1 2.56353 5.41541 7.84805
254 1 7.87516 0.544108 9.22016
255 1 7.68347 8.49961 0.201413
256 1 5.03898 4.21431 3.69954
257 1 0.303636 1.16064 0.932434
258 1 8.75183 1.09417 8.15779
259 1 2.56911 5.60842 4.1881
260 1 4.98481 1.92199 5.82373
261 1 6.1496 1.1146 9.04733
262 1 2.42178 3.40546 3.70795
263 1 5.48021 4.07307 8.07471
264 1 1.43282 7.28034 0.360957
265 1 6.9792 7.92367 2.74161
266 1 4.81255 5.92899 7.78057
267 1 7.02975 4.45836 9.00236
268 1 9.18905 5.64317 6.54977
269 1 9.21301 6.7646 0.045984
270 1 8.16435 0.185132 0.878711
271 1 1.60441 1.95042 7.2444
272 1 6.52826 6.21162 5.78476
273 1 3.03259 9.14213 7.69003
274 1 2.11124 2.58517 7.79206
275 1 4.90228 9.13368 1.81157
276 1 8.07693 6.43816 0.963413
277 1 1.18471 8.39608 3.07843
278 1 2.57074 5.46946 5.81326
279 1 1.36638 3.54052 1.00856
280 1 0.366813 7.62707 -0.0115532
281 1 6.17414 1.44226 7.25237
282 1 4.22869 8.26354 4.51292
283 1 0.058354 8.09911 0.750408
284 1 7.44007 5.88256 5.443
285 1 3.09723 4.73717 2.5641
286 1 6.08871 1.86216 6.30815
287 1 7.53256 3.92813 2.07975
288 1 5.20699 4.8005 1.57418
289 1 3.56866 4.81878 7.39462
290 1 9.20527 3.24485 5.43939
291 1 7.92475 4.73653 8.7201
292 1 3.74425 6.45098 0.459516
293 1 0.499847 4.19827 7.74725
294 1 9.35922 4.44803 9.10973
295 1 0.989225 8.82957 2.20448
296 1 5.54963 8.41134 8.0311
297 1 8.34375 5.68102 5.77917
298 1 8.07286 1.17363 0.489572
299 1 2.51803 7.72487 6.31182
300 1 1.03491 2.30571 2.12781
301 1 6.30644 7.09893 9.24433
302 1 5.48512 2.25157 4.6044
303 1 2.15725 4.74157 6.03542
304 1 5.37052 1.33609 0.387515
305 1 8.81489 6.94798 1.15329
306 1 4.54105 0.492273 1.91963
307 1 2.74382 8.44764 0.512036
308 1 1.36504 2.62789 5.24708
309 1 1.13286 8.31336 7.79468
310 1 8.23614 8.3676 1.95457
311 1 2.96889 6.72902 7.05443
312 1 3.65668 3.0771 3.25092
313 1 7.26807 1.33621 9.37488
314 1 7.68404 2.21692 1.52951
315 1 8.85346 6.43923 8.03736
316 1 3.18209 0.102136 5.97172
317 1 1.43826 6.36874 6.63546
318 1 6.86964 6.42811 4.68909
319 1 6.19045 0.883187 0.790545
320 1 6.96651 5.17557 1.82202
321 1 5.08052 3.28182 8.73252
322 1 4.15192 2.75339 1.80106
323 1 0.702895 5.93491 0.490408
324 1 7.11871 0.389362 1.23543
325 1 5.1783 5.06854 3.21872
326 1 1.9575 3.60663 2.64633
327 1 2.46382 3.20492 0.106612
328 1 9.10503 7.87861 8.47918
329 1 4.93007 4.98783 6.27927
330 1 1.31132 0.743135 9.22428
331 1 1.16845 0.52432 3.93746
332 1 2.93022 0.396225 8.36429
333 1 5.83811 8.61073 5.53259
334 1 3.29485 1.97318 3.77356
335 1 2.55817 8.59509 5.76001
336 1 6.32818 0.154727 3.17431
337 1 2.40457 6.76321 4.24222
338 1 3.4985 3.43998 5.4218
339 1 2.38211 4.66032 5.13877
340 1 1.49611 8.0205 4.0177
341 1 5.65742 2.18416 6.99418
342 1 5.95929 8.12638 2.69346
343 1 0.137874 7.74691 5.11944
344 1 2.5996 3.02854 2.81599
345 1 7.88116 3.9944 6.2727
346 1 4.34479 0.60623 3.13343
347 1 6.42606 6.40501 8.71993
348 1 1.50097 1.88627 8.24996
349 1 6.76202 5.63619 0.288798
350 1 2.31856 7.41892 3.31888
351 1 7.42441 4.37597 7.85853
352 1 8.50377 9.2158 0.0865826
353 1 1.76669 1.87063 4.9409
354 1 8.29889 0.354691 3.44305
355 1 1.41009 1.88436 3.54778
356 1 5.31311 7.63144 7.61852
357 1 6.61561 1.84611 3.85573
358 1 1.85503 8.07551 0.547385
359 1 2.84019 2.35511 7.28336
360 1 2.73916 8.25947 6.88499
361 1 6.17909 9.13603 6.93172
362 1 6.55124 5.86572 1.32418
363 1 5.92288 4.73352 4.06403
364 1 6.15384 2.98471 3.15739
365 1 8.23422 4.41807 4.50409
366 1 5.19264 4.56484 2.47008
367 1 3.86161 5.81553 1.23743
368 1 0.310066 7.31969 1.73818
369 1 9.19354 1.51903 5.45833
370 1 0.124488 3.65895 3.02859
371 1 8.37956 4.79028 5.46875
372 1 4.47655 4.1046 2.05183
373 1 1.36501 7.98599 2.1997
374 1 4.20951 5.3755 0.327111
375 1 9.31744 3.57327 1.18432
376 1 8.328 1.32383 9.02397
377 1 2.59221 1.06722 2.32677
378 1 4.84795 1.96411 0.861948
379 1 3.1796 2.90146 1.04291
380 1 3.76263 5.8081 8.00072
381 1 4.1635 3.22542 4.23445
382 1 0.778209 2.74055 6.93117
383 1 4.9283 8.23543 6.3341
384 1 0.546074 3.03943 8.03333
385 1 0.795568 9.36694 5.1007
386 1 6.2138 4.67868 8.50438
387 1 1.04243 7.95918 6.91187
388 1 9.15789 3.16824 4.08612
389 1 6.71176 6.66547 2.41418
390 1 8.18575 6.57296 0.0508001
391 1 0.115342 1.94288 6.50061
392 1 7.0303 8.65557 7.47669
393 1 3.81458 3.93543 7.40678
394 1 5.33717 3.33278 0.289485
395 1 3.55937 0.832065 5.58488
396 1 5.05574 4.84501 8.07745
397 1 8.3827 7.0321 6.67782
398 1 8.05259 8.80363 7.80754
399 1 5.53394 8.11601 3.44384
400 1 7.6729 2.0107 4.06709
401 1 7.71529 6.54844 7.2101
402 1 0.37854 9.29804 4.28528
403 1 4.45883 2.54197 5.12826
404 1 7.49956 7.66899 7.01973
405 1 7.47548 9.36601 0.354348
406 1 4.83642 3.16193 2.45042
407 1 0.839475 3.39152 3.86826
408 1 6.20642 3.34662 4.30067
409 1 7.9515 4.51276 2.86945
410 1 6.30796 7.39272 4.13064
411 1 4.64456 7.44495 3.36501
412 1 7.17401 3.02078 0.0688894
413 1 6.03776 3.13445 8.52051
414 1 5.26414 1.45198 6.69361
415 1 1.71566 7.36489 6.68168
416 1 1.1739 2.0527 1.12855
417 1 0.622864 0.498017 0.47598
418 1 7.04651 4.19629 4.39931
419 1 6.56231 8.26722 3.61168
420 1 8.08136 0.138339 4.8946
421 1 3.34444 5.6201 0.523166
422 1 2.20477 4.57822 8.00467
423 1 8.79158 7.81913 2.5254
424 1 4.6205 0.812071 7.29124
425 1 7.2462 6.08451 8.18817
426 1 6.35314 0.880845 1.71957
427 1 2.95377 4.2594 7.30221
428 1 5.29728 6.65172 0.56192
429 1 3.84206 0.874774 4.69183
430 1 6.15342 1.36522 4.51308
431 1 6.03011 5.0014 2.87195
432 1 9.16093 6.4423 1.79768
433 1 2.37544 1.95624 9.41511
434 1 3.38009 5.63558 3.65069
435 1 5.51029 8.84544 0.82192
436 1 5.64315 1.45899 5.52419
437 1 5.34308 7.26425 1.32029
438 1 2.7358 5.78283 1.26383
439 1 5.22149 7.5602 4.44335
440 1 8.45839 4.33754 0.0156991
441 1 5.32922 0.909558 4.84658
442 1 4.87711 7.3485 6.89566
443 1 8.0489 8.5953 5.13303
444 1 5.96412 1.02386 2.56971
445 1 8.3982 8.76934 3.82911
446 1 3.01402 8.61433 2.62854
447 1 6.84567 8.32041 4.98911
448 1 8.57934 4.44137 2.26336
449 1 6.74361 8.21088 1.87529
450 1 2.5861 5.7228 3.21665
451 1 6.6028 3.32977 1.04586
452 1 3.91383 5.51055 4.34232
453 1 8.82849 7.5703 0.313931
454 1 0.88077 9.10001 9.12911
455 1 3.46936 3.71953 3.99591
456 1 0.593943 4.47242 4.3498
457 1 3.27677 3.00685 2.22767
458 1 8.00554 5.78713 6.56533
459 1 5.01346 7.81767 0.422357
460 1 1.76811 6.04279 4.30791
461 1 6.24384 4.75629 0.15074
462 1 1.20242 3.49072 7.17936
463 1 3.43424 3.37076 6.69026
464 1 7.5447 7.75458 5.13822
465 1 2.35673 4.25922 4.23825
466 1 0.607247 8.14773 1.74959
467 1 5.57665 3.88572 4.74105
468 1 1.53116 7.05947 3.88347
469 1 3.61733 0.56821 0.0568726
470 1 8.14305 6.62387 4.37909
471 1 8.09107 3.59953 2.64686
472 1 7.29937 7.10975 4.2999
473 1 0.372528 4.88259 5.00274
474 1 7.11003 8.86703 5.78501
475 1 7.8865 8.10425 3.28213
476 1 0.725999 6.95542 4.94768
477 1 7.66296 7.21316 0.76799
478 1 1.42035 2.97519 8.19917
479 1 4.47713 5.60731 3.5924
480 1 5.60244 4.42624 5.7705
481 1 0.693367 2.52996 3.95025
482 1 4.45485 0.30773 -0.0229298
483 1 7.13231 1.39604 0.893953
484 1 8.49728 0.902684 4.99403
485 1 8.53636 9.29143 1.60161
486 1 6.78047 7.25036 4.99296
487 1 7.75348 0.378613 6.13694
488 1 8.99763 3.97603 6.12643
489 1 5.24718 4.57146 0.593588
490 1 2.146 6.23261 8.55883
491 1 0.0453861 5.66116 8.25877
492 1 0.26529 8.59112 7.29144
493 1 3.96337 9.06978 4.88796
494 1 3.97762 2.76894 5.97661
495 1 7.25355 9.24894 4.94014
496 1 3.01265 7.19034 0.398527
497 1 3.62103 8.37482 0.122049
498 1 6.52768 4.01996 8.03516
499 1 8.03134 5.66193 3.10553
500 1 3.43476 8.08589 7.68947
501 1 5.4403 7.3271 9.30409
502 1 7.04438 0.622577 8.75963
503 1 6.69496 9.11522 4.12761
504 1 8.35998 2.2214 6.90879
505 1 5.62714 9.02269 2.79139
506 1 5.28971 5.48968 0.594478
507 1 1.54901 0.0247207 4.60876
508 1 0.783346 6.7581 3.39448
509 1 9.18301 4.22881 5.11133
510 1 4.51062 7.51276 1.84617
511 1 0.674613 8.44323 0.199079
512 1 0.227352 5.43936 3.94131
513 1 3.07697 0.697834 3.98105
514 1 2.13536 1.60704 1.71638
515 1 4.41818 1.47735 7.97997
516 1 6.39342 2.27909 4.74384
517 1 8.25467 6.1527 2.31384
518 1 3.01528 4.64607 8.32095
519 1 7.41668 5.93484 3.98661
520 1 3.50231 7.8407 8.63523
521 1 9.1497 7.18989 4.4564
522 1 7.54134 3.4121 1.15578
523 1 8.83826 6.10079 4.71684
524 1 7.24818 2.62109 3.56427
525 1 8.39886 4.75325 7.7595
526 1 7.66374 3.92597 3.47328
527 1 3.11581 9.01479 6.73092
528 1 9.22965 2.16846 4.10216
529 1 1.57081 2.46861 4.21188
530 1 7.01287 4.10674 6.04505
531 1 8.82264 8.3449 5.79576
532 1 3.18276 7.1775 4.28884
533 1 4.45591 2.93111 0.453359
534 1 1.03537 5.03579 5.63076
535 1 4.34323 9.32481 1.14069
536 1 6.04136 4.77414 1.96184
537 1 7.60873 0.966405 5.3278
538 1 2.2847 5.20635 8.83009
539 1 0.0566757 8.79923 6.16218
540 1 4.63881 7.66889 5.26598
541 1 2.74025 2.92212 5.33011
542 1 0.291567 0.0271122 2.73964
543 1 4.4972 2.26504 2.40186
544 1 5.29165 5.05735 9.10684
545 1 2.78431 6.70074 9.10498
546 1 4.87641 5.78711 4.71841
547 1 8.08634 3.82195 7.22979
548 1 7.24062 0.69503 6.9232
549 1 8.99394 0.236728 6.4663
550 1 1.6949 0.399718 0.601323
551 1 8.44573 2.67344 4.21978
552 1 6.09027 6.97141 5.95218
553 1 6.96005 4.77303 3.683
554 1 3.74752 8.4413 1.06918
555 1 8.28833 2.35664 3.31015
556 1 1.74425 7.40509 1.34552
557 1 5.05732 3.04113 1.56793
558 1 1.24511 3.21266 6.27257
559 1 3.09274 6.37138 5.583
560 1 7.04089 4.78224 0.512684
561 1 0.470203 5.86775 5.02913
562 1 6.02929 7.99779 8.83017
563 1 5.03437 2.06565 8.38506
564 1 7.01954 0.598473 4.1252
565 1 7.47762 9.28359 3.38008
566 1 1.93652 0.945484 6.21669
567 1 7.93763 4.59458 1.616
568 1 5.87537 6.85981 2.64423
569 1 3.72025 2.15295 6.79643
570 1 5.29145 1.04369 2.06213
571 1 5.03786 3.82374 1.01425
572 1 3.71308 -0.00871165 8.56426
573 1 6.9845 5.36185 2.70175
574 1 2.43474 1.78791 7.94311
575 1 4.22924 1.3896 6.49909
576 1 7.11054 7.16563 6.1536
577 1 0.883137 7.79889 0.896339
578 1 3.57979 1.82069 5.50787
579 1 0.392987 1.01811 6.79245
580 1 4.19042 0.727131 8.59309
581 1 4.48672 1.67812 0.0529113
582 1 6.18905 2.84881 0.0978887
583 1 2.2855 7.58942 9.32472
584 1 1.08133 9.32661 3.16294
585 1 2.02102 2.53403 8.69133
586 1 1.13588 5.53194 1.10788
587 1 3.49134 1.04066 8.23707
588 1 9.12355 8.4841 9.37968
589 1 0.883122 5.72877 7.38117
590 1 2.53145 2.51605 3.54873
591 1 6.61584 8.90545 2.78054
592 1 5.03146 0.485036 8.00149
593 1 3.14635 4.88882 4.4523
594 1 2.1599 8.2007 2.80899
595 1 9.00858 1.8861 8.63724
596 1 3.99844 5.19415 6.51909
597 1 1.66116 6.37171 0.162086
598 1 5.44922 5.25847 5.27892
599 1 8.94494 4.01855 7.57354
600 1 5.10157 3.12161 5.91442
601 1 7.81687 5.55834 9.19507
602 1 9.07731 4.25672 3.95167
603 1 9.38179 6.90285 2.6194
604 1 1.04446 5.21635 2.56861
605 1 2.13677 0.883616 4.50251
606 1 7.46342 8.67857 4.169
607 1 3.07946 7.49665 2.36397
608 1 9.30176 8.71028 2.669
609 1 4.29525 5.32311 7.35304
610 1 7.72265 5.19853 7.30864
611 1 8.65311 4.1574 8.49696
612 1 4.66054 4.00356 8.60404
613 1 3.59863 1.51507 0.670585
614 1 8.75029 5.15861 8.85077
615 1 4.78965 0.113965 5.17198
616 1 4.62274 1.62495 3.64761
617 1 0.311007 0.595756 1.93835
618 1 8.14876 3.02283 6.6714
619 1 1.29735 6.12401 5.1119
620 1 3.77119 1.19179 7.41294
621 1 2.71121 0.698459 6.469
622 1 6.61889 8.46178 6.48142
623 1 4.67885 4.12763 5.77404
624 1 3.26005 5.54458 7.07967
625 1 5.91071 0.993463 8.11454
626 1 2.25607 6.34566 5.24653
627 1 2.00563 2.08016 6.41294
628 1 4.22915 8.44347 2.17076
629 1 1.39105 8.47365 1.29103
630 1 5.33524 7.9679 1.98692
631 1 6.01483 6.43349 4.23897
632 1 7.4355 8.10887 6.20095
633 1 1.07079 1.69894 4.37333
634 1 6.91486 3.57293 3.69789
635 1 9.21911 2.38253 2.34081
636 1 1.80143 2.4724 1.59466
637 1 4.59762 0.971386 5.47023
638 1 0.539977 7.56978 4.23575
639 1 6.49296 2.62418 7.01184
640 1 7.53374 2.25708 6.95358
641 1 7.04918 1.40087 4.58502
642 1 7.31363 6.93222 9.27115
643 1 8.41289 7.34842 3.50334
644 1 1.24097 1.34593 6.53839
645 1 9.41109 7.25455 7.75328
646 1 1.26171 4.02109 0.124041
647 1 1.56041 5.23351 6.65045
648 1 7.70912 0.954555 8.23362
649 1 6.05842 6.27802 0.523007
650 1 1.84849 7.90971 7.45103
651 1 6.13955 6.37215 7.65363
652 1 2.40892 7.65564 4.23408
653 1 2.30352 0.730458 9.13379
654 1 7.63776 7.65066 1.89833
655 1 5.8269 7.84666 4.9608
656 1 2.69908 1.14464 3.2026
657 1 1.49614 3.29008 1.93546
658 1 4.5343 7.10783 0.0611827
659 1 8.09588 0.664422 7.38809
660 1 8.05836 7.97362 4.29231
661 1 0.209118 0.256448 8.24676
662 1 9.3464 7.1363 3.64083
663 1 2.35699 4.3221 3.20436
664 1 5.40184 5.36084 2.17223
665 1 7.36776 3.48878 5.37426
666 1 1.35923 5.60475 3.52382
667 1 1.44689 3.76344 4.52421
668 1 3.60155 1.31402 2.90077
669 1 0.49731 1.29403 9.27396
670 1 2.13756 1.81537 2.93849
671 1 3.86155 0.412655 7.71585
672 1 5.22167 7.30112 5.83228
673 1 6.0489 5.52284 8.12251
674 1 2.96737 4.92775 3.47989
675 1 4.26252 7.90868 9.09485
676 1 5.56605 6.37612 9.10761
677 1 9.42237 3.68968 8.31946
678 1 1.91173 5.72277 7.3843
679 1 4.07682 4.86684 5.44566
680 1 7.17788 0.115627 7.86733
681 1 2.2743 8.21489 8.40221
682 1 2.499 5.90677 0.21061
683 1 8.77538 5.51097 7.5145
684 1 8.72207 3.67305 4.60071
685 1 8.91313 0.601826 0.399365
686 1 7.32999 3.32845 7.37139
687 1 8.0165 0.149161 8.32404
688 1 8.80358 6.21211 0.641612
689 1 4.77121 8.84532 7.74466
690 1 1.89408 2.51319 0.592897
691 1 3.85531 3.82253 8.9694
692 1 1.31923 1.20545 1.58126
693 1 4.13331 6.02825 2.06564
694 1 5.3324 4.13334 6.59467
695 1 3.78029 2.1984 1.14823
696 1 1.82037 2.72731 6.97801
697 1 9.38551 2.16781 9.36713
698 1 5.66865 6.10568 5.20197
699 1 6.31043 9.36244 1.10376
700 1 7.71529 2.20785 5.96604
701 1 5.23649 0.66641 6.15838
702 1 4.77145 6.70661 4.92339
703 1 5.96306 8.77596 4.65918
704 1 5.92679 8.00586 0.40973
705 1 1.81076 7.62942 5.8067
706 1 6.02951 3.96464 3.70101
707 1 0.0270153 6.48685 5.52429
708 1 1.63868 3.43353 9.01053
709 1 6.00956 5.60851 9.26738
710 1 3.4074 5.27676 1.77117
711 1 7.23273 2.62303 0.817228
712 1 7.32797 6.25762 2.96186
713 1 0.942499 8.23223 5.85089
714 1 7.94133 8.78975 6.92715
715 1 4.04897 6.98567 5.43408
716 1 7.65752 1.14174 1.6383
717 1 8.38976 7.04625 2.21844
718 1 6.95212 2.53566 5.73394
719 1 8.74834 5.04335 3.41463
720 1 0.25672 3.55509 7.1479
721 1 7.3611 5.96795 2.10096
722 1 0.788311 6.85522 7.04242
723 1 5.98877 1.92187 2.1032
724 1 0.29035 4.7341 1.75163
725 1 6.89033 6.591 0.576731
726 1 7.15663 9.223 6.64404
727 1 7.04432 1.61374 5.43891
728 1 8.74017 1.43096 7.32052
729 1 0.427579 3.54202 4.72732
730 1 1.15617 2.94087 0.276729
731 1 7.34115 5.05721 4.53127
732 1 5.31677 0.371434 8.84432
733 1 1.02222 9.17027 5.98311
734 1 3.08526 8.40899 4.18787
735 1 1.86642 8.96774 2.67126
736 1 5.30494 2.14145 9.31569
737 1 4.64523 6.39526 8.63441
738 1 1.93705 4.29661 0.719546
739 1 7.0547 0.837163 6.01856
740 1 3.97459 6.12731 5.09052
741 1 5.15186 0.357223 2.71368
742 1 4.27518 5.02973 2.10484
743 1 7.97811 0.177701 2.61984
744 1 0.200126 2.86255 3.31359
745 1 1.2898 8.09013 8.9608
746 1 2.47724 5.90623 6.55553
747 1 4.4441 3.32406 5.3838
748 1 8.46677 1.14445 2.85723
749 1 3.28325 6.29594 1.89829
750 1 4.85704 6.83901 3.9869
751 1 6.79035 5.08914 7.77712
752 1 6.42981 3.06552 7.75257
753 1 6.2229 5.81711 3.35535
754 1 1.6635 5.66165 5.88063
755 1 0.1648 3.07487 6.2837
756 1 5.38005 2.16944 2.70069
757 1 2.08571 0.0897299 6.91229
758 1 2.82638 7.61467 5.30369
759 1 9.34753 0.883159 2.8008
760 1 1.80847 9.35909 9.05136
761 1 5.65664 3.92466 9.06167
762 1 4.00212 2.07862 3.18693
763 1 0.77197 4.077 5.52174
764 1 6.55302 7.98837 5.72729
765 1 8.05139 3.29991 0.220643
766 1 3.66798 8.85027 3.64339
767 1 2.8843 8.97468 4.92691
768 1 4.07011 8.88638 6.33657
769 1 1.29384 6.16706 8.7982
770 1 6.21765 -0.0118284 5.89305
771 1 8.80841 3.03771 2.92036
772 1 3.315 8.36269 6.15523
773 1 2.85958 1.48884 8.73382
774 1 0.346557 1.40976 3.91171
775 1 2.79252 7.76587 1.08246
776 1 3.18181 5.51207 5.14557
777 1 7.85299 1.29361 6.38084
778 1 1.02081 6.46065 2.41738
779 1 1.10934 8.84303 3.90477
780 1 1.76015 0.995058 3.62609
781 1 8.32658 0.747914 2.08688
782 1 4.76695 8.36039 3.832
783 1 3.27899 3.93753 3.10329
784 1 9.31711 8.93233 5.0284
785 1 4.68587 0.700419 4.06185
786 1 0.575086 0.713692 4.67197
787 1 0.924656 3.39934 2.68038
788 1 1.6803 4.37414 2.31975
789 1 4.23357 4.55553 1.11245
790 1 3.12876 4.74211 6.38486
791 1 0.222956 1.27016 7.56511
792 1 5.11465 6.37304 5.86884
793 1 8.61708 6.24017 7.11699
794 1 1.54457 4.03376 3.46122
795 1 8.02818 7.78798 8.1781
796 1 9.09849 9.2463 3.41349
797 1 4.93152 2.42617 6.49397
798 1 0.964891 6.33774 4.25131
799 1 3.01131 4.94593 1.01839
800 1 4.55358 8.65689 0.20879
801 2 0.566529 2.29952 0.554937
802 2 8.34907 1.73121 1.37185
803 2 8.79307 4.13854 3.10253
804 2 5.67469 3.86441 1.85908
805 2 1.75203 3.92851 6.51137
806 2 3.62677 3.06232 8.74325
807 2 4.57751 1.00802 0.727902
808 2 3.90899 1.81458 4.37812
809 2 3.1027 6.27607 4.66481
810 2 6.82341 1.51209 6.61587
811 2 4.27637 9.18469 2.68265
812 2 1.95442 6.42641 1.32369
813 2 3.09331 1.36397 1.5655
814 2 8.89214 7.60976 1.68067
815 2 7.03916 1.99558 7.81629
816 2 8.81536 0.0963796 2.54181
817 2 8.81203 8.08073 7.62821
818 2 5.31831 3.26636 6.91344
819 2 2.18922 3.68477 8.03301
820 2 8.88718 5.19818 4.38616
821 2 9.11566 5.38433 5.34562
822 2 2.67102 4.80921 0.172955
823 2 0.849925 4.46157 8.67548
824 2 5.28672 6.01182 3.54211
825 2 6.91901 4.24752 1.43679
826 2 0.685572 3.01986 1.29429
827 2 5.48159 6.06358 1.48686
828 2 4.36469 5.48458 8.79658
829 2 3.77622 8.34816 2.94868
830 2 2.60816 6.98553 1.68683
831 2 4.32317 3.74778 3.29827
832 2 0.835774 0.650667 6.05629
833 2 2.42292 5.93245 2.10508
834 2 6.69376 1.05643 3.35378
835 2 3.00613 4.04576 0.886313
836 2 1.50099 8.90255 0.356157
837 2 3.69999 2.0655 2.13258
838 2 5.47802 8.59065 7.07412
839 2 3.68663 9.28375 0.582877
840 2 7.95527 3.61712 8.09149
841 2 6.85586 0.602315 0.308492
842 2 0.124194 7.98509 6.67402
843 2 2.28484 6.93658 5.95893
844 2 6.55527 6.7523 6.68606
845 2 7.68533 2.12857 8.8054
846 2 6.92279 7.38105 8.48039
847 2 6.28693 3.64061 6.9919
848 2 0.742479 3.52326 8.96217
849 2 1.99033 9.26375 1.80611
850 2 4.41376 2.67638 8.99632
851 2 6.35431 0.319136 4.86141
852 2 1.47065 5.58944 8.16433
853 2 3.64975 7.19922 1.48079
854 2 3.2531 7.19447 5.9947
855 2 6.29463 5.73952 2.18722
856 2 0.283092 2.38899 5.64432
857 2 6.98372 1.53291 8.58577
858 2 5.9237 4.09929 0.970975
859 2 6.20584 6.649 1.62231
860 2 4.6521 5.64409 5.57705
861 2 8.87455 2.94315 7.0384
862 2 4.71974 5.77292 6.65834
863 2 3.03035 2.49451 6.16596
864 2 5.98452 7.23493 8.08479
865 2 1.97057 6.39218 3.444
866 2 8.9333 7.41318 6.06515
867 2 2.80011 3.90831 6.34832
868 2 4.4212 3.65604 6.47204
869 2 4.7328 9.03145 8.69439
870 2 2.23158 6.83332 0.607207
871 2 4.48311 2.97745 8.09138
872 2 4.67309 8.66608 5.57641
873 2 6.46899 8.11813 8.02043
874 2 1.3665 6.67093 5.80464
875 2 6.83606 2.02501 0.027624
876 2 0.784742 1.80257 7.13609
877 2 4.8927 6.62829 3.02053
878 2 3.90479 4.14802 4.74581
879 2 8.1636 2.52223 2.42153
880 2 0.458453 5.79916 1.95704
881 2 4.86816 4.61945 5.07299
882 2 3.62244 3.43399 0.281128
883 2 2.83764 2.15095 4.61543
884 2 2.27898 1.35205 6.96172
885 2 9.31279 4.75085 8.19931
886 2 3.67614 1.97997 8.76457
887 2 6.60322 5.17918 5.90912
888 2 2.8084 8.74232 1.40089
889 2 3.28709 6.94952 8.01982
890 2 8.25823 8.51757 8.73158
891 2 5.84261 2.65004 3.90469
892 2 2.88833 0.746365 7.51022
893 2 1.29908 1.48572 2.61827
894 2 3.29267 4.46138 5.3417
895 2 0.683133 3.0981 5.54449
896 2 2.48038 5.0154 6.95903
897 2 0.0570026 4.81834 5.94154
898 2 2.27057 3.04549 6.17072
899 2 6.55801 3.8502 0.293322
900 2 8.60499 4.75921 6.75277
901 2 5.05675 1.23162 8.74562
902 2 6.51502 4.51592 5.33299
903 2 6.03345 5.14481 1.09329
904 2 1.89657 5.1165 2.87052
905 2 1.65364 3.07003 3.38385
906 2 6.31849 4.37821 6.44505
907 2 8.93469 1.50911 0.350489
908 2 3.10397 6.5431 1.01336
909 2 7.51257 8.72234 2.64711
910 2 4.53008 1.87447 7.14785
911 2 0.846143 0.910921 3.17173
912 2 4.18328 7.67579 6.0675
913 2 7.91592 6.55081 5.96694
914 2 8.75856 2.77887 8.14062
915 2 0.49415 7.11862 6.00374
916 2 4.78884 9.30214 6.67911
917 2 0.0920577 5.98412 1.11605
918 2 3.16292 3.82191 8.26811
919 2 0.752331 6.60086 9.38812
920 2 9.41115 5.05882 2.71054
921 2 4.09927 7.71674 0.589564
922 2 0.76757 0.367686 7.54195
923 2 7.42358 5.81566 1.15956
924 2 5.1752 7.3799 2.655
925 2 8.85685 1.02058 1.3232
926 2 7.73617 6.67846 3.5992
927 2 5.64465 0.613309 3.94517
928 2 0.125186 4.51554 6.87432
929 2 5.60817 0.354612 7.27496
930 2 2.39409 5.02473 1.89414
931 2 3.66144 6.36902 8.80902
932 2 2.38039 3.19505 1.67596
933 2 2.94957 3.73471 4.72587
934 2 2.34313 2.17535 5.58729
935 2 4.76817 2.45905 4.20476
936 2 6.11216 5.6238 7.02783
937 2 0.788368 1.50704 5.46841
938 2 7.15568 6.06494 6.48387
939 2 1.47829 0.774983 5.28803
940 2 4.81979 9.2824 3.38088
941 2 8.74433 6.57924 3.26962
942 2 8.24271 1.74172 5.45882
943 2 0.502666 8.80982 1.06134
944 2 7.61062 4.95609 6.0259
945 2 7.91978 7.58212 9.19994
946 2 3.03244 1.37979 4.92409
947 2 2.1501 8.74503 4.35625
948 2 4.66208 5.64652 2.71755
949 2 5.10651 7.31455 8.40883
950 2 3.42002 2.42743 0.182525
951 2 0.54911 2.49655 4.7965
952 2 2.2519 9.20043 8.13494
953 2 2.42422 6.76782 2.76956
954 2 3.54933 2.67513 5.07777
955 2 7.22205 2.65738 8.30266
956 2 3.09618 8.63526 8.80184
957 2 6.60046 0.0540643 2.02381
958 2 3.6018 9.18474 1.71944
959 2 6.6401 5.50304 4.12336
960 2 2.96098 6.5306 3.57164
961 2 4.58794 4.38582 7.38758
962 2 0.700227 0.984378 8.3918
963 2 2.02732 0.71681 1.39811
964 2 3.00901 0.461511 0.77312
965 2 2.70921 1.49483 6.06088
966 2 7.69673 6.75041 1.68696
967 2 4.16773 7.3622 4.46875
968 2 2.27447 1.78994 4.01001
969 2 7.61441 1.45869 7.25046
970 2 3.78924 5.4161 2.79813
971 2 8.35781 5.34383 1.38283
972 2 3.66168 7.35719 3.44247
973 2 3.43087 3.12819 7.79871
974 2 2.89322 5.93863 8.55504
975 2 8.91805 8.1531 3.40475
976 2 9.01547 5.54734 1.94665
977 2 5.24681 1.50818 7.62398
978 2 8.0062 2.89533 7.58012
979 2 2.23256 7.22704 8.49482
980 2 2.5642 0.831057 5.45011
981 2 4.05096 4.56138 8.25618
982 2 5.73401 0.237169 2.0239
983 2 5.63862 6.0081 2.74479
984 2 8.51029 9.15933 5.78167
985 2 5.90589 6.91233 4.98181
986 2 0.83876 5.01522 8.01376
987 2 0.864758 5.45058 9.05838
988 2 6.56899 5.65481 5.01284
989 2 7.75638 3.35783 4.49329
990 2 7.47955 9.27224 1.91457
991 2 5.65672 2.71196 0.922528
992 2 9.34119 2.25496 7.67722
993 2 4.49465 1.52178 1.53198
994 2 3.93187 7.01758 2.5873
995 2 8.72427 2.07459 6.13253
996 2 0.666266 2.04162 8.10339
997 2 3.83528 3.64953 2.3637
998 2 5.90024 2.93168 2.26627