#bin. KALJ data file T=0.5

1000 atoms
2 atom types

0 9.4 xlo xhi
0 9.4 ylo yhi
0 9.4 zlo zhi

Masses

1 1.0
2 1.0

Atoms

1 1 7.21207 5.91854 2.05258
2 1 4.55204 8.98897 2.075
3 1 7.47439 4.98863 1.45458
4 1 7.65056 0.0993592 1.03679
5 1 3.40796 0.863102 1.58604
6 1 5.24307 7.68129 2.53233
7 1 6.77407 0.963646 4.054
8 1 0.420993 0.984269 8.34811
9 1 6.7591 2.79169 5.6845
10 1 5.37996 8.46427 8.41134
11 1 7.40715 4.56406 7.1316
12 1 5.43846 3.89936 4.76604
13 1 3.78707 8.17681 0.420446
14 1 0.0415587 4.42124 6.55099
15 1 8.67352 1.90429 2.57721
16 1 9.33797 2.61078 8.21481
17 1 7.93464 0.0762541 5.46293
18 1 1.06134 6.13881 4.51036
19 1 6.44392 5.34875 0.357594
20 1 8.36293 8.47684 1.37288
21 1 4.59178 2.15559 2.92225
22 1 2.9609 1.75865 7.94533
23 1 8.66391 5.92219 4.64862
24 1 5.42716 1.47822 4.87494
25 1 9.23796 8.79869 8.66059
26 1 9.17484 3.94933 7.37713
27 1 6.76971 7.76354 7.61946
28 1 3.2117 2.0658 2.62228
29 1 5.59024 5.64632 7.30141
30 1 2.7057 4.53309 8.02631
31 1 8.18497 1.59192 3.31082
32 1 6.60674 1.94375 8.90879
33 1 5.93486 1.07289 6.30297
34 1 6.93304 8.6101 7.80323
35 1 0.618842 0.207791 6.65984
36 1 0.242442 8.20565 2.17237
37 1 9.29308 6.79919 1.8448
38 1 1.05594 6.37741 1.4241
39 1 2.63805 6.44417 6.8419
40 1 1.45905 0.956659 6.23479
41 1 6.4922 0.383293 7.71278
42 1 3.98667 0.802674 9.36749
43 1 4.5531 6.07726 2.1524
44 1 3.06014 5.08139 3.6379
45 1 4.42228 4.35414 3.79662
46 1 8.27554 8.84581 0.357891
47 1 1.32577 3.10489 9.13508
48 1 1.33555 8.51937 3.76817
49 1 3.92851 6.9267 0.0110994
50 1 8.27144 9.2421 4.61614
51 1 4.77163 2.13338 6.11762
52 1 7.19399 0.85732 1.35205
53 1 8.87789 4.6916 8.0188
54 1 1.06025 2.65221 6.75929
55 1 4.40313 5.75975 5.88092
56 1 3.80127 1.68841 3.44877
57 1 5.97847 3.99251 2.04832
58 1 5.91214 8.46737 5.22739
59 1 7.0892 6.17304 3.99619
60 1 9.16834 9.30534 3.62986
61 1 9.4003 6.16649 7.79496
62 1 6.12357 3.35528 6.57617
63 1 6.6022 5.1099 1.32625
64 1 6.15033 4.5796 5.19407
65 1 0.956601 7.28568 6.76676
66 1 8.81578 1.29289 3.96487
67 1 0.265444 2.24816 1.74005
68 1 0.487395 0.297662 1.12551
69 1 4.77974 1.19713 7.15868
70 1 1.90365 7.38433 6.52554
71 1 2.62899 7.82878 4.81215
72 1 8.5644 5.27352 8.99913
73 1 3.06558 5.80451 3.11333
74 1 1.72602 6.35624 7.02133
75 1 3.91975 7.38955 3.10865
76 1 1.17538 9.31125 0.578423
77 1 7.16865 2.19974 5.1577
78 1 6.99692 6.83539 4.92361
79 1 5.76199 0.762085 5.39306
80 1 6.80029 0.859479 2.87982
81 1 4.1598 2.29673 0.947081
82 1 4.78064 6.5039 4.46477
83 1 8.80643 5.46451 7.69729
84 1 4.73444 1.39476 9.07285
85 1 3.0918 6.46179 0.56716
86 1 7.64502 3.14206 0.130456
87 1 6.43528 1.01967 8.77795
88 1 1.82274 2.45094 0.16826
89 1 0.830557 7.61351 5.26754
90 1 7.82514 7.21203 0.103791
91 1 0.741537 8.6583 8.84013
92 1 6.5822 3.45037 1.09773
93 1 4.51027 8.50506 9.22887
94 1 3.5894 7.35875 0.798701
95 1 7.18245 3.52794 6.1049
96 1 4.31917 4.53475 6.86019
97 1 4.9225 0.396568 5.16162
98 1 3.90123 2.39646 5.73402
99 1 9.34144 7.63788 3.70532
100 1 7.6185 5.46048 6.97161
101 1 6.49509 3.88702 2.68136
102 1 1.44662 0.418161 9.3035
103 1 7.6331 4.93895 9.33802
104 1 6.11873 1.73445 2.88571
105 1 6.16204 1.54515 4.32514
106 1 4.52491 3.81419 5.05888
107 1 0.802858 7.97609 7.47747
108 1 0.895313 2.25642 4.81983
109 1 1.57242 6.86514 4.22895
110 1 0.179708 1.97966 5.27347
111 1 6.82105 6.17463 2.7968
112 1 4.90747 7.46799 6.18954
113 1 6.47801 1.85307 1.21809
114 1 7.60213 7.42163 6.3181
115 1 5.53583 0.599677 0.153909
116 1 7.83045 9.17724 2.98772
117 1 6.57858 5.15438 7.05267
118 1 6.62843 8.29156 1.32582
119 1 1.59001 6.84398 3.14654
120 1 0.276726 2.88089 7.46129
121 1 2.96344 0.723983 6.26742
122 1 2.33849 8.3615 7.11874
123 1 8.50993 4.65872 3.95966
124 1 6.27116 8.78848 8.75234
125 1 5.76333 4.48387 3.36579
126 1 5.14554 3.35355 7.8432
127 1 6.83249 1.59622 5.98175
128 1 3.15323 4.98997 2.12395
129 1 2.7596 8.68653 2.42422
130 1 5.39147 4.61578 9.25709
131 1 3.17999 8.77392 6.79008
132 1 5.60227 1.18934 1.40415
133 1 2.55138 3.92704 0.983868
134 1 9.23177 5.15545 4.58488
135 1 5.5989 0.832208 3.17389
136 1 7.48857 3.43111 1.06667
137 1 1.85133 4.15994 4.86529
138 1 7.78968 4.07007 7.87584
139 1 3.01753 0.847772 8.16312
140 1 8.42526 8.35082 3.72201
141 1 5.35821 3.59801 2.73978
142 1 6.72378 3.64073 3.58368
143 1 8.66984 6.53256 0.764776
144 1 1.709 7.90101 7.6392
145 1 7.1051 6.42138 6.56693
146 1 7.93427 5.26213 2.18388
147 1 8.57053 0.872261 6.73185
148 1 0.625715 1.51146 1.19419
149 1 6.85055 6.27387 1.30942
150 1 2.23584 0.727272 3.43057
151 1 4.50913 7.99215 4.12852
152 1 4.44787 2.17106 9.09776
153 1 1.20938 4.27808 9.17294
154 1 9.08565 8.32612 3.08432
155 1 3.62297 3.3372 7.6786
156 1 1.86319 7.71443 3.82343
157 1 1.77211 1.34323 1.775
158 1 5.45551 2.75777 8.8794
159 1 3.4229 2.7336 4.98462
160 1 9.11496 2.58084 6.17736
161 1 4.73481 3.14356 6.65478
162 1 2.1701 0.0510905 6.24229
163 1 2.66162 5.66397 6.35134
164 1 2.33883 1.3734 5.90408
165 1 2.21021 2.05248 2.13457
166 1 1.47845 3.63304 4.03871
167 1 6.56613 0.0711832 4.31849
168 1 2.19414 3.00154 3.77339
169 1 2.43363 8.22267 0.361453
170 1 9.26348 7.06455 8.34404
171 1 1.47021 8.83522 7.46136
172 1 3.02801 0.328503 3.62124
173 1 8.02846 1.32416 8.18822
174 1 1.4969 7.25627 5.60422
175 1 7.74504 6.21781 4.64928
176 1 4.40446 3.72473 7.421
177 1 8.81137 5.97121 8.46759
178 1 6.0876 8.76925 6.2546
179 1 6.07332 8.07553 7.98977
180 1 6.77028 9.3535 0.890822
181 1 0.357169 0.949815 3.64369
182 1 8.40032 0.590007 1.91618
183 1 8.87952 4.22718 4.78708
184 1 6.49163 7.98367 9.25214
185 1 9.39009 5.74891 6.96317
186 1 6.54495 8.96693 6.92669
187 1 8.44505 7.63143 4.53967
188 1 3.88398 9.37068 3.22193
189 1 4.22598 9.30437 5.44446
190 1 5.09308 9.07448 1.3222
191 1 5.2119 7.30494 4.36364
192 1 5.9462 7.32617 7.53727
193 1 4.00678 3.68331 6.48715
194 1 0.0902889 7.56407 0.449295
195 1 6.01569 2.41407 8.11577
196 1 1.02311 9.16346 5.25132
197 1 3.81835 6.60179 6.0372
198 1 7.17846 2.293 4.2242
199 1 4.55601 1.31315 3.35116
200 1 3.47986 5.51702 4.733
201 1 0.91207 7.31851 0.669448
202 1 1.01639 5.52472 3.8321
203 1 1.43101 6.28727 9.07189
204 1 2.28533 1.89901 1.12878
205 1 9.24683 6.81422 3.23976
206 1 1.85178 7.77485 9.32526
207 1 1.39955 2.75517 5.39093
208 1 1.60072 1.03877 2.64349
209 1 4.5612 2.76613 8.36738
210 1 7.10396 9.4049 3.43071
211 1 6.1487 2.27975 6.51895
212 1 7.21564 3.97988 4.29533
213 1 4.2235 8.51775 6.05339
214 1 4.55376 5.60342 4.93536
215 1 0.635717 6.44782 7.20121
216 1 5.84147 4.72399 6.70974
217 1 0.0781097 1.07526 6.87385
218 1 9.35159 3.38744 0.543119
219 1 0.587552 8.41101 4.93401
220 1 0.117301 4.9186 7.36596
221 1 3.75044 4.47087 1.58745
222 1 7.75094 1.36786 5.97481
223 1 3.82315 3.1003 8.81402
224 1 9.11599 1.18991 0.979023
225 1 6.69325 1.65325 3.52447
226 1 6.96398 3.596 0.286334
227 1 1.18242 4.66954 5.2972
228 1 5.46403 2.41313 7.05485
229 1 6.27824 8.02322 2.2063
230 1 3.73341 5.49921 1.57199
231 1 4.24223 1.93918 6.95669
232 1 0.0939956 5.13378 8.73324
233 1 7.29791 4.40607 0.577704
234 1 1.15434 5.14102 8.92138
235 1 7.38556 9.17071 4.86518
236 1 3.52148 8.87084 4.2308
237 1 7.52698 4.45458 5.83421
238 1 2.36946 7.4188 2.74259
239 1 6.20469 8.51795 4.23657
240 1 6.11677 6.7845 1.2231
241 1 3.12298 6.83037 2.94401
242 1 3.36437 0.246578 2.44302
243 1 2.44909 4.54705 7.15408
244 1 4.01516 8.0053 2.23302
245 1 1.76285 5.51709 5.98796
246 1 6.97328 2.95534 6.71475
247 1 7.87646 0.951243 2.73382
248 1 1.22776 1.71329 3.13874
249 1 6.37809 6.99393 6.87849
250 1 4.58651 3.16802 5.69187
251 1 6.03417 7.59181 4.1266
252 1 2.75682 5.83372 5.34333
253 1 2.55154 5.58317 0.195831
254 1 6.84106 5.25268 8.6841
255 1 7.20454 3.37482 7.66278
256 1 8.43413 0.433027 7.71878
257 1 2.82888 1.08256 4.02073
258 1 8.85026 7.14413 9.16958
259 1 3.98172 0.858919 6.71073
260 1 0.640967 6.6902 2.45224
261 1 9.32052 0.504791 6.09858
262 1 5.98206 2.74688 0.449965
263 1 7.21501 5.64047 0.698164
264 1 7.27375 3.27503 2.94592
265 1 4.00476 7.36378 6.52411
266 1 2.5706 6.75129 4.17207
267 1 1.45075 4.64236 1.47234
268 1 0.726911 6.58465 5.4168
269 1 2.7809 7.3283 3.53276
270 1 9.27175 1.81563 3.32393
271 1 2.23517 5.8949 8.89524
272 1 2.84296 4.49794 0.260272
273 1 8.34005 0.518772 3.62392
274 1 4.54231 7.10111 2.56646
275 1 1.89049 4.43961 5.95333
276 1 3.39095 0.104903 7.17274
277 1 2.54075 3.92272 5.49589
278 1 1.39176 5.94263 3.03009
279 1 1.03057 8.25409 5.88762
280 1 1.15505 7.15417 8.85387
281 1 3.96595 8.36239 4.96742
282 1 9.12991 1.03219 2.7869
283 1 8.73219 7.40473 5.48002
284 1 2.33322 6.41988 3.22645
285 1 5.35443 8.64563 2.94353
286 1 3.12132 8.40085 9.31228
287 1 2.0843 6.55143 6.00335
288 1 6.85711 7.95535 5.55895
289 1 7.90301 4.23766 1.2734
290 1 4.69496 7.80302 3.18898
291 1 0.0963065 4.2589 3.8427
292 1 6.45684 4.80619 2.40334
293 1 5.59458 7.4185 8.52307
294 1 8.71819 0.227113 2.82588
295 1 6.58195 7.14354 2.55464
296 1 0.438793 1.47131 2.68578
297 1 5.39856 2.24279 4.43616
298 1 4.101 4.42885 0.656529
299 1 6.76884 1.31119 5.05033
300 1 0.166754 7.39832 7.47369
301 1 2.8176 4.61537 4.86508
302 1 7.71815 5.65448 8.86162
303 1 9.06482 1.41033 8.58303
304 1 0.173982 6.13803 4.2133
305 1 0.765698 5.53689 7.31601
306 1 7.88805 6.26007 6.22059
307 1 7.00105 8.73504 6.14229
308 1 1.46603 4.18173 2.30766
309 1 6.93718 3.18711 1.9365
310 1 7.30905 4.67588 2.31318
311 1 5.50298 0.995654 8.7564
312 1 7.72145 1.36357 5.04272
313 1 4.84481 4.64271 4.63065
314 1 2.15689 3.67046 9.09851
315 1 8.43342 5.7539 5.62162
316 1 0.865269 2.31674 5.92192
317 1 7.75254 5.98861 1.41629
318 1 6.4418 5.31266 4.23315
319 1 0.323166 3.4281 2.52653
320 1 2.54617 3.24395 2.19724
321 1 1.1022 1.93367 2.09118
322 1 6.44137 0.954277 0.936617
323 1 6.05565 9.05675 1.43713
324 1 5.78581 9.32085 4.95934
325 1 2.9711 6.00113 1.4023
326 1 9.02858 3.96445 2.21275
327 1 6.77907 6.81649 7.89904
328 1 5.56744 6.53355 6.88999
329 1 7.27531 1.8552 6.8078
330 1 7.8798 9.16955 2.00791
331 1 0.886933 1.7346 4.03737
332 1 2.45142 0.738319 1.23633
333 1 4.42936 7.04937 3.91044
334 1 6.31716 2.36012 4.89981
335 1 7.44168 2.40725 6.11421
336 1 3.66151 8.22376 3.51653
337 1 8.77471 7.87717 2.08251
338 1 2.65039 2.89041 9.20764
339 1 4.94 9.21127 6.74818
340 1 9.08254 2.75625 2.3803
341 1 8.0555 1.51533 7.09399
342 1 4.67735 6.04597 9.18168
343 1 5.43941 1.55074 3.68637
344 1 8.55702 6.9412 6.64485
345 1 3.90079 1.18068 8.53312
346 1 5.65395 1.89827 8.75128
347 1 0.395213 1.94913 8.69278
348 1 4.94303 4.85495 8.4863
349 1 8.8913 4.92638 5.41937
350 1 1.95476 1.41901 9.10423
351 1 1.17534 3.79188 5.43022
352 1 2.58034 8.46888 6.15298
353 1 3.14378 7.73765 7.39675
354 1 8.99004 8.34764 5.23879
355 1 8.45986 1.75507 0.591102
356 1 5.25962 8.22959 5.76364
357 1 4.37033 1.36568 4.774
358 1 4.6295 8.8771 3.70069
359 1 4.21583 3.91656 2.43517
360 1 5.60105 6.56086 3.89004
361 1 3.41629 1.00337 3.12988
362 1 2.4406 0.282064 4.52611
363 1 4.40163 1.6812 7.94427
364 1 6.5852 4.07638 6.96392
365 1 4.96837 5.91523 6.60354
366 1 3.11827 3.98176 2.25437
367 1 2.16348 3.2243 5.04936
368 1 0.463906 5.8457 3.21675
369 1 2.68245 9.13158 9.30345
370 1 3.63585 6.82053 8.44203
371 1 0.484176 2.81645 1.18478
372 1 0.89668 0.704705 4.62732
373 1 3.6627 5.39521 5.6379
374 1 0.110945 4.59433 2.76983
375 1 5.09112 8.42793 0.757944
376 1 3.32334 3.16286 2.59428
377 1 0.102287 7.69738 6.63466
378 1 5.77659 9.08239 0.450896
379 1 8.38345 6.25347 9.3043
380 1 8.22619 8.31664 2.57266
381 1 1.53245 0.566214 1.11089
382 1 1.69349 3.6851 6.34685
383 1 2.01537 4.86746 0.0322055
384 1 9.03578 6.58401 5.68987
385 1 5.63557 4.85328 4.18291
386 1 1.015 9.3312 2.40347
387 1 6.56059 9.05155 5.47921
388 1 0.282152 2.1635 6.66683
389 1 0.705016 0.8417 0.394523
390 1 8.69074 1.6808 4.72003
391 1 6.96976 4.39792 4.96532
392 1 1.30819 8.17347 8.4959
393 1 8.52727 2.0692 8.31283
394 1 7.84427 1.58538 4.1563
395 1 8.17857 4.78286 7.45523
396 1 7.0451 6.01674 8.13823
397 1 3.45688 5.75649 6.57418
398 1 9.1927 5.28703 0.717752
399 1 6.54072 4.35462 9.21455
400 1 7.29252 0.923135 8.78014
401 1 5.35846 6.20904 1.61432
402 1 6.22445 0.159179 3.50501
403 1 4.09093 0.398354 1.12224
404 1 8.42567 3.95056 5.84967
405 1 4.42817 4.83394 5.53254
406 1 8.80626 2.67869 4.48449
407 1 2.69572 5.95084 2.42042
408 1 9.29123 0.337785 8.56318
409 1 6.34002 0.540942 1.71979
410 1 7.94716 7.53822 3.67349
411 1 1.76274 4.44364 3.16482
412 1 6.68414 5.99753 7.27662
413 1 4.84524 0.661122 6.36665
414 1 3.61357 8.79867 2.10013
415 1 5.55823 5.38171 5.00904
416 1 4.73282 4.13761 6.10414
417 1 2.09025 1.59525 8.17967
418 1 2.9509 8.6756 4.92472
419 1 0.537268 7.70307 8.30726
420 1 3.84419 3.33048 1.74121
421 1 3.73603 8.6315 8.58595
422 1 3.31209 8.91361 5.81726
423 1 0.879534 3.60832 6.7433
424 1 7.85544 2.60947 7.17526
425 1 5.1178 7.01507 7.79687
426 1 0.561038 5.56402 2.32179
427 1 8.35816 5.0618 1.31673
428 1 7.61675 3.73705 2.28318
429 1 7.67537 6.38429 7.29949
430 1 3.939 0.826965 5.76358
431 1 8.14672 7.94125 0.463945
432 1 6.49591 1.39321 0.225017
433 1 0.810598 5.23623 6.47009
434 1 5.50257 9.05997 3.98686
435 1 7.81433 6.43058 0.616509
436 1 4.3321 3.00603 2.53714
437 1 9.08085 8.32666 7.18314
438 1 3.78675 0.242276 4.75249
439 1 3.69296 7.85991 8.11848
440 1 8.14164 1.14295 1.20567
441 1 7.4763 9.09633 0.126914
442 1 6.74909 3.06222 4.30486
443 1 6.62131 5.99478 9.0487
444 1 7.89406 2.53071 0.834228
445 1 2.28269 6.93345 4.99731
446 1 8.48833 4.17046 6.71725
447 1 4.18853 6.50017 7.03256
448 1 4.67195 7.40785 0.0967999
449 1 2.82314 6.60551 9.12567
450 1 8.90783 4.26574 1.37545
451 1 2.44835 7.58149 1.48517
452 1 9.01044 1.56356 6.04268
453 1 3.25972 7.95111 1.44874
454 1 5.55865 8.71299 2.07965
455 1 4.49203 1.44317 1.75283
456 1 2.64772 2.71567 2.99974
457 1 8.7276 2.52913 3.21949
458 1 5.79574 0.29701 6.88021
459 1 7.66347 5.43312 5.86354
460 1 8.84675 0.20814 1.01263
461 1 5.58901 4.00778 8.55466
462 1 2.87643 3.96785 3.0976
463 1 7.74958 5.74819 3.15475
464 1 4.92155 3.03377 4.79016
465 1 4.78779 5.54682 1.25086
466 1 2.28402 7.67734 5.6475
467 1 2.91844 9.25005 8.31781
468 1 5.23578 4.39923 2.11291
469 1 2.76654 9.29111 1.62125
470 1 7.73062 6.61931 8.21454
471 1 1.57046 4.80456 7.94568
472 1 8.56792 7.01851 2.31021
473 1 1.43266 8.5738 1.51721
474 1 8.4281 1.13356 5.48453
475 1 7.8891 6.82299 5.38044
476 1 4.29753 3.49835 4.16488
477 1 3.34874 6.55167 7.55471
478 1 3.02249 0.714283 9.02199
479 1 8.72416 5.62623 3.8062
480 1 4.79242 3.78409 1.58117
481 1 7.50449 1.06013 3.56579
482 1 3.01504 1.23861 0.569464
483 1 6.72906 7.49006 8.5031
484 1 2.79043 6.21362 8.21062
485 1 0.848996 3.25289 4.80486
486 1 1.23893 1.83244 6.98961
487 1 1.91659 8.23424 2.19929
488 1 9.10838 8.05226 8.06108
489 1 2.22529 8.47004 4.34048
490 1 5.65629 1.01894 7.65864
491 1 6.795 2.82189 9.21787
492 1 8.71719 2.541 1.06302
493 1 0.265634 8.83252 5.8133
494 1 0.551938 3.06069 5.71978
495 1 6.36436 0.308437 6.02252
496 1 0.360503 6.76679 9.20014
497 1 9.16803 2.82569 5.29366
498 1 7.34838 1.65594 0.440245
499 1 1.73901 2.07653 6.10505
500 1 2.20519 5.60184 1.53847
501 1 0.992699 3.27685 1.8151
502 1 6.87347 4.25317 1.41405
503 1 8.35103 3.52642 7.45423
504 1 4.98956 4.9909 6.31802
505 1 5.67424 8.27003 9.28717
506 1 5.91194 6.44631 7.68746
507 1 1.47751 5.31855 2.12558
508 1 9.34394 7.80894 4.59055
509 1 4.10288 5.42786 7.2088
510 1 3.15997 0.966257 4.94118
511 1 3.78183 4.93274 9.29997
512 1 3.05847 5.13941 1.00462
513 1 8.32198 1.96386 1.63963
514 1 2.69313 1.01673 6.98286
515 1 7.6235 8.32156 3.25462
516 1 7.56963 1.57162 2.07799
517 1 3.43859 7.8967 4.32225
518 1 0.14859 3.03718 9.09571
519 1 4.89728 6.14244 7.56046
520 1 8.35287 3.34518 5.05798
521 1 5.17065 3.32589 0.764
522 1 4.23779 3.44787 0.810646
523 1 8.68125 6.17013 1.54771
524 1 7.4722 2.48542 1.62229
525 1 0.350037 9.30737 4.55194
526 1 4.79124 0.383957 3.31926
527 1 5.85044 7.70961 1.51341
528 1 4.18359 0.570226 2.44396
529 1 5.35203 9.14983 9.02018
530 1 3.17525 3.62264 0.0742869
531 1 7.71447 6.84656 2.49704
532 1 8.15734 2.13964 5.466
533 1 0.429589 8.504 3.65946
534 1 6.8334 2.19473 2.31511
535 1 6.00778 4.95835 8.52523
536 1 1.5302 0.901334 8.37385
537 1 8.35693 0.850058 4.58082
538 1 9.30061 0.654771 4.36066
539 1 5.05244 2.88152 3.84195
540 1 6.60064 4.55756 7.78737
541 1 1.06648 4.56224 7.14011
542 1 2.40146 4.61287 1.82163
543 1 6.84967 7.06655 5.80688
544 1 5.07558 5.98321 3.29223
545 1 7.93159 8.87067 6.327
546 1 7.13156 7.60846 3.04669
547 1 6.80919 7.12325 1.69994
548 1 0.966293 7.82358 4.19537
549 1 0.598319 2.56094 2.58669
550 1 9.07773 9.04332 6.60437
551 1 0.132017 4.93945 1.53152
552 1 6.1717 5.85997 1.98333
553 1 6.88982 7.73721 6.67053
554 1 9.18862 4.3694 0.127562
555 1 6.26567 5.6567 7.96142
556 1 8.18445 0.599212 0.357535
557 1 8.26478 2.19372 6.45938
558 1 5.98624 8.06932 0.643334
559 1 7.22882 0.590655 5.83494
560 1 5.85225 3.09321 4.46016
561 1 6.47264 5.9285 6.40057
562 1 5.27872 8.24277 3.82621
563 1 7.84323 2.70514 4.67778
564 1 4.93285 2.48521 0.451969
565 1 8.25008 7.63267 8.77986
566 1 6.9295 5.37559 5.06379
567 1 6.25193 7.63672 4.95408
568 1 0.504666 8.84336 7.5375
569 1 2.2285 0.361439 8.71877
570 1 1.82296 1.20884 0.625522
571 1 3.28493 1.70802 6.75295
572 1 3.61015 2.1529 8.56393
573 1 2.39246 0.577599 5.48725
574 1 8.82299 9.35513 9.29575
575 1 2.14156 8.29072 3.19939
576 1 3.95846 1.65246 6.12839
577 1 3.159 7.27501 2.13144
578 1 0.694176 4.01231 0.981767
579 1 1.91917 6.03337 5.07437
580 1 4.44023 9.22502 0.511777
581 1 2.12816 3.23126 0.566783
582 1 5.20142 0.0825222 2.39194
583 1 1.44544 2.9477 7.61994
584 1 4.63174 2.29864 5.11581
585 1 0.664701 4.46444 2.08781
586 1 6.37593 3.0609 7.44605
587 1 1.75323 7.63625 4.76368
588 1 0.185537 7.51262 2.73036
589 1 2.27765 7.62888 8.36809
590 1 1.9581 5.03643 0.881804
591 1 2.43621 4.18462 3.80042
592 1 5.81561 4.89779 7.61629
593 1 3.77168 4.55851 5.07694
594 1 8.97559 8.05831 8.998
595 1 3.55264 1.47918 9.31705
596 1 5.80581 0.976953 2.35685
597 1 4.63865 6.50311 0.622679
598 1 6.27102 4.00981 4.4276
599 1 3.99352 2.73631 4.09903
600 1 0.917573 0.645033 1.98046
601 1 4.06243 1.43543 0.800094
602 1 6.93173 7.68164 3.89982
603 1 8.85294 1.89278 6.95465
604 1 3.62442 2.8507 0.317806
605 1 0.63881 5.85147 9.11504
606 1 1.52 7.59401 2.6662
607 1 1.79764 8.78285 9.34672
608 1 7.86425 4.73917 3.27165
609 1 3.60321 3.56988 4.87138
610 1 0.220921 5.97378 6.09623
611 1 5.83832 6.4227 9.36312
612 1 7.84643 5.54748 4.05113
613 1 3.29462 0.261005 5.49529
614 1 1.4512 5.64055 0.378821
615 1 8.92179 2.286 9.31144
616 1 7.3906 3.40168 5.16015
617 1 3.69833 6.11087 9.0131
618 1 1.87952 5.95776 3.95027
619 1 1.12971 8.1959 0.245255
620 1 4.59858 2.12601 4.0203
621 1 1.82357 7.70024 0.859872
622 1 3.83605 6.40433 1.36582
623 1 6.36152 3.22178 8.53065
624 1 1.63718 2.85475 2.47514
625 1 7.44748 7.635 4.87939
626 1 1.12035 2.66694 4.00966
627 1 7.3306 0.417099 2.11624
628 1 2.89179 2.71888 8.0797
629 1 5.72251 5.44335 6.06663
630 1 4.74813 5.09752 0.415439
631 1 5.30137 2.71098 2.96487
632 1 1.3017 9.07747 6.29335
633 1 0.923219 0.960434 7.0861
634 1 8.3472 2.90953 8.30298
635 1 2.72597 1.05599 2.20482
636 1 0.759308 3.9887 3.17055
637 1 7.39544 2.75849 8.4289
638 1 2.62069 4.92779 5.76418
639 1 7.27899 0.879232 7.68788
640 1 8.30725 3.13348 1.78527
641 1 7.55526 8.28691 6.921
642 1 6.90809 9.02248 1.84484
643 1 7.56422 8.50531 0.934326
644 1 2.67437 4.81754 2.87578
645 1 4.31371 7.39423 4.78165
646 1 4.74375 6.65687 5.99113
647 1 2.17492 6.59506 1.61703
648 1 8.40686 4.38535 8.82009
649 1 6.11363 6.67549 8.60419
650 1 1.54761 7.43452 1.68043
651 1 2.25106 8.39628 1.21212
652 1 4.34917 0.0873508 4.19537
653 1 1.8107 0.0533703 2.01835
654 1 6.73596 2.44534 3.14555
655 1 1.63631 0.201713 6.95175
656 1 0.910663 6.4484 0.485507
657 1 0.227463 4.15573 5.39955
658 1 1.0474 1.96999 0.169563
659 1 2.06528 5.36806 3.20462
660 1 0.641936 8.54008 6.67364
661 1 1.96035 6.69487 8.2511
662 1 0.511836 8.55285 1.24172
663 1 6.14656 7.83842 6.1118
664 1 4.82131 0.957278 4.17353
665 1 6.05505 5.9794 0.979678
666 1 3.65918 8.69973 7.64606
667 1 3.20929 8.70199 0.992131
668 1 4.03278 2.34277 1.88796
669 1 7.05736 6.79401 9.08944
670 1 5.07585 0.339019 7.81371
671 1 7.8044 3.78009 3.39461
672 1 1.83566 6.22858 0.889329
673 1 8.18414 4.31058 0.307141
674 1 3.27986 4.30284 5.84839
675 1 8.72704 6.70782 7.62843
676 1 6.51306 1.36183 7.97655
677 1 7.30079 5.27368 7.81058
678 1 4.19735 3.82419 9.1665
679 1 6.5595 0.412406 5.12252
680 1 6.14295 6.69751 4.56858
681 1 4.57511 9.028 8.41655
682 1 7.53131 1.97424 7.86267
683 1 3.15778 6.44749 4.89456
684 1 5.86839 6.84756 5.94042
685 1 0.428113 3.19846 3.88114
686 1 7.71513 4.78637 8.41653
687 1 5.48602 7.21815 3.3456
688 1 9.30509 0.342482 7.31856
689 1 8.16858 8.76616 8.69372
690 1 3.46834 4.29477 4.10385
691 1 7.63447 7.64432 2.12747
692 1 3.20714 0.242941 0.564535
693 1 4.87724 0.584219 1.61933
694 1 3.07955 7.94453 2.85096
695 1 5.04336 1.37127 2.62221
696 1 5.76849 3.89305 5.77436
697 1 1.33515 2.0832 1.16418
698 1 8.45769 6.27902 2.91787
699 1 4.83243 4.52301 2.97225
700 1 2.37827 0.544814 0.287597
701 1 2.55217 5.4959 4.46694
702 1 6.29 2.69091 1.51433
703 1 2.42935 0.1215 2.83105
704 1 0.990636 5.55236 1.24338
705 1 9.02969 8.62251 4.32129
706 1 5.0574 7.32065 5.33062
707 1 2.58687 2.14639 8.74367
708 1 8.30943 2.97354 5.87684
709 1 8.4594 3.36066 3.78494
710 1 7.91048 4.13151 4.88422
711 1 5.17662 1.96608 7.86021
712 1 8.00605 5.08681 4.92108
713 1 5.75329 1.78833 5.8784
714 1 7.17031 6.08648 5.56589
715 1 1.60772 6.96863 0.267514
716 1 3.24812 1.85812 1.64442
717 1 9.1347 5.64235 2.0551
718 1 5.92498 1.95792 1.91287
719 1 0.4183 0.0470207 9.34519
720 1 8.66704 3.36423 0.0383945
721 1 1.7751 5.77036 8.03665
722 1 0.49248 2.42668 3.38548
723 1 8.92486 8.99404 7.82842
724 1 5.23409 8.04255 7.55629
725 1 4.09089 0.505137 7.7087
726 1 3.48942 8.0435 6.4077
727 1 1.93426 0.184642 7.85412
728 1 5.01082 5.16412 3.62942
729 1 8.46701 7.31575 1.16519
730 1 8.042 8.04313 5.64813
731 1 0.782349 6.39955 8.33589
732 1 2.2627 9.20002 5.1554
733 1 3.67431 0.273582 8.49811
734 1 1.0233 8.39009 2.49768
735 1 4.07 6.5426 5.09127
736 1 5.10933 7.09741 1.70711
737 1 2.37172 1.47668 4.71422
738 1 5.68482 2.69292 5.40385
739 1 3.20499 8.00833 5.61865
740 1 3.77292 5.6024 0.6556
741 1 2.14342 4.76677 8.6309
742 1 1.24209 3.07941 0.649007
743 1 3.3453 5.97004 3.95725
744 1 4.79408 8.95955 4.86537
745 1 3.48809 4.15158 7.29605
746 1 1.69253 0.820542 4.9529
747 1 1.80389 1.00602 7.38896
748 1 3.81653 2.4867 7.62925
749 1 4.64655 8.83305 7.57861
750 1 1.49398 3.60265 8.31571
751 1 3.42456 3.46669 3.62778
752 1 3.91632 0.828142 3.88938
753 1 0.325707 4.07111 8.81495
754 1 2.177 1.64356 3.29464
755 1 7.16381 0.746527 0.336482
756 1 2.08001 8.70355 8.39242
757 1 8.39534 1.54988 9.07395
758 1 0.0739663 2.08265 4.22586
759 1 4.225 3.54847 3.29255
760 1 8.04021 5.82365 7.93436
761 1 4.64804 0.21225 9.16919
762 1 4.45345 7.75534 0.925602
763 1 1.25058 6.19934 6.20317
764 1 4.07863 7.35004 1.61499
765 1 4.13116 5.25847 8.41132
766 1 0.602061 1.32003 6.15584
767 1 4.94028 8.12488 1.58517
768 1 2.59098 3.98823 6.39765
769 1 1.33012 9.20013 8.30002
770 1 7.36673 9.20999 7.20821
771 1 5.21304 3.82119 3.90315
772 1 5.80605 0.342714 0.915015
773 1 8.69722 4.75082 2.1235
774 1 0.0914835 1.13961 5.1785
775 1 6.62148 7.42885 0.746711
776 1 2.48799 0.0254789 7.12322
777 1 7.39237 8.47739 4.04318
778 1 1.40007 0.515056 3.43588
779 1 1.83115 5.02965 3.97552
780 1 2.83081 2.39574 0.540744
781 1 7.9768 6.80164 1.66696
782 1 4.24389 5.03697 2.23102
783 1 3.31781 7.34114 5.06597
784 1 2.00397 2.78387 1.57218
785 1 0.73394 6.69146 3.60426
786 1 4.26442 5.85096 4.0281
787 1 0.93347 5.01388 2.99039
788 1 5.54861 5.47207 9.1386
789 1 6.50693 8.54985 3.27207
790 1 8.82849 3.8362 8.18219
791 1 8.39421 6.55995 3.92492
792 1 5.97702 9.01048 7.69997
793 1 4.304 8.55099 2.88621
794 1 7.76039 2.37044 3.27504
795 1 4.08293 8.58304 1.2682
796 1 3.96636 5.31839 3.29292
797 1 3.37719 4.88562 6.70615
798 1 8.92218 8.81024 2.26097
799 1 7.13964 8.71513 8.73637
800 1 1.81109 3.66684 1.48021
801 2 7.90284 8.37175 4.68201
802 2 3.76478 9.32509 9.32657
803 2 1.64221 1.04587 4.09854
804 2 1.27259 7.11398 7.84017
805 2 4.65824 4.66949 1.41023
806 2 6.87102 0.377864 6.73221
807 2 1.46104 8.24342 6.72751
808 2 2.36521 2.34277 5.3382
809 2 5.57331 1.5741 6.94007
810 2 9.10088 0.288609 5.19436
811 2 2.37432 3.15479 5.96198
812 2 9.27425 3.38528 4.56599
813 2 2.09114 9.2534 3.841
814 2 1.62716 5.16762 6.81012
815 2 8.95707 6.75252 4.73958
816 2 7.77284 9.26662 8.05567
817 2 7.06948 3.93492 8.61212
818 2 5.68704 0.61376 4.34705
819 2 5.60687 5.18088 1.60216
820 2 5.89786 7.95693 3.16262
821 2 6.46661 0.10759 9.25173
822 2 7.11592 5.16177 3.10214
823 2 2.90963 6.74491 5.76684
824 2 4.129 9.31951 6.38036
825 2 5.93224 3.80157 7.7253
826 2 2.12599 2.42413 7.50897
827 2 3.77408 2.66079 6.62385
828 2 3.7027 5.68435 2.48511
829 2 5.29723 7.19647 0.728973
830 2 8.34612 7.46578 7.90751
831 2 5.27461 4.69049 5.48286
832 2 1.67878 2.41182 3.23161
833 2 6.78818 6.51496 0.446151
834 2 4.15251 6.23818 8.1208
835 2 3.82688 7.74663 9.09634
836 2 1.80226 1.87091 4.13028
837 2 2.34922 9.10989 0.79004
838 2 2.87902 2.03293 3.5517
839 2 0.379012 4.99743 5.50165
840 2 2.64796 3.48165 8.33174
841 2 1.65086 1.84393 5.24936
842 2 2.26595 7.16815 7.34983
843 2 1.01672 1.33922 8.98997
844 2 5.95752 2.46325 3.78926
845 2 7.60099 6.97462 4.23679
846 2 7.48514 7.35739 7.31706
847 2 6.51601 4.6529 3.73742
848 2 9.31065 8.72926 0.344533
849 2 1.75379 3.83223 7.19423
850 2 3.16902 2.79276 1.34435
851 2 9.28633 3.41155 1.4677
852 2 6.22854 5.87213 5.14418
853 2 4.57713 3.87114 8.359
854 2 7.50948 7.93881 8.19481
855 2 2.762 2.34303 4.51721
856 2 0.887795 0.445112 7.81284
857 2 9.16441 3.53128 3.2891
858 2 4.98927 2.14827 1.21988
859 2 0.0688842 6.79628 6.66368
860 2 0.662034 4.75059 8.09175
861 2 1.54482 6.31603 2.23741
862 2 1.58006 9.06707 4.51777
863 2 6.97021 2.70081 0.758023
864 2 5.38759 6.26328 5.2717
865 2 1.99849 3.63514 2.92484
866 2 6.68282 1.3641 1.94905
867 2 5.56575 7.37719 6.70675
868 2 1.04773 5.6418 5.34132
869 2 3.55479 6.83951 4.17914
870 2 9.24489 5.20237 6.34426
871 2 2.92811 7.5004 9.07595
872 2 9.2659 3.52886 6.24429
873 2 9.16958 8.09481 1.13112
874 2 8.48957 7.76711 6.95592
875 2 4.5351 6.82104 8.74184
876 2 0.791385 2.73313 8.40939
877 2 2.16471 1.71385 6.77862
878 2 6.48917 1.09714 7.09671
879 2 8.77837 2.54611 7.5469
880 2 3.6818 1.3083 7.44374
881 2 6.51817 6.8191 3.67906
882 2 8.24074 5.39095 0.46367
883 2 0.0806271 5.14513 3.57721
884 2 4.91866 5.03669 7.28178
885 2 3.6719 1.99995 4.67475
886 2 1.15573 1.72844 7.99136
887 2 9.10486 0.825539 9.33198
888 2 0.920477 7.60907 3.35167
889 2 0.389992 7.09031 4.24457
890 2 0.922739 1.38893 5.32611
891 2 0.96761 4.66993 3.85075
892 2 0.161548 6.28414 1.07227
893 2 7.24362 4.86704 4.206
894 2 3.84739 1.38547 2.2603
895 2 7.92332 2.61905 2.36111
896 2 4.77067 0.88033 0.599309
897 2 0.705275 0.597663 2.86013
898 2 4.88889 2.22681 2.10879
899 2 6.11278 5.6055 3.35459
900 2 0.927081 4.32425 6.19729
901 2 7.62764 0.533922 4.2078
902 2 3.36417 3.30738 5.89454
903 2 8.44034 3.38417 0.906718
904 2 0.662747 4.85987 0.60019
905 2 0.720678 3.56046 7.72711
906 2 4.75414 0.731362 8.49727
907 2 1.95276 2.87362 8.41241
908 2 2.64931 3.52811 7.26768
909 2 1.58362 9.0272 2.98939
910 2 1.86962 5.00994 4.83791
911 2 5.82568 6.25606 2.90105
912 2 8.66285 5.30813 2.90237
913 2 5.99173 7.2905 0.101093
914 2 5.2501 6.28196 8.47526
915 2 7.42788 8.13955 9.365
916 2 7.58304 6.77481 3.41171
917 2 6.2987 3.44097 5.20587
918 2 8.17337 8.31341 7.68439
919 2 6.09402 8.19271 7.02243
920 2 5.74464 3.99477 1.1671
921 2 0.114523 5.83562 5.06782
922 2 5.39152 2.92107 1.65352
923 2 3.99508 4.981 4.32922
924 2 5.45919 1.75294 0.372219
925 2 6.68505 8.61635 0.366095
926 2 4.61234 2.73174 7.45237
927 2 5.22492 8.30671 6.69252
928 2 1.61072 8.40659 5.09391
929 2 9.32723 1.28543 1.88677
930 2 0.693229 5.08569 4.61701
931 2 6.39456 2.06911 7.38189
932 2 7.53317 7.51936 1.01872
933 2 3.09315 1.8316 5.45103
934 2 3.95234 7.34497 7.43175
935 2 8.55574 5.78769 6.55813
936 2 5.24732 8.10119 4.78091
937 2 4.7344 7.84404 8.64341
938 2 2.53186 5.38611 7.17618
939 2 0.60708 0.0439109 3.64525
940 2 4.78544 7.37849 7.02516
941 2 5.77734 6.8491 2.21899
942 2 2.85327 7.09168 8.08674
943 2 5.24288 9.23624 5.91332
944 2 8.30181 4.82617 6.1702
945 2 8.97986 1.1612 7.72328
946 2 2.51663 5.38838 8.05867
947 2 1.91376 2.90124 6.6851
948 2 8.77797 8.26789 6.24112
949 2 0.175562 7.89367 5.7507
950 2 2.70226 2.31529 6.19438
951 2 5.9285 0.25858 8.45103
952 2 8.62433 7.5232 3.02528
953 2 2.90774 3.39379 4.29731
954 2 9.23988 5.93189 0.0792204
955 2 2.648 7.26451 0.538772
956 2 7.98446 3.65592 8.77371
957 2 3.42441 3.95187 0.943592
958 2 0.708821 7.31829 1.65308
959 2 3.6165 4.58876 2.94022
960 2 2.89559 7.36585 6.43687
961 2 6.03043 3.09529 2.40758
962 2 6.33512 0.0735514 2.56839
963 2 7.49806 3.00287 3.79518
964 2 3.56511 4.12126 8.52817
965 2 8.57886 4.2412 3.08172
966 2 2.85467 2.64797 7.00888
967 2 4.97979 4.11586 0.594634
968 2 5.15214 4.29189 7.60546
969 2 3.23792 5.28116 8.60663
970 2 4.12879 6.3321 3.09547
971 2 4.2474 4.58595 7.78119
972 2 1.22408 3.22943 3.18541
973 2 4.14636 7.68134 5.68553
974 2 6.44012 4.85444 6.08976
975 2 0.604599 0.428114 5.44399
976 2 5.01405 3.53502 9.26777
977 2 2.88804 8.72869 3.64057
978 2 0.67059 4.16738 4.60149
979 2 8.47956 3.34693 2.79567
980 2 1.58696 2.19641 8.8124
981 2 9.3072 0.166705 1.81764
982 2 5.53442 5.33396 2.64181
983 2 5.34317 3.62547 6.94666
984 2 1.75421 4.2165 0.568739
985 2 4.96587 1.19053 5.58681
986 2 8.3653 0.403365 8.63598
987 2 0.450052 1.71412 7.46178
988 2 0.129649 9.30132 2.71544
989 2 5.78793 3.85793 0.303319
990 2 8.27214 9.05142 7.20893
991 2 7.61749 3.53319 6.89897
992 2 9.39364 1.92105 0.565215
993 2 8.68074 3.04209 6.78344
994 2 4.2434 8.21334 6.90648
995 2 5.40623 2.72804 6.21713
996 2 5.26078 5.72197 4.23448
997 2 2.85364 8.30451 8.08059
998 2 3.40307 5.16332 7.62322
999 2 6.81232 0.165654 8.41141
1000 2 7.80248 2.26863 9.17723

Velocities
