#bin. KALJ data file T=0.5

1000 atoms
2 atom types

0 9.4 xlo xhi
0 9.4 ylo yhi
0 9.4 zlo zhi

Masses

1 1.0
2 1.0

Atoms

1 1 4.94239 0.872088 3.07327
2 1 0.972724 7.64854 8.16853
3 1 0.272828 4.69996 4.5612
4 1 1.205 5.70907 6.40876
5 1 0.169806 8.79985 5.2959
6 1 5.04007 4.41739 1.26544
7 1 3.83324 8.12004 0.89991
8 1 8.8578 0.0227929 7.80977
9 1 2.32594 3.93023 6.38772
10 1 5.26178 2.84467 6.41934
11 1 6.39947 1.7511 0.770675
12 1 9.37945 4.4219 2.62014
13 1 9.24611 4.27917 3.76701
14 1 0.582499 5.37483 8.94858
15 1 1.42997 6.40662 4.32825
16 1 1.18352 8.56102 5.95733
17 1 4.57094 7.11543 7.63457
18 1 4.62265 1.77469 3.05643
19 1 8.75656 1.56172 8.44185
20 1 5.76774 5.58733 7.59013
21 1 9.00784 2.33278 0.334761
22 1 2.96314 5.66938 0.736939
23 1 6.19563 3.27884 5.2809
24 1 5.25346 4.59481 2.43037
25 1 2.21441 0.593551 8.72782
26 1 0.287861 0.934886 6.61161
27 1 0.672294 4.9759 8.10556
28 1 8.38087 4.206 8.55115
29 1 5.4672 0.194399 1.23075
30 1 7.76649 2.77325 2.48031
31 1 2.19798 5.51275 4.99812
32 1 2.07031 3.26011 1.45765
33 1 6.21907 8.65435 1.32096
34 1 6.55932 4.54243 7.2724
35 1 3.7984 0.703946 9.01388
36 1 4.75625 4.59885 6.47935
37 1 6.38579 2.86255 3.48072
38 1 -0.0231196 0.0761577 5.91067
39 1 8.44899 2.74916 5.93818
40 1 2.1112 2.34344 3.6679
41 1 0.1667 3.57269 2.06671
42 1 5.04897 8.00802 2.52052
43 1 9.14907 4.46877 7.48673
44 1 0.706699 6.99184 0.157313
45 1 3.21635 6.94147 2.15837
46 1 7.47356 4.7964 7.14244
47 1 2.67255 1.49236 8.044
48 1 1.46691 4.95605 8.50254
49 1 3.97038 2.16929 3.52055
50 1 8.5749 5.10083 8.0043
51 1 5.96677 4.07501 1.23883
52 1 0.820518 7.96257 1.31403
53 1 5.17822 3.79604 0.646929
54 1 0.52153 5.16422 3.64124
55 1 1.77713 4.26585 0.0983233
56 1 4.11238 8.68121 7.89114
57 1 1.17379 2.62683 9.37986
58 1 7.61079 5.17725 5.33797
59 1 3.46723 4.88505 8.18487
60 1 1.96026 2.86476 4.74247
61 1 8.23632 0.644006 7.82142
62 1 5.69318 1.0763 7.32403
63 1 0.555026 0.845617 2.60488
64 1 6.75602 6.46619 0.69693
65 1 0.478265 8.61009 0.667933
66 1 4.19077 5.01401 1.08275
67 1 8.72411 6.75792 8.73392
68 1 3.5596 0.421471 7.14861
69 1 3.33304 6.00298 2.52609
70 1 0.0442852 8.9639 8.56118
71 1 2.31135 4.51265 5.28696
72 1 6.97618 3.6964 1.94507
73 1 8.21296 2.32386 5.0427
74 1 8.84537 7.93321 2.11975
75 1 3.58136 1.20217 4.02183
76 1 8.14363 0.980439 6.73969
77 1 8.57042 1.38685 2.97215
78 1 5.19903 5.49508 2.7331
79 1 8.10957 7.06212 9.36754
80 1 6.03345 5.69439 1.1509
81 1 7.90107 2.34253 3.35717
82 1 6.07002 7.63808 6.63769
83 1 8.68876 1.39466 0.0519998
84 1 7.77715 6.95641 8.5088
85 1 1.31494 6.86652 8.68716
86 1 6.25713 8.71325 4.68112
87 1 6.96305 0.193234 2.29875
88 1 8.30678 2.50785 8.5253
89 1 6.47667 8.07177 0.642778
90 1 4.086 1.01485 5.12427
91 1 8.58799 0.582392 1.03288
92 1 8.21947 5.40683 6.96132
93 1 0.404303 0.782219 7.55178
94 1 4.58817 4.83148 8.01489
95 1 2.68321 8.07688 8.83859
96 1 2.66023 3.18839 2.18958
97 1 7.09454 4.3468 1.3767
98 1 5.25003 5.49532 6.65006
99 1 3.20189 1.97261 4.5435
100 1 4.44089 3.64403 4.11057
101 1 4.47006 4.17279 7.21735
102 1 7.37544 1.02397 4.68157
103 1 3.02367 2.22013 7.54757
104 1 0.166396 6.58906 7.08338
105 1 2.5579 2.93091 9.15461
106 1 1.88703 1.82443 7.70695
107 1 4.51427 7.50752 3.41454
108 1 8.00733 2.95821 1.61367
109 1 6.42918 7.66946 1.73512
110 1 7.69265 3.22579 6.16539
111 1 5.03864 1.1356 1.17399
112 1 0.797269 7.71186 9.11228
113 1 3.5673 4.86029 0.432832
114 1 0.279498 0.209188 1.05899
115 1 3.10034 0.540967 3.05788
116 1 2.49833 1.77695 0.194663
117 1 5.14471 0.753926 4.30591
118 1 3.12212 4.9088 1.32508
119 1 8.92601 8.45111 3.6922
120 1 1.66906 3.99431 4.62694
121 1 1.40882 6.79953 6.19066
122 1 0.201236 9.30252 3.45602
123 1 1.29615 4.67512 1.33431
124 1 6.75644 1.02229 3.90523
125 1 6.95339 2.56551 2.80079
126 1 8.76422 2.6548 3.67471
127 1 1.83752 7.92828 4.34214
128 1 9.01471 8.23493 4.74249
129 1 8.51134 7.37138 6.13058
130 1 0.662827 5.05962 2.70879
131 1 4.11264 0.0576518 5.53542
132 1 8.18318 4.84109 0.765531
133 1 6.90602 6.20985 6.38276
134 1 5.74398 4.28086 5.10308
135 1 1.1569 1.1206 5.81833
136 1 8.80123 1.68926 0.993319
137 1 1.25023 3.32879 5.2379
138 1 0.0309985 9.38236 7.11197
139 1 2.28083 3.55231 5.55061
140 1 2.27704 8.43385 3.71172
141 1 3.55368 0.905234 5.89355
142 1 2.48707 0.389063 7.58176
143 1 9.25012 8.07206 0.0823372
144 1 6.72254 5.40328 7.96679
145 1 1.10972 8.55561 2.76584
146 1 4.40287 4.67787 3.30205
147 1 7.74858 5.42767 0.256305
148 1 5.53514 5.55437 0.0565663
149 1 3.17135 0.860748 0.530879
150 1 5.20353 0.0381657 7.02613
151 1 6.47648 2.68195 0.786632
152 1 1.34898 5.61989 5.36653
153 1 4.29823 1.13921 0.419801
154 1 8.76859 3.37166 2.58148
155 1 0.844375 0.79991 0.33932
156 1 8.29 9.3589 7.02537
157 1 9.20235 5.78545 8.85192
158 1 1.44152 7.3009 0.65879
159 1 6.43468 3.69309 0.549994
160 1 7.49909 4.98722 1.78738
161 1 4.4404 0.900678 3.91424
162 1 3.6534 6.54485 0.0520337
163 1 8.49305 5.54485 4.99027
164 1 9.11025 7.4371 1.4174
165 1 7.43071 0.0590392 5.5018
166 1 4.61614 0.320679 6.28172
167 1 6.77681 3.11401 9.32283
168 1 3.67085 1.1481 1.30697
169 1 5.61727 8.06299 0.614283
170 1 8.77749 3.6544 4.23419
171 1 2.00872 6.82647 0.223304
172 1 1.85091 0.192941 6.8594
173 1 1.09988 2.24865 1.48267
174 1 5.38618 2.03735 6.95355
175 1 8.37432 5.0682 8.8422
176 1 7.96556 4.08287 1.54761
177 1 4.40105 2.06131 6.40861
178 1 8.14803 0.360538 5.00921
179 1 7.60808 7.42901 6.26751
180 1 3.55757 2.96029 2.26606
181 1 3.8226 2.20321 7.25956
182 1 8.92967 9.38458 5.13569
183 1 7.48581 1.77423 5.19484
184 1 2.29981 7.69827 5.08245
185 1 0.573327 3.02699 8.7544
186 1 8.24053 4.34568 7.69181
187 1 1.2674 8.78202 1.3463
188 1 5.45131 2.28781 3.40854
189 1 2.05141 3.21924 0.595282
190 1 4.8333 4.26824 5.64843
191 1 7.60614 2.37619 5.86144
192 1 1.44576 2.19645 4.3549
193 1 0.998488 5.34229 1.8512
194 1 2.39167 6.2588 4.26256
195 1 3.883 7.88397 5.21297
196 1 7.22955 1.91671 6.99917
197 1 4.77041 0.0457617 3.75256
198 1 5.48143 5.15161 4.5265
199 1 5.52914 8.29222 5.74173
200 1 7.77167 5.9725 4.49009
201 1 8.62278 6.97558 3.56416
202 1 4.43788 7.51924 5.90591
203 1 3.39121 3.10511 3.08731
204 1 0.797072 3.99621 7.52591
205 1 2.10337 5.53476 1.80201
206 1 4.46465 0.448354 1.52574
207 1 0.917717 4.83023 7.2791
208 1 2.01922 4.28821 8.05365
209 1 2.47172 4.51532 2.03216
210 1 6.10343 2.01891 4.02744
211 1 5.81968 3.61472 2.25357
212 1 0.78523 1.69599 5.0693
213 1 1.88446 9.28572 8.21219
214 1 4.07011 0.170253 8.22322
215 1 4.96278 6.93019 0.030268
216 1 2.47833 1.81389 6.93681
217 1 1.2009 6.76831 5.34445
218 1 0.475207 4.45223 5.51608
219 1 3.75471 3.90063 2.67737
220 1 8.43321 5.05781 1.91609
221 1 5.54222 7.29658 7.42735
222 1 9.09327 0.474903 1.72143
223 1 2.2481 7.39275 6.2921
224 1 1.37756 0.516974 4.21383
225 1 8.52398 1.72135 5.61785
226 1 2.55425 0.784706 5.42812
227 1 1.49534 2.21062 8.68055
228 1 0.194196 2.61562 2.0822
229 1 7.53979 9.25865 4.65779
230 1 8.17786 8.48347 0.600391
231 1 7.60756 2.86083 5.06312
232 1 3.58696 8.89489 4.7446
233 1 9.13634 2.00637 4.94188
234 1 3.37066 3.85475 0.476089
235 1 4.20362 2.78151 5.82861
236 1 7.21362 1.27718 6.26468
237 1 1.66323 1.29437 0.999739
238 1 8.30636 3.04797 6.85481
239 1 4.62763 8.38501 6.1388
240 1 4.46754 8.62862 3.28076
241 1 6.15679 5.00424 5.26568
242 1 6.07907 9.35707 2.27091
243 1 5.27648 1.33554 0.0508713
244 1 7.09428 5.09597 4.43923
245 1 2.64702 5.06576 0.139717
246 1 4.97778 3.89801 2.86837
247 1 5.97975 1.49344 6.42497
248 1 1.54096 2.02186 5.64003
249 1 2.74205 6.23004 3.36129
250 1 7.69096 8.54375 7.10241
251 1 2.00366 0.119895 4.84418
252 1 8.23901 3.46719 5.16859
253 1 1.20497 9.19331 0.28336
254 1 9.36672 3.84983 9.12946
255 1 2.86706 2.87956 5.11096
256 1 8.56414 3.04567 0.939419
257 1 7.99726 0.646295 4.07827
258 1 5.98038 4.62116 3.97329
259 1 5.24108 1.54142 3.95675
260 1 5.63339 6.1997 3.50648
261 1 9.24383 0.824521 3.41265
262 1 3.28254 1.38368 5.18255
263 1 7.65064 6.52312 0.762397
264 1 3.74735 8.67361 6.69057
265 1 3.4882 3.42982 8.5688
266 1 2.96113 8.97717 8.06434
267 1 1.79805 2.31817 0.800582
268 1 2.6731 6.81408 8.61007
269 1 5.16889 5.61977 8.35935
270 1 2.55373 1.35897 1.23864
271 1 8.8359 4.73128 5.20209
272 1 9.1233 6.87164 0.666264
273 1 0.895725 3.22608 2.01325
274 1 4.02948 6.5392 1.70775
275 1 7.93703 1.81543 6.51523
276 1 2.63438 3.72995 8.80052
277 1 8.68892 0.579651 5.93578
278 1 1.99139 6.95637 1.12732
279 1 2.89226 7.23789 3.01045
280 1 8.10283 6.46666 6.09673
281 1 0.868757 2.57179 5.69574
282 1 0.584635 4.38975 6.60187
283 1 3.62582 4.12018 7.57271
284 1 5.80947 5.28746 3.31729
285 1 4.66961 3.23682 7.56711
286 1 7.04851 8.8131 6.62131
287 1 7.77815 7.60981 7.26231
288 1 4.53853 0.0812943 2.65497
289 1 4.71355 8.19128 0.72639
290 1 1.20675 7.67461 5.44641
291 1 0.840157 1.59725 0.916137
292 1 2.55569 1.82396 5.19142
293 1 5.67826 7.98644 4.6555
294 1 5.77414 7.19064 3.47041
295 1 7.98167 1.93679 2.53898
296 1 8.15746 3.69732 3.12985
297 1 4.02522 5.09276 7.24894
298 1 2.87977 8.60133 7.20431
299 1 7.02189 7.1149 5.15367
300 1 9.27733 4.05303 0.752779
301 1 7.77455 0.951064 5.58625
302 1 3.85373 3.38542 1.50724
303 1 5.70945 0.442414 8.0166
304 1 5.92061 1.13488 1.39844
305 1 3.71201 5.51338 1.67939
306 1 8.71507 3.53023 1.63562
307 1 1.75134 8.03825 1.14081
308 1 8.03192 5.31715 3.93552
309 1 6.13193 8.87683 6.35529
310 1 1.46463 4.9082 3.45374
311 1 2.52515 3.36845 3.06584
312 1 3.87949 4.53526 6.19113
313 1 4.99916 6.97734 2.02912
314 1 5.98431 2.40239 6.10252
315 1 1.22004 1.14777 6.77855
316 1 1.08948 9.1662 3.89545
317 1 1.02504 9.17508 6.7737
318 1 0.615895 7.34564 2.39006
319 1 3.68406 1.94458 8.18591
320 1 3.12029 2.02107 6.34113
321 1 2.89378 9.19025 2.18814
322 1 7.14569 5.48331 1.07227
323 1 1.16885 9.26201 5.20692
324 1 6.17704 7.43147 9.33705
325 1 7.81701 1.51922 3.58356
326 1 2.20013 2.6889 7.58769
327 1 5.44583 2.41185 0.316672
328 1 0.46489 6.11037 8.06597
329 1 5.48315 3.26885 3.31614
330 1 1.04947 2.52571 3.1636
331 1 6.71789 6.93194 7.00705
332 1 2.10666 0.276677 6.01201
333 1 0.763299 1.56558 8.27414
334 1 2.9532 8.82925 3.3145
335 1 4.85243 3.16475 2.31147
336 1 1.08868 8.70907 8.11733
337 1 3.78038 9.16053 1.86863
338 1 4.12633 1.1258 8.13546
339 1 6.90078 8.43267 2.26262
340 1 0.592784 0.103611 2.10831
341 1 0.515664 6.82233 5.89815
342 1 3.23025 9.26139 8.92089
343 1 2.34043 8.4237 1.85581
344 1 4.78015 7.91353 5.05565
345 1 1.42597 6.28022 1.71985
346 1 8.70106 3.54561 7.50225
347 1 8.47191 8.71583 8.95531
348 1 9.39067 5.49674 4.87405
349 1 7.97102 8.90811 2.07598
350 1 8.88339 0.332134 4.23411
351 1 7.8346 6.08213 8.93032
352 1 4.23534 1.91789 1.18967
353 1 4.75562 2.91936 0.224538
354 1 0.773043 0.760481 4.88771
355 1 4.14722 7.05501 0.51596
356 1 6.52535 0.436083 8.75517
357 1 0.912893 1.55864 3.23573
358 1 4.48783 5.26245 4.23648
359 1 3.39448 7.43357 8.52732
360 1 8.47723 8.93116 2.88463
361 1 5.99382 4.67615 8.20867
362 1 4.46138 8.7287 5.08761
363 1 9.30515 1.00698 0.754706
364 1 5.36153 8.39756 1.40805
365 1 0.316218 7.70277 5.04466
366 1 3.85937 3.49666 6.09566
367 1 4.36997 8.88652 1.16989
368 1 6.29826 7.6396 7.61898
369 1 1.19325 7.1896 3.72731
370 1 3.87824 0.587143 2.32366
371 1 7.86179 3.41633 8.30886
372 1 2.82154 2.89601 8.24691
373 1 1.20894 5.48429 4.16242
374 1 1.17245 0.47113 1.41186
375 1 9.35737 1.76262 7.21526
376 1 2.80854 8.31171 4.42734
377 1 9.11009 6.5476 2.97068
378 1 5.62129 3.21814 8.44303
379 1 6.85701 0.245344 6.38641
380 1 7.59112 7.95533 5.07071
381 1 0.185028 4.01074 8.23999
382 1 0.0857032 3.09034 1.25465
383 1 8.57887 3.69391 6.28166
384 1 2.52329 4.88756 8.46505
385 1 2.94047 4.15158 2.79196
386 1 6.15325 5.31499 2.54444
387 1 0.864459 2.01678 2.30526
388 1 4.87577 1.41378 4.85417
389 1 6.33346 7.07424 8.39532
390 1 1.93654 8.54052 5.08078
391 1 3.33835 1.8352 1.70894
392 1 2.94386 7.21143 9.30003
393 1 4.19981 6.97311 8.81446
394 1 1.34782 6.32304 7.10274
395 1 3.54613 6.48286 4.59417
396 1 0.836484 8.68178 9.03953
397 1 5.1799 2.18624 5.80423
398 1 5.772 2.93163 7.44155
399 1 6.32308 2.17624 7.02656
400 1 5.55047 9.12512 4.99882
401 1 6.83383 6.44232 8.84204
402 1 8.22826 7.97651 1.344
403 1 1.32063 0.298214 7.68049
404 1 7.28235 2.81838 6.99486
405 1 4.19807 7.7927 8.12633
406 1 3.38973 1.40501 7.25924
407 1 0.343869 7.05355 4.11525
408 1 4.43895 5.19838 8.98205
409 1 1.47072 3.86569 0.974342
410 1 0.11701 3.75754 7.0561
411 1 3.73132 8.90674 3.8217
412 1 1.80331 3.51285 7.5897
413 1 3.74693 5.62703 5.50532
414 1 -0.0137414 5.20669 1.96421
415 1 5.36238 7.08182 4.3994
416 1 0.371932 2.30413 0.753214
417 1 8.07907 7.88988 8.10134
418 1 3.51903 2.11765 5.5253
419 1 7.07999 5.29607 3.18854
420 1 2.8598 8.09206 2.86105
421 1 8.02616 5.75405 1.27621
422 1 4.45958 5.15207 5.76031
423 1 0.523249 9.27961 7.89038
424 1 7.6965 4.23483 5.24823
425 1 6.34708 5.49888 6.79604
426 1 0.173496 2.689 3.24958
427 1 2.11104 8.84629 0.539908
428 1 0.984551 7.29312 6.79246
429 1 3.118 1.03141 2.25371
430 1 1.74809 4.1254 3.01324
431 1 2.19753 8.21829 5.81076
432 1 1.71681 3.79123 2.21407
433 1 6.17843 4.64239 6.36926
434 1 5.09583 0.452011 0.426138
435 1 3.03243 8.49561 0.153951
436 1 0.276893 6.76565 4.99036
437 1 0.249742 5.92937 6.27728
438 1 0.273358 6.13139 1.48055
439 1 5.65033 6.60577 8.71664
440 1 9.31545 8.52381 2.74671
441 1 8.48207 4.19348 2.34876
442 1 7.70858 5.63189 6.20027
443 1 7.22582 4.01673 0.387891
444 1 0.114189 3.09481 0.271568
445 1 0.458605 4.93834 1.2432
446 1 6.12481 5.49683 8.70978
447 1 6.42572 8.41229 7.13167
448 1 2.9731 0.442485 1.33055
449 1 3.17942 5.4197 8.88346
450 1 2.8365 9.10336 5.2786
451 1 1.36101 6.84306 2.70257
452 1 6.66802 7.8397 4.95629
453 1 8.80932 5.86675 6.57181
454 1 4.11804 8.35277 2.51018
455 1 8.84519 3.33861 8.62243
456 1 5.209 0.400364 2.07513
457 1 2.0635 6.12791 0.707872
458 1 6.88723 5.6701 5.46776
459 1 2.0252 8.79807 6.48837
460 1 9.14942 5.54759 3.28187
461 1 5.09049 6.92144 5.65866
462 1 3.52418 3.11643 -0.0113399
463 1 3.04606 4.32594 5.93757
464 1 7.17471 8.17962 7.65763
465 1 8.68602 6.02143 8.09262
466 1 3.7927 6.87311 5.96043
467 1 5.31852 6.10576 5.91697
468 1 7.34888 7.91518 1.79323
469 1 8.56215 1.35766 2.04454
470 1 0.0958838 1.05295 9.07521
471 1 8.35639 9.1724 3.70747
472 1 0.12634 1.18375 5.6488
473 1 6.49203 5.96143 1.89603
474 1 4.79439 0.59943 9.01469
475 1 6.84548 4.64521 8.76026
476 1 6.0307 1.8599 2.12486
477 1 3.49372 4.38499 3.50507
478 1 3.86846 2.48393 4.81235
479 1 4.76549 3.62585 6.52403
480 1 0.787318 4.39466 2.02301
481 1 8.65162 6.70374 6.88178
482 1 1.21369 4.77135 6.13403
483 1 0.0125564 5.12697 6.80602
484 1 8.40945 7.61311 5.1402
485 1 8.60231 7.62186 0.554503
486 1 2.09452 4.96101 4.26786
487 1 1.90283 3.05722 8.39445
488 1 3.67642 8.64077 5.66623
489 1 7.41476 7.04343 3.30907
490 1 4.2558 2.37293 2.36945
491 1 9.18227 0.737171 8.26367
492 1 2.83798 5.2841 5.72865
493 1 7.58439 4.41705 6.30371
494 1 4.58674 1.61265 7.42269
495 1 8.42063 1.56504 7.37543
496 1 2.3603 5.58945 6.88968
497 1 5.5141 2.55131 4.97636
498 1 6.48249 5.46803 0.191104
499 1 7.0157 4.0603 7.9238
500 1 1.88697 6.60299 7.82743
501 1 3.61871 5.97636 3.82796
502 1 9.09574 4.43424 1.68469
503 1 4.8839 4.53608 4.80613
504 1 2.02345 4.86512 6.08493
505 1 0.934898 0.273393 6.10283
506 1 7.50078 6.48095 1.70003
507 1 2.11476 5.79842 5.98591
508 1 9.12196 3.89173 5.2459
509 1 7.08569 4.42814 2.63042
510 1 5.0904 4.39337 8.70153
511 1 6.44492 0.200572 0.177149
512 1 2.80235 0.0612608 6.72822
513 1 7.09273 7.3411 9.12952
514 1 5.09598 7.33459 6.55596
515 1 1.4928 8.36556 0.305022
516 1 8.62267 5.36918 0.240205
517 1 2.30111 0.258365 3.37696
518 1 2.69568 7.68041 1.34061
519 1 8.2407 0.443399 2.18177
520 1 9.29324 7.22689 9.26765
521 1 0.595674 7.80689 6.1076
522 1 8.42671 0.472953 3.14829
523 1 4.03362 1.10296 6.65238
524 1 8.34063 7.15979 2.03953
525 1 4.24742 3.43195 3.33688
526 1 3.29375 6.95192 6.84824
527 1 7.3172 3.95578 8.85022
528 1 3.80239 4.76161 4.38516
529 1 0.760228 6.14789 2.37536
530 1 6.23241 4.4128 2.36558
531 1 0.399017 7.49719 7.53539
532 1 0.665635 5.74119 7.15953
533 1 8.15725 0.17742 8.69048
534 1 7.77191 2.17258 4.29314
535 1 7.12026 3.5135 5.43017
536 1 2.54651 4.18546 0.388073
537 1 0.0494135 1.80711 2.87225
538 1 8.2066 8.66992 5.12879
539 1 8.31024 7.01746 7.7182
540 1 5.86758 0.602263 5.30063
541 1 2.76836 1.26797 3.33302
542 1 5.75537 7.84954 8.36391
543 1 3.51543 3.8451 4.2978
544 1 7.11442 2.36199 7.89658
545 1 2.78787 0.919264 6.45485
546 1 4.18204 0.138523 4.61589
547 1 2.41779 0.70277 4.19453
548 1 4.62972 1.49174 8.84558
549 1 7.14708 3.30217 1.11909
550 1 2.16876 5.61578 9.04331
551 1 0.312763 8.74422 6.2199
552 1 8.14678 8.18645 6.39942
553 1 9.34919 6.86357 2.10365
554 1 8.90006 9.01716 1.91519
555 1 3.97443 4.56036 5.21645
556 1 0.315032 8.31568 7.84034
557 1 7.73688 1.75215 8.29236
558 1 1.75465 1.84852 2.93239
559 1 1.6061 7.9936 6.51528
560 1 4.90207 4.58085 0.285478
561 1 5.03831 4.30442 3.90432
562 1 9.33148 3.1816 6.40109
563 1 8.62547 6.16787 3.85552
564 1 4.69463 5.65828 0.469968
565 1 4.58648 6.09804 8.98299
566 1 5.92821 0.415922 4.15397
567 1 6.92548 2.01179 3.74824
568 1 2.09954 0.319359 0.979733
569 1 2.14077 6.46821 6.61238
570 1 5.39715 5.01245 5.73268
571 1 4.99754 9.14316 7.93174
572 1 1.21195 5.96384 8.68721
573 1 5.03348 6.33741 7.07737
574 1 9.27759 5.39385 7.66399
575 1 3.8859 5.50759 6.43262
576 1 2.0199 5.78858 3.72312
577 1 3.20716 2.81988 5.91095
578 1 2.81519 9.40084 0.476115
579 1 3.71965 7.90681 3.81987
580 1 5.96154 6.51814 6.65803
581 1 5.98481 0.469113 6.4493
582 1 4.8162 6.77414 1.00886
583 1 2.89556 6.49264 7.76419
584 1 7.98833 9.0372 8.01688
585 1 2.56932 1.75324 2.2172
586 1 3.8213 7.80679 7.22576
587 1 4.95228 6.58674 3.02608
588 1 4.13826 1.80869 4.34992
589 1 1.73031 4.42748 6.78612
590 1 4.99782 8.0134 9.16863
591 1 1.33032 6.1201 0.214562
592 1 2.70944 2.65566 4.26639
593 1 4.66413 1.92848 0.408711
594 1 7.37144 8.87928 1.2188
595 1 1.44183 1.08396 2.11255
596 1 0.28977 6.19825 0.171806
597 1 0.921781 6.79979 7.82508
598 1 7.32084 2.50157 0.637504
599 1 5.25003 1.50649 2.50968
600 1 4.68211 5.67463 3.43014
601 1 1.96922 6.73741 3.42315
602 1 2.39264 9.02921 8.95141
603 1 1.58313 1.01965 8.22252
604 1 2.94773 2.43001 0.700757
605 1 0.415909 2.3237 8.04844
606 1 8.08666 2.03122 1.57032
607 1 6.45467 8.11618 5.98037
608 1 5.23313 8.93437 2.79807
609 1 6.67264 3.50122 2.78256
610 1 3.87585 7.39057 2.56623
611 1 6.89951 4.52409 5.5371
612 1 3.07428 3.6406 3.66964
613 1 3.52013 2.08298 2.74588
614 1 1.52485 4.87691 2.52538
615 1 6.00911 0.824689 2.59565
616 1 0.535982 6.53976 3.13271
617 1 4.74209 2.92808 8.61582
618 1 8.55883 6.32094 0.230129
619 1 0.99471 1.34921 4.09622
620 1 9.35432 5.20553 5.6865
621 1 5.96843 0.860407 0.563998
622 1 1.44142 9.10151 2.2159
623 1 9.06161 3.06009 4.94373
624 1 8.75805 7.63889 4.21886
625 1 8.41446 1.6045 4.57905
626 1 3.61654 7.85614 6.28835
627 1 1.70243 3.31372 3.60791
628 1 5.54951 1.81188 0.93906
629 1 1.21111 4.86952 4.85661
630 1 6.18571 3.24488 6.58511
631 1 7.35345 2.46206 8.81488
632 1 8.86488 1.39739 6.40843
633 1 8.13333 2.95819 4.35094
634 1 7.97728 5.52257 3.06234
635 1 2.29656 7.89119 0.289595
636 1 8.42146 5.12383 5.96148
637 1 7.68093 4.65908 9.30092
638 1 6.6109 7.22481 5.91259
639 1 6.74382 3.57743 7.16688
640 1 7.72924 3.21752 9.38275
641 1 6.83807 2.96427 6.16929
642 1 0.469529 8.55498 2.03992
643 1 4.16486 2.35748 9.05166
644 1 0.388316 1.75018 0.0580836
645 1 6.10968 8.27542 3.05139
646 1 1.16765 4.31255 3.92976
647 1 8.69379 4.73053 4.30558
648 1 2.60762 2.9351 6.78625
649 1 2.31554 6.50602 2.48541
650 1 0.237686 0.0619442 0.196417
651 1 3.21296 0.537412 4.5397
652 1 7.99408 7.97509 2.40709
653 1 6.03734 4.656 9.28752
654 1 3.61645 7.37452 1.3792
655 1 0.602685 1.2354 1.72433
656 1 6.04495 2.70192 9.12171
657 1 4.27511 7.06826 6.72587
658 1 4.91996 8.92029 4.3747
659 1 3.79521 8.98583 0.153953
660 1 3.2101 2.4319 8.91812
661 1 3.25595 0.0555445 6.00689
662 1 7.87826 8.33393 3.42379
663 1 3.80463 0.351845 3.83369
664 1 8.0058 2.47441 7.55901
665 1 1.82783 1.84696 1.79274
666 1 3.31039 3.98347 1.89795
667 1 2.12283 8.79991 2.78961
668 1 5.33518 3.41305 5.22936
669 1 8.40866 4.37931 6.81918
670 1 6.35109 8.7022 8.16219
671 1 5.53235 2.22001 7.92707
672 1 6.59431 0.230262 3.13917
673 1 1.5229 8.14245 2.0814
674 1 0.919652 3.08867 0.859281
675 1 5.2503 4.7858 7.42335
676 1 0.53799 3.62937 5.96058
677 1 4.64204 5.93325 1.42915
678 1 8.96242 0.75534 7.26992
679 1 0.7908 6.9943 1.21183
680 1 5.04054 6.00641 4.29519
681 1 0.0425642 9.03255 4.33745
682 1 6.93155 1.01851 0.51233
683 1 4.39223 7.51089 4.32968
684 1 8.92054 0.858461 5.08911
685 1 9.08197 1.58293 3.81242
686 1 6.4954 4.37438 4.68826
687 1 6.66908 0.823364 7.05007
688 1 4.99072 7.06121 8.46008
689 1 9.07777 7.98006 8.4547
690 1 0.48794 1.90673 6.44896
691 1 7.16494 5.50052 8.75267
692 1 0.781138 0.696063 8.55021
693 1 8.89336 9.0876 0.512018
694 1 4.55999 8.32269 7.17428
695 1 7.83259 6.15532 7.93169
696 1 4.34575 9.34379 7.276
697 1 4.53683 2.15172 8.19979
698 1 3.66988 6.68861 3.02682
699 1 7.36423 8.90117 2.85098
700 1 7.45959 0.149677 3.54253
701 1 7.06184 7.17819 1.18933
702 1 0.457886 7.99985 4.23049
703 1 8.95637 2.5414 7.74367
704 1 0.281059 6.0237 3.8171
705 1 8.11056 3.85578 0.697245
706 1 7.06468 2.80487 1.92103
707 1 3.22595 8.12563 7.84775
708 1 4.19952 4.15724 0.976221
709 1 6.31227 3.84835 8.97554
710 1 3.22637 0.659839 8.21581
711 1 3.30041 7.99866 2.07407
712 1 6.91085 1.70833 2.3965
713 1 0.666963 7.70019 3.18127
714 1 1.39611 1.34156 9.05687
715 1 6.31335 9.30721 5.57454
716 1 3.62185 8.50277 8.6263
717 1 6.37405 5.62145 3.95346
718 1 0.75487 3.73547 0.100508
719 1 5.74389 4.43405 3.15418
720 1 7.49734 6.32435 5.33799
721 1 8.58086 3.2692 9.39833
722 1 4.93252 0.615659 5.36901
723 1 7.58482 8.41391 9.19801
724 1 1.36884 5.76502 7.83146
725 1 9.10265 8.39161 1.08482
726 1 1.48694 2.04728 6.65547
727 1 3.6091 4.74236 2.39644
728 1 7.62812 3.84708 7.04838
729 1 2.78354 3.61228 7.60449
730 1 2.96361 7.23404 5.67171
731 1 8.47365 4.4627 3.30863
732 1 8.18311 6.38883 3.05941
733 1 7.94785 7.44929 3.96671
734 1 7.08837 6.64489 7.81998
735 1 7.67922 6.60969 7.0409
736 1 3.97089 6.13941 0.862457
737 1 5.13467 8.08787 3.93573
738 1 7.36668 6.07104 3.65162
739 1 1.16247 5.83812 3.296
740 1 6.40153 1.64215 3.1651
741 1 3.17408 5.98795 6.47507
742 1 9.35654 2.41188 5.79338
743 1 7.58442 7.50591 0.466545
744 1 9.22106 4.875 8.5919
745 1 5.29106 3.89821 7.81956
746 1 6.67216 2.75175 4.3386
747 1 1.08018 8.25847 7.32552
748 1 2.04935 0.37271 2.04954
749 1 6.37008 8.33735 9.09917
750 1 1.21884 8.25214 3.78038
751 1 8.66969 4.34723 0.0945608
752 1 2.54547 2.42961 2.92222
753 1 5.71407 1.33767 8.31379
754 1 1.97464 7.39873 8.90081
755 1 6.73165 1.02994 1.85255
756 1 1.67189 2.88361 6.94768
757 1 6.75466 1.80287 4.68232
758 1 1.51306 7.30291 1.78366
759 1 2.29815 2.55989 5.72594
760 1 6.4339 5.04456 1.73386
761 1 6.25748 6.81279 4.76692
762 1 2.14695 1.46206 6.08465
763 1 6.74866 6.88244 2.06303
764 1 6.43327 2.0573 8.33203
765 1 4.43051 1.22381 5.94265
766 1 7.01532 4.19474 3.82051
767 1 4.77622 5.72983 5.20339
768 1 3.99009 2.7178 0.786489
769 1 6.31925 3.52467 7.98526
770 1 7.61021 1.05727 2.2078
771 1 0.667828 3.82989 4.77579
772 1 6.82869 1.94008 1.53782
773 1 7.30496 0.513604 9.13501
774 1 2.86563 8.36046 6.3818
775 1 2.83181 4.41979 4.33029
776 1 3.15755 7.4169 4.72198
777 1 5.85231 2.64144 2.70232
778 1 6.72798 2.09299 9.37738
779 1 0.132425 1.09678 4.42115
780 1 2.13779 7.6879 8.03684
781 1 1.97701 8.47958 7.7713
782 1 5.71699 4.92124 0.748631
783 1 4.9109 2.81432 1.18453
784 1 8.65309 8.98357 6.30032
785 1 3.70971 2.96638 3.99697
786 1 6.07226 3.03661 1.62474
787 1 3.80404 5.71292 0.177339
788 1 8.75973 2.42475 2.74905
789 1 3.12082 6.63933 0.993428
790 1 6.6161 4.6718 0.743765
791 1 7.94812 0.871862 0.400058
792 1 7.01726 7.24576 4.30813
793 1 0.449873 3.61923 3.69963
794 1 5.18862 3.56164 1.58086
795 1 9.07209 7.02029 5.57237
796 1 0.711155 4.48641 9.02717
797 1 6.4471 6.53084 3.74748
798 1 2.5913 4.03899 1.25524
799 1 7.57209 8.57047 5.82901
800 1 1.86586 1.10385 3.55616
801 2 5.9129 7.42393 5.35923
802 2 0.835049 2.83736 6.64285
803 2 8.36502 7.78047 8.96095
804 2 5.79363 6.4461 2.34391
805 2 0.702658 5.95933 4.69679
806 2 1.9808 5.10924 7.55471
807 2 6.68322 0.360076 4.45095
808 2 7.28632 5.7292 7.29398
809 2 5.78775 7.38158 2.22927
810 2 2.15758 4.8776 1.22229
811 2 8.6414 6.53528 4.90378
812 2 3.80009 3.05651 6.91777
813 2 3.49971 6.18565 8.44564
814 2 2.72523 2.39306 1.53091
815 2 7.20096 8.22116 4.37168
816 2 7.59683 1.68281 9.26266
817 2 5.47133 2.02673 8.80836
818 2 4.03078 5.82496 4.63155
819 2 6.7973 0.826709 5.47198
820 2 8.78265 5.97277 5.67175
821 2 6.52715 6.0499 2.95322
822 2 7.88986 9.19729 0.228727
823 2 9.37416 1.93635 1.60696
824 2 4.66858 8.90339 2.0307
825 2 0.871119 4.25166 3.0446
826 2 4.91713 0.78377 7.71941
827 2 7.56517 4.8856 8.04108
828 2 1.1042 7.16752 4.56557
829 2 7.89817 4.21175 4.0141
830 2 6.58201 1.28529 7.87856
831 2 1.6514 5.23052 0.265829
832 2 1.13442 3.64319 6.77183
833 2 3.13246 7.7104 0.613025
834 2 8.36099 9.23784 1.30893
835 2 7.12796 7.96144 6.7467
836 2 7.79565 3.63582 2.25583
837 2 6.89284 7.98991 8.40306
838 2 2.7627 9.27065 4.07655
839 2 8.06706 1.04026 8.92173
840 2 0.456367 7.66854 0.576516
841 2 1.76896 8.26419 8.7536
842 2 2.31435 5.78145 8.14666
843 2 4.74024 5.60552 7.46597
844 2 0.197873 8.20963 6.94225
845 2 4.39163 7.62133 1.71037
846 2 5.4951 5.82326 1.80315
847 2 0.882167 1.94183 7.35632
848 2 5.56556 4.04742 6.07658
849 2 5.75714 1.09924 3.41454
850 2 3.30818 3.77166 5.20207
851 2 6.97828 3.20236 8.40846
852 2 0.279544 6.91671 8.48249
853 2 4.35242 3.83628 8.15599
854 2 0.494009 2.56985 4.92654
855 2 8.04182 7.0123 1.27008
856 2 2.85558 6.05237 1.6107
857 2 5.44949 7.47035 1.42123
858 2 3.64236 9.22816 2.81644
859 2 3.66636 1.88656 0.41932
860 2 7.44211 5.97422 2.43043
861 2 5.91672 8.78669 0.28234
862 2 7.40151 3.5972 4.46648
863 2 9.22092 2.41735 8.75094
864 2 1.7492 3.0798 6.1608
865 2 5.76907 6.42511 7.72912
866 2 3.89432 7.8019 0.0295026
867 2 1.48987 0.441761 2.84873
868 2 2.7387 6.23563 0.0140175
869 2 5.29087 8.41305 6.7453
870 2 8.72716 2.61333 1.65103
871 2 2.69616 7.61224 7.15641
872 2 9.24431 0.0630442 2.59058
873 2 1.64357 1.33156 5.1118
874 2 1.0773 8.33079 4.73326
875 2 6.0266 5.78297 4.87771
876 2 3.23673 4.43556 9.00344
877 2 2.32726 1.55947 4.1436
878 2 9.00938 5.38201 1.15458
879 2 7.9427 1.69921 0.740836
880 2 5.45653 6.44264 4.99344
881 2 2.76543 4.58064 7.5781
882 2 4.08786 5.6272 8.29167
883 2 5.52961 3.4472 4.25328
884 2 6.19988 7.98877 3.96852
885 2 1.30268 2.7347 7.76476
886 2 5.72412 8.95092 4.01594
887 2 6.20393 6.44523 5.67635
888 2 5.60447 7.1071 0.617512
889 2 3.15779 5.51449 7.43706
890 2 4.35788 6.22566 5.86999
891 2 6.44601 7.43057 2.79608
892 2 7.58017 7.14186 2.45055
893 2 2.13104 4.05663 3.84731
894 2 4.41355 1.96866 5.38144
895 2 3.22508 5.0453 5.03893
896 2 5.87182 8.49269 2.18298
897 2 8.54796 8.59052 7.44117
898 2 7.41462 0.217904 7.15693
899 2 2.23419 6.76395 5.109
900 2 2.23206 0.992814 2.63242
901 2 8.65758 0.457828 0.078452
902 2 5.91719 1.3409 4.68891
903 2 6.96319 5.17949 6.24816
904 2 8.71923 7.63963 7.15771
905 2 5.7814 3.24312 0.834019
906 2 1.16049 3.98777 8.31206
907 2 5.29031 3.55988 9.19659
908 2 1.91428 0.989581 7.29644
909 2 8.83171 7.77016 3.037
910 2 1.80694 7.42222 7.23522
911 2 6.74763 3.88796 6.29855
912 2 6.71338 1.84658 5.83047
913 2 3.8817 2.82512 8.04035
914 2 5.66361 0.176084 3.09877
915 2 4.50015 5.97323 2.31624
916 2 2.36319 7.22207 4.27088
917 2 6.40233 3.60764 3.98279
918 2 6.90015 8.90193 3.66043
919 2 4.86284 8.38682 8.26931
920 2 2.98461 8.48478 1.06077
921 2 3.00118 6.17138 5.53424
922 2 7.85928 6.8204 4.61835
923 2 6.85518 6.21157 4.49654
924 2 1.70013 5.75758 2.67077
925 2 5.03511 9.15667 5.67328
926 2 5.64531 8.6938 8.73226
927 2 2.69304 5.32208 2.67521
928 2 4.29808 3.71272 9.27944
929 2 0.753314 0.552295 3.52644
930 2 6.16426 1.49488 9.11312
931 2 5.5286 3.81688 6.91868
932 2 7.01965 8.89611 0.34973
933 2 4.28518 1.38756 1.93032
934 2 2.38346 7.52724 2.20878
935 2 8.97383 2.34054 6.66449
936 2 3.14889 6.91716 3.85556
937 2 0.464473 2.1093 4.19555
938 2 7.1545 9.09487 8.40797
939 2 7.63565 0.555671 1.39607
940 2 2.6073 4.92651 3.39279
941 2 7.28741 0.835772 8.18525
942 2 6.30604 9.35922 7.31986
943 2 4.34608 6.51339 3.89231
944 2 4.59684 6.3007 8.10917
945 2 8.13903 2.3485 0.0252027
946 2 9.3167 7.29531 6.48806
947 2 7.14434 1.02029 3.05055
948 2 7.79893 0.202441 6.28894
949 2 1.78911 2.8652 2.54275
950 2 5.7494 1.6135 5.58742
951 2 7.32804 3.06532 3.73703
952 2 9.14847 7.94997 5.8331
953 2 4.40469 4.19375 1.94633
954 2 5.64432 0.592895 8.98364
955 2 5.23566 2.27316 1.92778
956 2 3.52488 5.20852 3.26464
957 2 2.27371 0.890071 0.232255
958 2 6.40039 0.218307 1.12673
959 2 4.40795 8.88025 8.89447
960 2 4.58918 5.12282 1.88393
961 2 4.64713 2.90822 4.97661
962 2 3.809 6.8891 7.95536
963 2 3.06381 5.12073 6.64764
964 2 5.99795 6.64706 1.35267
965 2 1.17168 5.73166 0.951944
966 2 4.53925 6.67225 4.92778
967 2 3.84622 1.26146 3.00665
968 2 0.980963 4.58971 0.514827
969 2 2.91017 3.22864 1.15932
970 2 1.65957 7.75182 2.97325
971 2 0.566498 3.85776 1.23914
972 2 5.37959 6.09442 0.853087
973 2 6.14887 5.59006 5.91721
974 2 5.50243 8.39468 7.69168
975 2 9.20932 4.38103 6.02856
976 2 2.83398 5.44957 4.19092
977 2 5.03189 8.86539 0.0924819
978 2 0.17541 4.83853 0.239837
979 2 6.14996 6.30723 0.106973
980 2 3.51816 3.974 6.69231
981 2 8.12825 8.47554 4.27117
982 2 8.66876 6.07776 1.89417
983 2 7.55308 1.20695 7.39494
984 2 1.08295 2.94213 4.04981
985 2 1.917 3.477 9.20069
986 2 2.38731 2.15626 8.65064
987 2 7.06127 7.99816 3.30265
988 2 1.03259 3.38478 2.87452
989 2 4.26053 3.67482 5.28108
990 2 3.88374 0.339133 0.781808
991 2 2.622 3.56562 4.56014
992 2 3.20048 1.40984 8.93159
993 2 1.4559 0.512859 9.17823
994 2 5.16579 1.12193 6.56086
995 2 0.473995 3.04349 7.49286
996 2 3.06399 2.11553 3.59227
997 2 6.76401 2.55657 5.25057
998 2 4.82289 2.87412 3.8607